default_name
188749
  20.9080980  88.1901137  41.0197530  20.7610966  88.7744373  41.6745487
  21.3729555  88.5825535  40.3703961  20.1288535  87.9065348  40.6967314
  21.6575631  87.0612289  41.5368432  21.7997838  87.1420790  42.4929277
  20.8777149  85.7302819  41.3391877  20.0200291  85.8088217  41.7861290
  20.6963030  85.6198424  40.3932280  21.5804146  84.4521080  41.8534948
  22.4363393  84.3460573  41.4103018  21.7609874  84.5346977  42.8030159
  20.5380382  82.9901593  41.5453107  21.6284742  81.7126623  42.2483534
  21.2069273  80.8437353  42.1618311  22.4737079  81.7107352  41.7722669
  21.7863322  81.9021358  43.1862604  22.9847675  87.0550365  40.7978194
  23.2330598  87.9090681  39.9498183  23.8557183  86.1399232  41.2911616
  23.5961365  85.6066459  41.9138224  25.2272152  85.8693530  40.9503784
  25.3059850  85.6869320  40.0006611  26.1817419  87.0392185  41.2478447
  27.0851337  86.7915964  40.9958934  25.9066570  87.8188061  40.7403394
  26.1557515  87.2455341  42.1952429  25.5974082  84.7447749  41.8784701
  24.7105522  84.2140799  42.5479223  26.8880354  84.3191377  41.9281434
  27.5354011  84.6410012  41.4617449  27.2395507  83.2418956  42.8227174
  26.4991415  83.1899839  43.4480560  27.4791381  81.9105243  42.1335337
  27.3503804  81.1730476  42.7499740  26.8541492  81.7814557  41.4032275
  28.8166614  81.9468699  41.6571428  28.9948399  81.2249111  41.2665829
  28.5983052  83.5241788  43.3959560  29.4135552  84.2000214  42.7734689
  28.8966536  82.9537074  44.5858836  28.3626826  82.4244912  45.0032565
  30.1493576  83.1806430  45.2713270  30.5614362  83.9433310  44.8351078
  29.9565062  83.4815647  46.7701317  29.4900488  82.7377085  47.1821577
  30.8272088  83.5399579  47.1929323  29.1818385  84.7685499  47.0510253
  29.6544663  85.5340568  46.6890210  28.3134419  84.7413144  46.6205517
  29.0237910  84.9065242  48.5568905  29.9914390  84.8081987  49.3087059
  27.7624972  85.1335905  49.0119221  27.1097978  85.1961087  48.4555400
  27.6181752  85.2137820  49.8557618  31.0046612  81.9439339  45.1953632
  30.4933167  80.8470659  44.9829192  32.3161589  82.1298101  45.2930657
  32.8718674  83.2437604  44.5325606  33.0910108  83.9873331  45.1158254
  32.2329929  83.5732891  43.8812141  34.1288800  82.6986780  43.8413056
  34.8193386  83.3762921  43.7715915  33.9367499  82.3957794  42.9400068
  34.5666928  81.5381026  44.7455903  35.1903543  81.8356007  45.4260895
  35.0128730  80.8431239  44.2371656  33.2664072  81.0281297  45.3656911
  32.9190498  80.2580011  44.8882420  33.4963108  80.5524836  46.7843052
  33.0053816  81.1999421  47.7091484  34.2402070  79.4262514  46.9695582
  34.5625563  78.9660125  46.3180913  34.5666347  78.8851614  48.2768071
  34.5090298  79.5964082  48.9337901  33.5838134  77.7717561  48.7109866
  32.7106288  77.9454434  48.3259016  33.8856019  76.9204917  48.3568079
  33.4543980  77.6699428  50.2365015  34.3877444  77.3120204  50.9527948
  32.2350753  77.9823592  50.7491507  32.0990596  77.9326160  51.5967275
  31.5997660  78.2301340  50.2261692  35.9668991  78.2928966  48.1850841
  36.5284438  78.2071900  47.0928722  36.5748414  77.8995830  49.3397891
  36.2121820  77.9814802  50.1146445  37.8923474  77.3049498  49.3737500
  37.9337002  76.7528646  48.5780535  39.0420318  78.3078639  49.3637985
  39.8854425  77.8543038  49.2107806  38.9277502  78.9463639  48.6427948
  39.0562821  78.9717844  50.6161286  39.6850246  79.5290528  50.6313852
  38.0640616  76.5672505  50.6755688  37.1009544  76.3480418  51.4098446
  39.3207326  76.1370366  50.9833023  40.0063556  76.2674366  50.4803650
  39.6086077  75.4127166  52.2025884  39.1476012  75.8988432  52.9042150
  39.0954734  73.9645209  52.1957061  39.4475737  73.4918325  51.4246905
  39.4132074  73.4971867  52.9839959  37.6748714  73.9527141  52.1643443
  37.3865396  74.7393723  52.2259450  41.1009985  75.3564964  52.4385588
  41.8722742  76.0123260  51.7370986  41.5302071  74.5761440  53.4722668
  40.9896792  74.1254752  53.9663035  42.9171018  74.4141698  53.8557251
  43.4402258  74.5683870  53.0537380  43.3789286  75.4100821  54.9324000
  44.3117264  75.2497717  55.1432715  43.2739633  76.3158379  54.6019311
  42.8423723  75.2940668  55.7326036  43.1061248  73.0293016  54.4316969
  42.1346335  72.2988612  54.6286117  44.3782229  72.6204882  54.6857832
  45.0750965  73.1067144  54.5507196  44.6608059  71.3073069  55.2134485
  43.8432356  70.9885198  55.6264625  45.0854437  70.3098771  54.1147244
  44.4770334  70.3939145  53.3633233  45.9678811  70.5535645  53.7940645
  45.1115619  68.8473060  54.5683594  45.7209912  68.7670010  55.3180193
  44.2296768  68.6086713  54.8932814  45.5243780  67.8396121  53.4941281
  44.8135266  67.7596994  52.8396197  46.3054577  68.1722755  53.0257527
  45.8334228  66.4588858  54.0768519  45.0588163  66.1195159  54.5518697
  46.0241528  65.8329403  53.3601495  46.9917272  66.5418608  54.9963404
  47.2098649  65.7252633  55.2740190  47.6839396  66.9046819  54.5698948
  46.7782709  67.0464223  55.6979950  45.7963024  71.3978731  56.2099511
  46.6079327  72.3199176  56.1716878  45.8748910  70.4243946  57.1482759
  45.3081936  69.7800346  57.2118002  46.9257396  70.3780388  58.1359977
  47.2393201  71.2940004  58.1877922  46.5168426  69.8561272  59.5261303
  46.2745281  68.9220639  59.4307184  47.3015811  69.8889884  60.0954515
  45.3785670  70.5564744  60.2647597  45.6060285  71.4887210  60.4078905
  44.5766790  70.5403580  59.7195737  45.1004325  69.8799592  61.6119396
  45.7015037  70.2437770  62.2800945  44.1975347  70.0938843  61.8953275
  45.2640886  68.3563310  61.5654772  44.4461598  67.9463220  61.2434352
  45.9664011  68.1187836  60.9400403  45.5908780  67.8398371  62.9101548
  45.7130033  66.9590067  62.8681746  46.3356675  68.2281714  63.2049600
  44.9213458  68.0204326  63.4688765  47.8904177  69.3088777  57.7233518
  47.6276754  68.5232129  56.8141355  49.0620614  69.2757577  58.3948927
  49.3159925  69.8830200  58.9475421  49.9949710  68.1954407  58.2309298
  49.4575954  67.4557864  57.9057483  51.1251697  68.4279015  57.2162171
  50.7671336  68.4290509  56.3147750  51.5287018  69.2974726  57.3624977
  52.1844433  67.3279474  57.3580705  52.6167425  67.4388820  58.2193114
  51.7260751  66.4735100  57.3792712  53.2755748  67.2508642  56.2892996
  52.9068982  66.8619076  55.4809919  53.5695553  68.1478244  56.0649007
  54.4820518  66.4200109  56.7495441  55.0576649  66.2324320  55.9916630
  55.0070404  66.9310054  57.3854124  54.0444802  65.1459308  57.3720488
  54.7563239  64.6433948  57.5522297  53.6063597  65.3196088  58.1271828
  53.5082463  64.7102111  56.8117003  50.6800885  67.9641516  59.5420638
  51.3319248  68.8541796  60.0842718  50.5506963  66.7312679  60.0800151
  50.0720511  66.1097067  59.7287611  51.2093254  66.3398824  61.3046996
  51.4011851  67.1585787  61.7883650  50.3559418  65.4484318  62.2369996
  49.9749596  64.7297956  61.7089650  50.9433936  65.0394126  62.8911714
  49.2144034  66.1577518  62.9860618  49.0656481  65.7286404  63.8434586
  49.4614227  67.0772715  63.1684930  47.9322876  66.1187170  62.1572264
  47.9167284  66.7445059  61.0635655  46.9535058  65.4640375  62.6087648
  52.4366683  65.5423367  60.9301889  52.6362614  65.2178675  59.7587465
  53.3200273  65.2423857  61.9206894  53.2276507  65.5072148  62.7341211
  54.5075261  64.4431724  61.6950332  54.2729165  63.9962402  60.8667537
  55.8211149  65.2135302  61.4547951  55.7857411  66.0602717  61.9276234
  56.5601923  64.7096270  61.8306223  56.0920978  65.4760553  59.9724005
  55.2906706  65.7885688  59.5237140  56.7667504  66.1637584  59.8599268
  56.5638199  64.1447993  59.3848556  57.0910778  63.3042847  60.1660645
  56.4078595  63.9441806  58.1502093  54.7726449  63.4581725  62.8039738
  54.1390446  63.4795093  63.8607663  55.7345348  62.5371254  62.5262777
  56.1797460  62.5459358  61.7908599  56.1224277  61.4563141  63.4034756
  55.7483792  61.6740809  64.2716624  55.5861389  60.0788831  62.9454644
  55.7085806  59.4456368  63.6704445  54.6308233  60.1567189  62.7944585
  56.2354185  59.4961955  61.6732038  57.1946038  59.4568968  61.8108709
  55.9265148  58.5838634  61.5630060  55.9642912  60.2589982  60.3704636
  55.1544452  59.9113411  59.9645412  55.7996214  61.1915919  60.5794872
  57.1078082  60.1709291  59.3553218  57.9604760  60.2637488  59.8086275
  57.1068578  59.2993280  58.9302800  56.9599249  61.2316463  58.3342887
  57.3922802  60.9930791  57.5934779  56.0974837  61.3478264  58.1492525
  57.3014950  61.9927890  58.6443557  57.6286156  61.3352386  63.4292379
  58.3082542  61.8344217  62.5330612  58.1863990  60.6531283  64.4696557
  57.7360273  60.3147172  65.1192496  59.6113836  60.4436922  64.5600124
  59.9652380  60.1874644  63.6940509  60.0532481  61.2695302  64.8141727
  59.9025418  59.3690571  65.5747539  59.1039679  59.0916064  66.4665564
  61.0954715  58.7359506  65.4705680  61.6716832  58.9000908  64.8535922
  61.5009117  57.7151643  66.4057234  60.7140548  57.4673382  66.9164576
  62.0302765  56.4147312  65.7577446  62.7205350  56.6457740  65.1165953
  62.4506495  55.8748986  66.4455245  60.9639860  55.5640833  65.0470641
  60.5449195  56.1044349  64.3594381  61.4051212  54.8257215  64.5977618
  59.8699805  54.9985116  65.9616157  59.7179615  55.6196689  66.6907089
  59.0408251  54.9393680  65.4615865  60.1990376  53.6197915  66.5431217
  60.2874294  52.9720320  65.8265943  61.0522674  53.6513519  67.0032813
  59.1382139  53.1917445  67.4789790  59.3393070  52.3904930  67.8105926
  59.0736697  53.7792901  68.1441393  58.3618613  53.1469609  67.0475256
  62.6152960  58.2954746  67.2232427  62.8718192  59.4954615  67.1526643
  63.2719006  57.4857069  68.0891986  63.0835744  56.6524140  68.1897039
  64.3561977  57.9432802  68.9327064  64.7460088  58.7224068  68.5066325
  63.8912959  58.3406850  70.3430037  63.2747593  57.6762424  70.6892518
  64.6492808  58.3668121  70.9477071  63.2159080  59.7048320  70.2943164
  62.2000431  59.8927622  69.6236558  63.8072952  60.6939125  71.0220924
  63.4718976  61.4857145  71.0240998  64.5163198  60.5268891  71.4787392
  65.3249711  56.8017012  69.0995014  65.0747287  55.7147541  68.5735158
  66.4760576  57.0091943  69.8164704  66.7524732  57.7571363  70.1393685
  67.3099606  55.8441975  70.0505604  67.4515480  55.3666410  69.2182781
  68.6929197  56.2331742  70.5978832  69.2584093  55.4460996  70.6148856
  69.3297985  57.2773240  69.6956273  70.2021146  57.5190443  70.0454171
  69.4297517  56.9151073  68.8019258  68.7649098  58.0653576  69.6638020
  68.5656556  56.7692476  72.0205828  68.1223170  57.6311665  71.9942815
  67.9971989  56.1733257  72.5332348  69.8932231  56.9188707  72.7340129
  69.7432004  57.2623020  73.6287873  70.3308580  56.0550602  72.7891047
  70.4571848  57.5353593  72.2421410  66.5855538  55.0045821  71.0970887
  65.7534387  55.5213990  71.8437437  66.8932469  53.7155570  71.1484821
  67.4689694  53.3329680  70.6377225  66.2494463  52.8347835  72.1108816
  65.3781832  53.2088997  72.3133557  66.0862956  51.4342142  71.5132226
  65.4195189  51.4661921  70.8090463  66.9225046  51.1666111  71.0998643
  65.6795921  50.3842445  72.5342618  66.3512071  50.3414952  73.2336872
  64.8487698  50.6532744  72.9555540  65.5073918  49.0101244  71.9242520
  64.3887446  48.5797703  71.6376150  66.6191981  48.3120379  71.7142805
  67.3824929  48.6452212  71.9275387  66.5746597  47.5274508  71.3658261
  67.0403697  52.7470284  73.4108309  68.2537353  52.5555055  73.3985109
  66.3464491  52.8886494  74.5350932  65.4996090  53.0344968  74.5657918
  66.9972449  52.8026642  75.8360884  67.9233415  52.5546844  75.6914235
  66.9698271  54.1609376  76.5761579  66.0462427  54.4130295  76.7311077
  67.6817626  54.0427627  77.9214674  67.6583263  54.8995056  78.3761996
  67.2357643  53.3755338  78.4666500  68.6042500  53.7785333  77.7777637
  67.6411569  55.2323296  75.7248921  67.6199870  56.0805845  76.1954931
  68.5627292  54.9801587  75.5548113  67.1689799  55.3184811  74.8820032
  66.2958864  51.7530025  76.6870706  65.0769313  51.8025437  76.8811017
  67.0663738  50.7861891  77.1744801  67.9114818  50.7237197  77.0268622
  66.5217473  49.7335003  78.0176546  65.5985750  49.9506354  78.2219689
  66.5353762  48.3610597  77.2994519  66.0827813  47.7116530  77.8600246
  65.8037537  48.4653471  75.9731572  65.8151887  47.6033230  75.5276488
  64.8850215  48.7354898  76.1300111  66.2425699  49.1242954  75.4129130
  67.9658388  47.8876489  77.0769935  67.9567948  47.0283769  76.6271226
  68.4391182  48.5332684  76.5290226  68.4146105  47.7990393  77.9319299
  67.3507018  49.6487827  79.2964045  68.4999861  50.0988123  79.3347287
  66.7604001  49.0822488  80.3434347  65.9588923  48.7708669  80.3354628
  67.4513264  48.9449112  81.6198645  68.3531554  49.2778459  81.4898034
  66.7493879  49.7712895  82.7254943  65.8212465  49.4952938  82.7830186
  67.4184508  49.5240071  84.0773771  66.9704000  50.0464401  84.7610315
  67.3592036  48.5817367  84.3006688  68.3514119  49.7866895  84.0303183
  66.8146529  51.2497043  82.3782552  66.3745611  51.7644047  83.0723911
  67.7417303  51.5257918  82.3099670  66.3693174  51.4026594  81.5305890
  67.5099060  47.4892032  82.0606873  66.5569201  46.7338320  81.8858953
  68.6438724  47.0909139  82.6200503  69.3336701  47.5924299  82.7272740
  68.7992150  45.7288329  83.1062702  67.9261502  45.3053627  83.1090602
  69.7228406  44.9054767  82.2006074  69.4118154  44.9662357  81.2838786
  70.6156396  45.2835511  82.2223285  69.7824094  43.4444400  82.6185254
  69.9945450  43.3910243  83.5637657  68.9071552  43.0427940  82.5014074
  70.8044993  42.6517204  81.8327132  70.7107723  42.8445964  80.8869923
  71.6984087  42.9259958  82.0909011  70.6445602  41.2179459  82.0599978
  70.0003772  40.9586808  82.5676797  71.4345790  40.2898356  81.5304597
  72.4471542  40.6497782  80.7529181  72.5915765  41.4823161  80.5923637
  72.9598317  40.0505933  80.4094953  71.1960043  39.0011875  81.7540283
  70.5285154  38.7658386  82.2424785  71.7090215  38.4032467  81.4100251
  69.3857634  45.7724280  84.5027023  70.4305927  46.3777955  84.7284520
  68.7018702  45.1403913  85.4475905  67.9596699  44.7270263  85.3125750
  69.1749914  45.1014501  86.8247081  69.7880886  45.8351696  86.9885050
  67.9931276  45.2323856  87.7869633  67.4905324  46.0298443  87.5585147
  67.3994764  44.4756184  87.6592310  68.4611378  45.3171312  89.5244369
  69.1511288  44.3748825  89.8002953  69.8753384  43.7655906  87.0468511
  69.4297709  42.7433304  86.5314350  70.9771902  43.7709827  87.7911169
  71.3245710  44.4737212  88.1447978  71.6899878  42.5285078  88.0604860
  71.5759798  41.9492380  87.2913419  73.1924215  42.7765272  88.2704680
  73.6550062  41.9249431  88.2285287  73.5221481  43.3151104  87.5348223
  73.5629670  43.4686659  89.5867620  73.3353905  44.4106872  89.5379584
  73.0461658  43.0892716  90.3146662  75.0576686  43.3101127  89.8752362
  75.2592643  42.3681863  89.9882970  75.5621978  43.6171501  89.1056562
  75.5059020  44.0384890  91.0596688  76.0029255  44.7291979  90.9375585
  75.2020951  43.7126598  92.3130653  74.4388202  42.6590481  92.5662584
  74.1371395  42.1810561  91.9181670  74.2457882  42.4531537  93.3782825
  75.6692417  44.4407669  93.3184582  76.1677583  45.1230348  93.1601744
  75.4733654  44.2309222  94.1289646  71.1213271  41.8701942  89.3111191
  70.5249295  42.5311566  90.1566649  71.2886218  40.5492016  89.4340900
  71.7900161  39.5964847  88.4296114  72.6698477  39.8439779  88.1052467
  71.2064115  39.5472911  87.6569693  71.8198952  38.2844475  89.2012407
  72.6500900  38.1729922  89.6893987  71.7325555  37.5190730  88.6121934
  70.6510330  38.4130339  90.1195477  70.6926900  37.7754005  90.8498746
  69.8105177  38.2628684  89.6589770  70.7802229  39.8478854  90.6105793
  69.9405022  40.1810723  90.9625989  71.8027224  39.9885667  91.7345306
  72.9496544  40.3774728  91.4922743  71.3906925  39.6803392  92.9571541
  70.5928021  39.4218957  93.1492058  72.2973792  39.7632010  94.0961476
  72.7076101  40.6425477  94.0812185  71.5336498  39.5701255  95.4080319
  70.9453598  38.8039615  95.3184304  72.1676531  39.3605529  96.1120739
  70.7215077  40.7570286  95.8246282  71.3432208  41.9190813  96.2706845
  72.2717096  41.9691021  96.2768802  70.5921045  43.0097776  96.7080198
  71.0192820  43.7808593  97.0050642  69.2055080  42.9422229  96.6993913
  68.7016618  43.6672132  96.9920106  68.5716291  41.7861213  96.2520799
  67.6434351  41.7377308  96.2443826  69.3307710  40.7018374  95.8159571
  68.9034142  39.9323006  95.5152274  73.3734032  38.6906944  94.0033905
  73.1449271  37.6127240  93.4508033  74.5539831  38.9826503  94.5361662
  74.7539293  39.7351388  94.9015939  75.6238756  37.9963081  94.5297577
  75.5218889  37.3885370  93.7806429  76.9934739  38.6655856  94.3692424
  77.6892555  37.9997191  94.4828190  77.0765016  39.0113846  93.4670919
  77.2133816  39.7903110  95.3564726  77.0217519  39.6215733  96.5573854
  77.6266266  40.9481854  94.8514177  77.7710007  41.6171659  95.3723162
  77.7498933  41.0280354  94.0040575  75.5414994  37.2484323  95.8592076
  74.7637232  37.6221338  96.7375108  76.3418723  36.1978962  95.9985534
  76.8993917  35.9404908  95.3957138  76.3458218  35.3752963  97.2045603
  75.4742879  34.9557967  97.2718939  77.4417160  34.3079868  97.0880509
  77.4586945  34.0068592  96.1664687  78.2913615  34.7423358  97.2602844
  77.3724654  33.0617613  97.9789243  78.0934803  32.4579702  97.7406602
  77.5381612  33.4485430  99.4322429  77.4925563  32.6533634  99.9857151
  78.3976315  33.8801920  99.5561940  76.8301816  34.0607212  99.6874993
  76.0455103  32.3509463  97.7617676  76.0039107  31.5636964  98.3259672
  75.3170967  32.9497936  97.9885505  75.9678871  32.0862136  96.8318239
  76.5278788  36.1895041  98.4878517  75.8623143  35.9306209  99.4938503
  77.4247456  37.1685864  98.4563285  77.8984785  37.3658551  97.7659661
  77.6789887  38.0075540  99.6281788  77.9418215  37.4259490 100.3582100
  78.8049033  38.9913313  99.3324113  78.9666269  39.5431879 100.1137919
  79.6124633  38.5022312  99.1097971  78.5530346  39.5562466  98.5850814
  76.4258716  38.7624521 100.0598724  76.1010464  38.8234972 101.2463693
  75.7243174  39.3435292  99.0926340  75.9373466  39.3146107  98.2593488
  74.5084690  40.0938273  99.3794832  74.6758975  40.7150237 100.1060785
  74.0853801  40.8887067  98.1409985  73.8104800  40.2705339  97.4458630
  73.3120422  41.4313154  98.3605007  75.1906444  41.7889378  97.6006424
  75.3776865  42.4862332  98.2485594  76.0030108  41.2684681  97.5014051
  74.8446302  42.4290974  96.2685828  74.4080311  41.7000387  95.3513937
  75.0205313  43.6601031  96.1346096  73.3982668  39.1323962  99.7978222
  72.5524735  39.4618871 100.6294233  73.4229857  37.9371611  99.2195776
  74.0157588  37.6983704  98.6445349  72.4319889  36.9106424  99.5147432
  71.5475009  37.2510897  99.3064867  72.7089947  35.6697824  98.6641391
  73.0774167  35.9525548  97.8128583  73.3898731  35.1371491  99.1045609
  71.4981020  34.7916718  98.4026802  71.1213186  34.4940974  99.2449062
  70.8117366  35.3068178  97.9508527  71.8773599  33.5853875  97.5550844
  72.4441520  33.8728825  96.8231266  72.3987328  32.9673164  98.0911846
  70.7089062  32.8924131  97.0175014  70.5182322  32.1173281  97.3378961
  69.9206683  33.3828000  96.0653041  70.1717040  34.5724956  95.5369780
  70.8464122  35.0300590  95.8099440  69.6598740  34.8856472  94.9214293
  68.8806893  32.6804933  95.6380395  68.7152165  31.9078443  95.9766815
  68.3716141  32.9983678  95.0221660  72.4878443  36.5459770 100.9970320
  71.4561988  36.4631696 101.6648310  73.6984605  36.3338966 101.5059066
  74.4266233  36.3909514 101.0515580  73.8914935  35.9786616 102.9094975
  73.3079128  35.2260914 103.0912906  75.3474803  35.5823379 103.1653017
  75.9281125  36.2641870 102.7922788  75.5049830  35.5685795 104.1222268
  75.7394970  34.2337178 102.5852087  75.1021975  33.5592744 102.8685769
  75.7001303  34.2715472 101.6163469  77.1404135  33.8307501 103.0254258
  77.7881511  34.4560055 102.6634028  77.2056989  33.8826358 103.9915623
  77.4809072  32.4199174 102.5661177  76.8095580  31.8035530 102.8971980
  77.4490910  32.3809289 101.5972474  78.8261816  31.9831248 103.0339361
  78.9865283  31.1562230 102.7456942  79.4463429  32.5349005 102.7119166
  78.8498899  31.9967996 103.9231227  73.5033507  37.1120869 103.8507181
  73.0140902  36.8716544 104.9546477  73.7238464  38.3462988 103.4120057
  74.0641968  38.5306611 102.6434863  73.3971122  39.5122135 104.2227564
  73.6861315  39.3393179 105.1326206  74.1251511  40.7396562 103.6892220
  73.9017813  41.5104249 104.2337765  75.0824165  40.5881362 103.7213254
  73.8551738  40.9032940 102.7723796  71.8932014  39.7630481 104.2404265
  71.4320904  40.7787093 104.7624476  71.1350741  38.8285992 103.6717420
  71.4474038  38.1124418 103.3118216  69.6811884  38.9457980 103.6114189
  69.3387962  38.2504095 103.0282994  69.0757778  38.7632368 105.0057570
  69.4185588  39.4454618 105.6039620  68.1135337  38.8801359 104.9637237
  69.3792046  37.4785057 105.5204562  69.0417925  37.3958934 106.2848156
  69.2844648  40.3037673 103.0440428  68.3847091  40.9711123 103.5586050
  69.9667217  40.7061007 101.9779741  70.5941941  40.2475859 101.6087039
  69.7009744  41.9841613 101.3349091  69.6524196  42.6620829 102.0274102
  70.8306327  42.3203680 100.3648003  70.6486909  43.1727587  99.9386403
  71.6689750  42.3742067 100.8502192  70.8935750  41.6283936  99.6885017
  68.3659474  41.9780318 100.5973351  67.9584406  40.9590493 100.0336838
  67.6930347  43.1228960 100.6107281  67.9679367  43.8318614 101.0128760
  66.4098986  43.2800264  99.9347297  66.1184050  42.4245366  99.5826748
  65.3483140  43.7808237 100.9159377  65.5797311  44.6787252 101.1996912
  64.4967649  43.8395248 100.4555463  65.1890453  42.9131247 102.1261736
  64.9235252  41.5632817 102.0442784  64.8273282  41.0605647 103.2622648
  64.6536567  40.1714089 103.4721437  65.0207281  42.0364036 104.1319274
  65.0064415  41.9532833 104.9878111  65.2486971  43.2052988 103.4473027
  65.4133793  44.0403159 103.8208226  66.5845395  44.2882969  98.8022134
  67.1458015  45.3642978  98.9991398  66.1011446  43.9339548  97.6167380
  65.6973098  43.1896377  97.4665396  66.2201949  44.8017576  96.4486621
  67.1574644  45.0405746  96.3805348  65.7544426  44.0553037  95.1945495
  66.3270487  43.2876540  95.0402567  64.8558914  43.7162076  95.3305515
  65.7772992  44.9032989  94.0586675  65.8158579  44.4370801  93.3609718
  65.4319785  46.1007451  96.5767767  64.3000016  46.1032311  97.0551063
  66.0419041  47.2045614  96.1502040  66.8412420  47.2224358  95.8344375
  65.3776061  48.5030855  96.1896055  64.6356255  48.4423887  96.8124231
  66.3174804  49.6274380  96.6738468  65.8410760  50.4729837  96.6585711
  66.7583642  49.3579538  98.1013294  67.3487857  50.0689268  98.3977966
  65.9805050  49.3220492  98.6787590  67.2289940  48.5103930  98.1399202
  67.5235933  49.7399206  95.7375641  68.0719645  48.9457654  95.8327510
  67.2104640  49.7599355  94.8201381  68.3774029  50.9601117  95.9926463
  69.1206841  50.9713385  95.3696495  67.8425110  51.7605544  95.8723043
  68.7183542  50.9327177  96.9001984  64.9182533  48.8431185  94.7784863
  64.4264737  49.9393870  94.5163085  65.0879830  47.8869251  93.8722601
  65.4308438  47.1183710  94.0467883  64.6997969  48.0664508  92.4826511
  64.4008466  48.9845902  92.3925747  65.8903026  47.8139700  91.5319753
  66.2143756  46.9089960  91.6632527  65.4449430  47.9625761  90.0822567
  66.1994624  47.8021705  89.4942172  64.7437747  47.3198673  89.8914311
  65.1078160  48.8600590  89.9376198  67.0135803  48.7860176  91.8435886
  67.7582746  48.6229291  91.2440483  66.6969956  49.6951628  91.7256351
  67.3046102  48.6617840  92.7607302  63.5695781  47.1230578  92.1008970
  63.6029094  45.9336872  92.4103845  62.5691374  47.6689452  91.4243347
  62.5351315  48.5005881  91.2091309  61.4246156  46.8914578  90.9814926
  61.5719496  45.9474728  91.1462586  60.1730574  47.3223287  91.7515955
  60.3514852  47.2482595  92.7017567  60.0004887  48.2585243  91.5674250
  58.9242871  46.5237640  91.4265540  58.6936449  46.6529585  90.4933590
  59.1074011  45.5784191  91.5455933  57.7455347  46.9212817  92.2952718
  57.8629545  46.8222822  93.5353511  56.7034733  47.3328995  91.7424528
  61.2362999  47.1391053  89.4913241  61.0922756  48.2825001  89.0615773
  61.2485038  46.0661889  88.7044687  61.3517483  45.2625887  88.9910141
  61.0833784  46.1741515  87.2609838  61.0846079  47.1187640  87.0414960
  62.2387661  45.4711102  86.5421006  62.2895964  44.5553484  86.8590686
  62.0367386  45.4322992  85.5946094  63.8650721  46.2532920  86.7583328
  64.6939780  45.6255050  86.1596013  59.7591384  45.5834862  86.7912351
  59.4415483  44.4304678  87.0852744  58.9909760  46.3821569  86.0584735
  59.1976532  47.1918019  85.8559876  57.7090512  45.9398816  85.5283939
  57.5074583  45.0528101  85.8642412  56.5933381  46.8896483  85.9688861
  56.6323639  47.0048754  86.9313770  56.7404447  47.7623887  85.5721548
  55.2182681  46.3875498  85.5799843  55.0322153  46.0038914  84.4057443
  54.3193211  46.3816548  86.4472365  57.7953472  45.9259980  84.0053176
  57.6452696  46.9601752  83.3585849  58.0344491  44.7462125  83.4133527
  58.0957587  43.4288422  84.0661642  57.4609079  43.3557783  84.7958100
  58.9738261  43.2474353  84.4358359  57.7577590  42.4940808  82.9276958
  56.8010851  42.4386501  82.7762440  58.0713911  41.5914744  83.0941212
  58.4706179  43.1297685  81.7767017  58.1538012  42.7907863  80.9249533
  59.4262599  42.9650060  81.8087595  58.1432817  44.6098002  81.9561234
  58.8147358  45.2002482  81.5816111  56.8838708  45.0261640  81.2052977
  56.9584557  45.5006598  80.0709623  55.7304554  44.8451224  81.8410948
  55.6649861  44.5114499  82.6313361  54.4560336  45.2068043  81.2330576
  54.4256190  44.7897502  80.3574419  53.2706541  44.6996257  82.0831883
  53.3597946  45.0393041  82.9875492  51.9567333  45.2058248  81.5050945
  51.2195348  44.8819578  82.0455744  51.9555301  46.1762616  81.5049494
  51.8572669  44.8820030  80.5959439  53.2814091  43.1798607  82.1261034
  52.5357403  42.8654327  82.6611838  53.2021091  42.8299799  81.2245848
  54.1129756  42.8731274  82.5203913  54.3398480  46.7191465  81.0901310
  54.0246409  47.2305006  80.0151726  54.5915933  47.4300165  82.1823522
  54.8064839  47.0860225  82.9405185  54.5212255  48.8839317  82.1787706
  53.8142266  49.1659873  81.5770462  54.2074373  49.3988223  83.5864675
  54.9407033  49.1674245  84.1777594  54.1553725  50.3671132  83.5640180
  52.9129910  48.8478751  84.1652282  52.1700040  49.0977638  83.5941004
  52.9492690  47.8784634  84.1760363  52.6681915  49.3642743  85.5734579
  51.8523588  48.9733772  85.9225100  53.3910555  49.0760481  86.1522864
  52.5651047  50.8201629  85.6135406  53.1447596  51.2512566  86.0808342
  51.6350330  51.5241773  84.9759660  50.7163993  50.9078768  84.2423777
  50.7209990  50.0502157  84.1778382  50.1159948  51.3661312  83.8308994
  51.6265215  52.8462645  85.0671533  52.2224867  53.2484601  85.5389054
  51.0249636  53.3019452  84.6546522  55.8474244  49.4600931  81.7002098
  55.9568415  50.6589582  81.4463707  56.8477448  48.5913498  81.5760761
  56.7749806  47.7517945  81.7497403  58.1765812  48.9958931  81.1274701
  58.7738490  48.2325975  81.1778596  58.1133088  49.4744869  79.6748509
  57.5392781  50.2551804  79.6219412  58.9983585  49.7540435  79.3929799
  57.5969282  48.4091128  78.7171547  58.2177348  47.6643064  78.7003425
  56.7504947  48.0652378  79.0439915  57.4121803  48.9439102  77.3070310
  56.8220989  49.7137238  77.3230633  58.2647108  49.2467953  76.9562014
  56.8323776  47.8665954  76.3951721  57.4594511  47.1298695  76.3304283
  56.0195043  47.5142174  76.7906195  56.5324878  48.3794872  75.0292240
  56.2378623  47.7116709  74.5193786  55.9073661  49.0115872  75.0793178
  57.2722369  48.7218228  74.6711129  58.7232942  50.0977625  82.0295242
  59.2769374  51.0903732  81.5590699  58.5656212  49.9053261  83.3339035
  58.1892900  49.2102489  83.6740765  59.0275673  50.8761886  84.3121533
  59.4382767  51.5925499  83.8033947  57.8588409  51.4054067  85.1520181
  57.4617163  50.6591027  85.6269406  58.2129060  52.0110167  85.8217550
  56.7656562  52.1230438  84.3913274  57.1514328  52.8537863  83.8832981
  56.3633916  51.5141769  83.7518758  55.6896942  52.6650406  85.3232111
  55.1512966  51.8788044  86.1312542  55.3823058  53.8736874  85.2478756
  60.0476509  50.2883441  85.2686580  60.0948202  49.0776537  85.4871292
  60.8547488  51.1723067  85.8387599  60.8335880  52.0127454  85.6602663
  61.8580160  50.8090425  86.8240208  61.8254744  49.8584653  87.0175667
  63.2925952  51.1086978  86.3382396  63.3622984  52.0479742  86.1077570
  64.2846669  50.7959869  87.4494370  65.1852147  50.9844740  87.1416591
  64.0858095  51.3442700  88.2240661  64.2158297  49.8590594  87.6906308
  63.6073803  50.2854423  85.1040508  64.5102424  50.4804824  84.8065053
  63.5336977  49.3421838  85.3167764  62.9795658  50.5069490  84.3981983
  61.5498020  51.7039868  88.0141354  61.5415156  52.9280179  87.8883688
  61.2740862  51.0942394  89.1612522  61.2624750  50.2405509  89.2663193
  60.9621396  51.8591977  90.3600096  60.9494340  52.8034171  90.1366933
  59.5859251  51.4629535  90.8968904  58.9169431  51.5855516  90.2047612
  59.5841916  50.5214534  91.1296469  59.2446068  52.2356542  92.0330270
  58.4865694  52.0052533  92.3119600  62.0249333  51.6113210  91.4189679
  62.3561418  50.4660309  91.7215908  62.5494849  52.6922259  91.9822620
  62.3169690  53.4967783  91.7892366  63.5867849  52.5908760  92.9975171
  63.7619068  51.6444722  93.1165012  64.8714501  53.3195170  92.5458242
  64.7120373  54.2762780  92.5443857  66.0055251  53.0283947  93.5158905
  66.8079773  53.4899067  93.2242275  65.7604476  53.3360838  94.4024758
  66.1736434  52.0736585  93.5405480  65.2408191  52.8934300  91.1335769
  66.0484340  53.3548619  90.8568249  65.3933071  51.9352487  91.1141341
  64.5173224  53.1179399  90.5280682  63.1424035  53.1860814  94.3269266
  62.6288145  54.3041114  94.3777612  63.3399706  52.4312653  95.4021452
  63.6811690  51.6419882  95.3813767  62.9816640  52.8999234  96.7329288
  62.1183779  53.3427214  96.7271885  62.8944116  51.7248712  97.7055291
  62.3886302  51.0103587  97.2873222  63.7880971  51.3836931  97.8641884
  62.2545737  52.0581863  99.0431981  62.5018520  52.9570626  99.3124784
  61.2881115  52.0419329  98.9596605  62.6983964  51.0624043 100.1009365
  63.5983591  51.2788862 100.3921285  62.1235709  51.1382095 100.8781316
  62.6645292  49.6904261  99.6023196  62.2340057  49.5374345  98.8742330
  63.2571144  48.6637020 100.2035163  63.9308612  48.8507490 101.3313073
  63.9850119  49.6376482 101.6748364  64.3134318  48.1850358 101.7185111
  63.1858526  47.4490298  99.6738917  62.7556491  47.3241889  98.9391389
  63.5700507  46.7859756 100.0643018  64.1003598  53.8397958  97.1658671
  65.2402591  53.4105759  97.3505341  63.7746238  55.1174177  97.3189693
  62.9817817  55.4282785  97.1991362  64.7595356  56.1172529  97.7108306
  65.6277559  55.7485031  97.4836191  64.5265240  57.4356445  96.9528318
  65.1879221  58.0834156  97.2432300  64.6697207  57.2158771  95.4524745
  64.5211293  58.0537417  94.9871259  65.5630515  56.8920429  95.2569812
  64.0168376  56.5617186  95.1568136  63.2088414  57.9235707  97.2345012
  63.1051163  58.6751518  96.8740723  64.7371688  56.4016583  99.2085286
  65.6731262  56.9906660  99.7507404  63.6666255  55.9771773  99.8706601
  63.0056300  55.5614308  99.5092729  63.5386437  56.1954020 101.2990790
  64.2969991  55.8013671 101.7580164  63.5565556  57.1468424 101.4864992
  62.2519556  55.5957807 101.8331782  61.6187689  54.7891831 101.1568004
  61.8629131  55.9892605 103.0416813  62.2880085  56.5545394 103.5304151
  60.6437635  55.4634825 103.6305868  60.2193318  56.1545821 104.1623771
  60.0220484  55.2262425 102.9253254  60.9041167  54.2492658 104.5003936
  61.8981449  53.5465910 104.3115944  60.0075562  53.9954120 105.4491858
  59.3018497  54.4683283 105.5829969  60.1585054  52.8653762 106.3596046
  60.9710513  52.4069200 106.0953240  60.2635218  53.3735872 107.8016557
  59.4118826  53.7682559 108.0476095  60.4001926  52.6101844 108.3834617
  61.3678416  54.3975899 108.0860430  61.2612098  55.1595333 107.4945661
  61.2605133  54.8786812 109.5248834  61.9597477  55.5262783 109.7026566
  60.3941274  55.2919856 109.6643139  61.3590407  54.1244928 110.1265180
  62.7342586  53.7768274 107.8255503  63.4271616  54.4313781 108.0076319
  62.8560836  53.0076309 108.4034788  62.7912463  53.4960353 106.8986073
  59.0248164  51.8446366 106.2614478  57.9155731  52.0825058 106.7407471
  59.3198697  50.7099938 105.6335862  60.0917085  50.5516934 105.2876327
  58.3661033  49.6154836 105.4653599  58.7364231  49.0721747 104.7517707
  58.2480857  48.8327080 106.7732296  57.6144835  48.1066137 106.6602993
  59.1155560  48.4698472 107.0130778  57.9388689  49.4233814 107.4776528
  56.9720627  50.0063238 104.9687102  56.7617944  50.1957788 103.7699825
  56.0232514  50.1177191 105.8962414  56.1647157  50.0034748 106.7369281
  54.6383751  50.4477373 105.5657654  54.3638707  49.7366067 104.9662317
  53.7874962  50.4770616 106.8416178  52.8861371  50.7568037 106.6174166
  53.7240269  49.5792332 107.2042260  54.3493384  51.4036842 107.9006612
  55.3762059  52.0642800 107.6381248  53.7578970  51.4719627 109.0000461
  54.4095825  51.7273393 104.7598232  53.2785737  52.0277580 104.3817959
  55.4700809  52.4833281 104.5009084  56.2676386  52.3084294 104.7719403
  55.3476684  53.7042990 103.7107994  54.8192527  53.5076378 102.9214096
  54.6201398  54.8056327 104.4966062  54.1250035  55.3542002 103.8682244
  53.9693926  54.3860637 105.0806789  55.5032050  55.7150750 105.3363630
  55.8697703  55.2193104 106.0853946  56.2541823  56.0259626 104.8071381
  54.6989103  56.9050043 105.8450205  54.2384599  57.3252668 105.1014662
  54.0174415  56.5938315 106.4608335  55.5780396  57.9310408 106.5395591
  55.9926976  57.5287291 107.3189159  56.2950478  58.2004806 105.9446822
  54.7967537  59.1298031 106.9531135  55.3363711  59.7115419 107.3563443
  54.4341269  59.5101972 106.2347598  54.1526753  58.8848357 107.5156275
  56.7277227  54.1790541 103.2858797  57.6693270  54.1721264 104.0805338
  56.8471785  54.5922859 102.0292482  56.2001057  54.6222800 101.4632993
  58.1305644  55.0363823 101.5147726  58.5517664  55.5458763 102.2245265
  58.9700517  53.8162737 101.1274275  58.5309120  53.3330187 100.4100086
  59.8304443  54.1073551 100.7886337  59.1620941  52.9523037 102.2342194
  58.8959549  53.3313243 102.9357366  58.0191398  55.9626101 100.3129346
  56.9268633  56.2585682  99.8291249  59.1725031  56.4187987  99.8413299
  59.9365587  56.2275943 100.1853051  59.2448278  57.2949343  98.6844471
  58.3591240  57.5835622  98.4143662  60.0618488  58.5452824  99.0136587
  60.1060923  59.1216540  98.2350194  59.6204808  59.0493902  99.7153556
  61.3714702  58.1953611  99.4262843  61.8691475  58.1269971  98.7525628
  59.9295040  56.5044287  97.5784145  60.7550998  55.6324880  97.8500157
  59.5812919  56.7931165  96.3324812  58.9996691  57.3868368  96.1103842
  60.1955396  56.0848868  95.2220351  61.0699106  55.7923296  95.5235824
  59.3543834  54.8646278  94.8208642  58.5264676  55.1752353  94.4215105
  59.8316997  54.3687377  94.1371449  59.0196378  53.9186088  95.9655574
  59.7860624  53.8430909  96.5554595  58.2932388  54.2913070  96.4892687
  58.6257127  52.5321729  95.4664547  58.1963780  52.0399990  96.1829850
  57.9755084  52.6181125  94.7515318  59.7840494  51.7803832  94.9842336
  60.5391941  52.1901973  94.9434656  59.7507102  50.5068584  94.6039283
  58.6093179  49.8288992  94.6433334  57.8894563  50.2135151  94.9155666
  58.5896132  49.0055014  94.3967957  60.8593199  49.9057621  94.1916410
  61.6011522  50.3394940  94.1702306  60.8361250  49.0812791  93.9459036
  60.3733489  56.9844401  94.0133971  59.7618821  58.0474084  93.9113195
  61.2365519  56.5425155  93.1077652  61.6835600  55.8138097  93.1995019
  61.5134098  57.2486522  91.8664104  60.9782007  58.0520680  91.7712091
  62.9786211  57.6866299  91.8105065  63.5294147  56.9797324  92.1820306
  63.2379413  57.7892736  90.8814219  63.2842820  58.9817270  92.5480492
  62.8758196  58.9609695  93.4275426  64.2417163  59.0634782  92.6822773
  62.7729112  60.1825858  91.7749418  63.0781033  60.1302040  90.8557003
  61.8038291  60.1658336  91.7542761  63.2458256  61.4907377  92.3936828
  62.9245105  61.5527438  93.3068891  64.2144976  61.4992464  92.4326207
  62.7673652  62.6720248  91.6151113  63.0595270  63.4197112  92.0000899
  63.0795983  62.6261835  90.7829309  61.8778877  62.6757110  91.5969706
  61.2344801  56.2202999  90.7824349  61.8114542  55.1336440  90.7894275
  60.3374058  56.5530276  89.8627834  59.9243375  57.3072442  89.8387022
  59.9810178  55.6314473  88.7969451  60.5146218  54.8295897  88.9135004
  58.4785609  55.2589696  88.8766924  57.9539082  56.0631931  88.7411562
  58.1162776  54.2473786  87.8005421  57.1738448  54.0277763  87.8672069
  58.2990229  54.6248066  86.9263377  58.6443421  53.4427110  87.9216158
  58.1984812  54.6899791  90.1637586  57.4902529  54.2400303  90.1235509
  60.2884659  56.2246941  87.4297129  60.0851402  57.4162882  87.1978073
  60.7946807  55.3820230  86.5330011  60.9497906  54.5515892  86.6907213
  61.1336479  55.8102021  85.1818691  60.7188391  56.6724013  85.0229632
  62.6522454  55.9430831  85.0063204  63.0366557  55.0535880  84.9631450
  62.8277810  56.3691246  84.1528464  63.3663933  56.7210790  86.0857370
  63.6105843  56.1540260  87.3340024  63.3159602  55.2891101  87.5078271
  64.2850786  56.8563933  88.3228602  64.4411961  56.4640855  89.1515495
  64.7233214  58.1449875  88.0678482  65.3903087  58.8440795  89.0470148
  65.6330399  59.5889359  88.7439777  64.4920981  58.7322933  86.8361255
  64.7871328  59.5985769  86.6671958  63.8154690  58.0183901  85.8523042
  63.6608894  58.4141295  85.0249786  60.6392536  54.7624569  84.1990169
  60.6684525  53.5711589  84.4916164  60.1914683  55.2036940  83.0305619
  60.1454348  56.0329839  82.8084443  59.7325890  54.2711751  82.0139669
  59.6332121  53.3998435  82.4295898  58.3732297  54.6882804  81.4267834
  58.0792047  54.0037816  80.8057161  57.3408978  54.8318286  82.5259844
  56.4905262  55.0950037  82.1393153  57.2375861  53.9840841  82.9864199
  57.6320787  55.5089391  83.1571176  58.5129304  55.9403134  80.7498284
  57.7712865  56.1690226  80.4269980  60.7527140  54.2394122  80.8819019
  61.3068235  55.2709166  80.5037084  61.0099291  53.0478090  80.3579094
  60.6486312  52.3147343  80.6271514  61.9505353  52.8893873  79.2558496
  62.1608635  53.7630271  78.8911530  63.2532794  52.2501377  79.7472333
  63.0496591  51.3969519  80.1614237  63.8222776  52.0655804  78.9833428
  64.0111743  53.1016472  80.7272619  63.7695299  52.9987402  82.0917101
  63.1428974  52.3859532  82.4014923  64.4548644  53.8027439  83.0032536
  64.2830885  53.7240160  83.9142267  65.3938856  54.7216952  82.5504689
  65.8517209  55.2585459  83.1559415  65.6459259  54.8348796  81.1865672
  66.2729876  55.4481382  80.8780473  64.9544621  54.0248051  80.2825456
  65.1262828  54.1031468  79.3724938  61.3176117  52.0273656  78.1730754
  60.2007512  51.5346912  78.3345489  62.0298326  51.8458323  77.0670094
  62.8113597  52.1792444  76.9364878  61.5214121  51.0442812  75.9644544
  60.6375294  51.3594073  75.7195037  62.4484081  51.2025447  74.7613687
  63.3443509  50.9211356  75.0046719  62.1525163  50.6182791  74.0456504
  62.4860793  52.6336651  74.2621401  61.4074967  53.1550439  73.9025560
  63.5765527  53.2447182  74.2373238  61.3617518  49.5840363  76.3694896
  60.4297327  48.9041755  75.9311874  62.2689424  49.1133976  77.2199802
  62.9284650  49.5796199  77.5146814  62.2299514  47.7517777  77.7364694
  61.3054202  47.4660211  77.8027511  62.9623053  46.7698128  76.8061814
  63.8804711  47.0674834  76.7083001  62.9898862  45.9017416  77.2376182
  62.3610869  46.5977345  75.4152125  61.4211256  46.3720470  75.4944019
  62.4121336  47.4387429  74.9338728  63.2215209  45.2988281  74.4663070
  64.2654129  46.2546669  73.4475335  64.7894399  45.6683774  72.8799435
  63.7277465  46.8436057  72.8945861  64.8598480  46.7850718  74.0002428
  62.9236403  47.7508037  79.0948953  63.8465198  48.5283206  79.3271082
  62.4679832  46.8905215  79.9959503  61.8039323  46.3602571  79.8645682
  63.0793076  46.7795659  81.3133619  63.9232163  47.2579696  81.3078841
  62.2009219  47.4160255  82.4065694  61.3178890  47.0156360  82.3771892
  62.8112881  47.1651590  83.7750006  62.2530368  47.5684263  84.4574756
  62.8736977  46.2100157  83.9316222  63.6977967  47.5569462  83.8103743
  62.0828209  48.9112805  82.1621423  61.5295832  49.3093770  82.8519743
  62.9651108  49.3139020  82.1838111  61.6787118  49.0667279  81.2939781
  63.2964662  45.3022419  81.6180141  62.4029146  44.4790995  81.4206032
  64.4934679  44.9739325  82.0885943  65.1238577  45.5402915  82.2345745
  64.8399704  43.5965663  82.4006382  64.0682279  43.0395938  82.2144548
  66.0162341  43.1574465  81.5308823  66.7846993  43.7137044  81.7342921
  66.2570073  42.2461877  81.7601783  65.7326405  43.2326790  80.0599017
  64.9238197  42.2845822  79.4478017  64.5631235  41.5931323  79.9548021
  64.6466964  42.3553226  78.0864203  64.1043559  41.7136420  77.6874993
  65.1827571  43.3893135  77.3204858  64.9987049  43.4404478  76.4109122
  65.9927760  44.3430356  77.9229463  66.3529793  45.0352961  77.4173951
  66.2637104  44.2603612  79.2861383  66.8066333  44.9004588  79.6854526
  65.1880724  43.4282444  83.8717869  66.1580406  44.0095483  84.3656984
  64.3903236  42.6205128  84.5629544  63.7168939  42.2027209  84.2295352
  64.6134331  42.3834405  85.9755435  64.7105602  43.2359830  86.4280771
  63.8309820  41.9507540  86.3510400  65.8338555  41.5310920  86.2600310
  66.4073719  40.9154148  85.3586041  66.2130473  41.4859761  87.5327593
  65.7982901  41.8977295  88.1640536  67.3737745  40.7315843  87.9871231
  68.1388223  41.1616272  87.5733756  67.4535973  40.7883915  89.5081735
  68.2260130  40.2860158  89.8102970  67.5362666  41.7115457  89.7934680
  66.6485529  40.4031595  89.8894671  67.4329577  39.2806438  87.5235998
  68.5192261  38.7314152  87.3403705  66.2742480  38.6577137  87.3296748
  65.5026877  39.0238713  87.4338737  66.2356938  37.2583973  86.9109994
  67.0489077  36.8657046  87.2636319  64.9877902  36.5795176  87.4805370
  64.9985021  35.6346433  87.2619148  64.9895216  36.6463623  88.4484383
  63.8172274  37.1772829  86.9620764  63.1412530  36.7938092  87.2813875
  66.2771451  37.0355036  85.4012560  66.2530587  35.8937261  84.9400555
  66.3426392  38.1168538  84.6303076  66.3667311  38.9232982  84.9292222
  66.3795184  38.0049631  83.1749189  65.5731196  37.5309390  82.9188248
  66.4067520  39.3960225  82.5096175  67.2328728  39.8407044  82.7557077
  66.3497734  39.2677668  80.9900656  66.3676597  40.1508480  80.5898447
  67.1129223  38.7567764  80.6790293  65.5314173  38.8140859  80.7343981
  65.2815931  40.1588095  82.9590165  65.4249219  40.4379059  83.7376577
  67.5957058  37.2206261  82.6946912  68.7249683  37.4918132  83.1029470
  67.3614635  36.2500288  81.8227001  66.5810297  36.0419372  81.5281258
  68.4480018  35.4441676  81.2876562  69.1506670  35.4057234  81.9558991
  67.9560260  34.0259283  80.9938158  67.0409924  34.0690398  80.6765071
  68.4877497  33.6500506  80.2752701  68.0192921  33.0909441  82.1986672
  67.5640529  32.2608577  81.9878782  68.9447079  32.8676596  82.3856688
  67.3904337  33.7133299  83.4301355  67.7111449  34.6228007  83.5342178
  66.4285121  33.7627065  83.3141928  67.7114266  32.9129439  84.6832176
  67.3389727  32.0206841  84.6029777  68.6724686  32.8132616  84.7683454
  67.1686564  33.5727704  85.9023151  67.7522641  33.4914595  86.5692330
  67.0278725  34.4353092  85.7356489  66.4009514  33.1864997  86.1326561
  69.0330474  36.0699991  80.0269506  68.3683448  36.8513796  79.3383491
  70.2881497  35.7294406  79.7471507  70.7516215  35.1912108  80.2327058
  71.0059587  36.2398255  78.5802906  71.1082759  37.1939042  78.7245510
  72.3660630  35.5493033  78.4525862  72.2198128  34.5961744  78.3466796
  72.7959213  35.8620887  77.6412903  73.3156969  35.7665094  79.6186750
  72.8344261  35.6442086  80.4515435  74.0144676  35.0938052  79.5935637
  73.9475710  37.1460067  79.6029212  73.2520487  38.1554724  79.6539975
  75.2754443  37.1918259  79.5271450  75.7291968  36.4621957  79.4933442
  75.6792548  37.9506086  79.5119143  70.2464500  36.0321838  77.2754579
  70.1911921  36.9236284  76.4351132  69.6745266  34.8476187  77.0997479
  69.6893497  34.2081460  77.6743103  68.9573195  34.5519997  75.8688582
  69.5868752  34.6799987  75.1418769  68.4544961  33.0851358  75.8503921
  69.2122537  32.4929611  75.9755658  67.4710633  32.8506078  76.9775791
  67.1649641  31.9305358  76.9540890  67.9048051  33.0249129  77.8273266
  66.7124696  33.4460565  76.8744414  67.8008905  32.7753952  74.5041186
  67.4432688  31.8743105  74.5290838  67.0495831  33.3757808  74.3744755
  68.7320164  32.8975864  73.3226137  68.2500613  32.6877643  72.5080802
  69.0731343  33.8037299  73.2712660  69.4722261  32.2802179  73.4283106
  67.7807608  35.4971854  75.6591452  67.4561173  35.8590203  74.5252210
  67.1493023  35.9094582  76.7505573  67.3626514  35.6871543  77.5533008
  66.0085564  36.8019550  76.6418359  65.4701582  36.5183524  75.8859505
  65.1607314  36.7021970  77.9046717  65.7102457  36.8961691  78.6799683
  64.4604634  37.3728462  77.8779800  64.5380080  35.3230765  78.0558142
  63.8825254  34.8677914  77.0925489  64.7063122  34.6888727  79.1157237
  66.4149892  38.2345824  76.3271869  65.6835771  38.9550815  75.6499554
  67.5837535  38.6509011  76.8008754  68.1089251  38.1838369  77.2958964
  68.0540227  39.9927946  76.4841585  67.3694811  40.6387949  76.7188059
  69.3307899  40.3526390  77.2773341  69.9612454  39.6186667  77.2135802
  69.9750675  41.6020818  76.6919726  70.7744140  41.8198980  77.1959312
  70.2113527  41.4402957  75.7649518  69.3506255  42.3423876  76.7418079
  68.9809661  40.5794384  78.7407617  69.7844633  40.8051619  79.2348084
  68.3430748  41.3068210  78.8118834  68.5917190  39.7716693  79.1092136
  68.3818551  40.0101470  74.9884774  68.0871309  40.9739158  74.2801897
  68.9876615  38.9325105  74.5061589  69.1958823  38.2395761  74.9707522
  69.3489149  38.8630812  73.0972936  69.8625757  39.6616590  72.8991142
  70.2118391  37.6269881  72.8117336  70.9860443  37.6318655  73.3958856
  69.7052673  36.8254742  73.0181059  70.6699581  37.5750108  71.3729103
  69.8357502  37.0757627  70.3727736  69.0141296  36.7072730  70.6045082
  70.2147955  37.1206656  69.0315956  69.6483130  36.7860998  68.3740211
  71.4407668  37.6673562  68.6844879  71.7971595  37.7504125  67.3549793
  72.2996265  38.4138496  67.2396233  72.2883798  38.1573411  69.6605518
  73.1128415  38.5177920  69.4253091  71.9023913  38.1084759  70.9960649
  72.4768960  38.4374650  71.6498259  68.1186444  38.8520747  72.1951952
  68.0568313  39.5942137  71.2187701  67.1442238  38.0094830  72.5221582
  67.1703739  37.4821410  73.2007034  65.9207696  37.9169274  71.7266444
  66.1879406  37.6669061  70.8284267  64.9819145  36.8657814  72.3182906
  64.8726875  37.0468884  73.2645969  64.1089337  36.9656025  71.9076567
  65.4310632  35.4299013  72.1514525  65.4080488  35.1821359  71.2140259
  66.3492452  35.3329344  72.4482018  64.5261609  34.5081336  72.9541543
  64.6285509  34.7022692  73.8988848  63.6012051  34.6904227  72.7260654
  64.8095911  33.0950648  72.7202786  65.2591063  32.8845411  72.0186099
  64.4152059  32.1143997  73.5266409  63.7231994  32.3940703  74.6240211
  63.5290801  33.2099699  74.8137776  63.4685399  31.7590462  75.1451765
  64.7064811  30.8547681  73.2351414  65.1514934  30.6702811  72.5228988
  64.4498692  30.2220903  73.7584608  65.1784136  39.2462190  71.6622610
  64.7712396  39.6969436  70.5913237  65.0036873  39.8661904  72.8217830
  65.2992568  39.5662517  73.5717000  64.2846398  41.1268724  72.9272185
  63.4837674  40.9899058  72.3975303  63.9757419  41.4259590  74.3972512
  64.8025759  41.4702680  74.9020285  63.5508635  42.2944067  74.4715610
  63.1332245  40.4363054  74.9513778  63.6010015  39.8131862  75.2643749
  64.9787870  42.3404072  72.3319757  64.3445668  43.1618807  71.6782365
  66.2815046  42.4520254  72.5531029  66.7560192  41.8706799  72.9733734
  67.0150596  43.6159955  72.0762678  66.3008975  44.2228966  71.8238127
  67.9355545  44.1575711  73.1952361  68.5659406  43.4660860  73.4499549
  68.7313665  45.3523446  72.6968091  69.3032252  45.6803251  73.4088880
  69.2780406  45.0846344  71.9414763  68.1217425  46.0553236  72.4220198
  67.1072748  44.5237720  74.4104133  67.6888686  44.8620837  75.1089832
  66.4621141  45.2061490  74.1688761  66.6406836  43.7374224  74.7329950
  67.8694631  43.4545059  70.8327560  67.8151436  44.2821984  69.9200526
  68.6607227  42.3895424  70.7928316  68.6807155  41.7739680  71.3923569
  69.5785477  42.1955695  69.6856596  69.8197811  43.1034371  69.4434347
  70.7864320  41.3621609  70.1360811  70.5253984  40.4330713  70.2281842
  71.8896010  41.4516884  69.0920691  72.6508409  40.9239246  69.3797515
  71.5622052  41.1111192  68.2445117  72.1592391  42.3770561  68.9849624
  71.2787604  41.8642034  71.4883252  72.0422028  41.3361099  71.7714206
  71.5403467  42.7949077  71.4120679  70.5673874  41.7804630  72.1434099
  69.0193846  41.5954476  68.4062616  69.3725389  42.0406915  67.3188349
  68.1622417  40.5898380  68.5213330  67.8979998  40.2534258  69.2669100
  67.5953975  39.9724712  67.3262536  68.3111179  39.4680390  66.9084768
  66.4553792  39.0277582  67.7009518  65.8986428  39.4493743  68.3736787
  65.8964490  38.8776161  66.9227794  67.0390194  37.4489139  68.3229397
  68.0888983  37.6030492  68.8835310  67.1130912  40.9953582  66.3023728
  67.4894092  40.9273443  65.1310723  66.2857779  41.9665999  66.7302409
  65.6935180  42.1333813  68.0695894  66.2690094  42.6442288  68.6606085
  65.5277463  41.2816095  68.5020689  64.4198151  42.8623985  67.7566137
  64.0625753  43.3168117  68.5354136  63.7285777  42.2619595  67.4364953
  64.8572394  43.8299826  66.6941156  65.3236326  44.5916707  67.0732325
  64.1018602  44.1799888  66.1959530  65.7772187  42.9887308  65.8082631
  65.3211685  42.6111770  65.0404628  66.9069951  43.8249868  65.2105891
  66.8689296  44.2043710  64.0407757  67.9102588  44.1095970  66.0322021
  67.9479178  43.8488167  66.8512408  69.0527003  44.9029491  65.6015307
  68.7078055  45.6993722  65.1685180  69.9130473  45.3175368  66.8145484
  70.1624311  44.5280422  67.3202361  71.1951568  45.9973068  66.3479193
  71.7252951  46.2527195  67.1195240  71.7036110  45.3842566  65.7948327
  70.9728480  46.7887998  65.8330691  69.0994843  46.2492282  67.7136010
  68.8705121  47.0478364  67.2118264  68.2655322  45.8113392  67.9461479
  69.8103011  46.6604758  68.9921896  69.2360317  47.2481203  69.5074358
  70.0177864  45.8708444  69.5161392  70.6318440  47.1262777  68.7708625
  69.9097269  44.1465566  64.5936747  70.3759266  44.7291202  63.6169278
  70.1175353  42.8535527  64.8175824  69.8116175  42.4142862  65.4905915
  70.9195804  42.0789782  63.8764156  71.7663221  42.5337339  63.7512602
  71.2130105  40.6784837  64.4179642  71.6448553  40.7624264  65.2831074
  70.3715589  40.2176457  64.5641914  72.0975944  39.8149321  63.5049477
  71.6542795  39.6970951  62.6500323  73.4367974  40.5056792  63.2572246
  73.9849867  39.9518758  62.6803699  73.2849356  41.3633697  62.8307378
  73.8924305  40.6415210  64.1028076  72.3113854  38.4514325  64.1429431
  72.8695413  37.9074349  63.5653727  72.7460663  38.5604925  65.0032822
  71.4547284  38.0139011  64.2682037  70.1868184  41.9789444  62.5404998
  70.8135523  42.0037577  61.4838509  68.8607051  41.8652325  62.5768745
  68.3854965  41.8298095  63.2928263  68.1179610  41.7927956  61.3235649
  68.4305974  41.0200560  60.8270268  66.6145924  41.6113767  61.5659428
  66.3312039  42.2059547  62.2783443  66.1280793  41.8722839  60.7687913
  66.2496815  40.1848167  61.9299590  66.9553959  39.2598147  61.4818033
  65.2499346  39.9832143  62.6495191  68.3630373  43.0679699  60.5252779
  68.5044018  43.0277932  59.3054394  68.4327056  44.1992054  61.2197168
  68.3471638  44.2479165  62.0735499  68.6670622  45.4764353  60.5574036
  68.0464868  45.5404133  59.8144661  68.4158588  46.6257383  61.5300960
  68.9222130  46.4720675  62.3430171  68.7455272  47.4507733  61.1413890
  66.9489138  46.7908546  61.8801573  66.4496318  47.0030576  61.0762342
  66.6032013  45.9490178  62.2148432  66.7159301  47.8695371  62.9102761
  67.1306933  47.6749965  64.0730454  66.1240112  48.9105931  62.5538449
  70.0780175  45.5704655  59.9909115  70.2877483  46.1268162  58.9147085
  71.0481765  45.0376855  60.7243704  70.9311898  44.6653269  61.4911312
  72.4279091  45.0525992  60.2543081  72.7112024  45.9707203  60.1207057
  73.3769796  44.4068414  61.2811631  73.0329283  43.5328030  61.5219486
  74.7687185  44.2322521  60.6789743  75.3560620  43.8249013  61.3349361
  74.7139147  43.6620053  59.8966226  75.1221096  45.0989309  60.4227098
  73.4512754  45.2704866  62.5263824  74.0499261  44.8596794  63.1694912
  73.7845831  46.1507324  62.2908927  72.5663309  45.3537736  62.9158570
  72.4830249  44.2490907  58.9552818  73.1107888  44.6587117  57.9763246
  71.8132388  43.1034692  58.9591277  71.3688799  42.8062228  59.6332840
  71.7824960  42.2416365  57.7863573  72.6974688  42.0642399  57.5176954
  71.1020284  40.8906781  58.1312071  70.2577933  41.0584101  58.5790666
  70.7998555  40.0993810  56.8611924  70.3749062  39.2592179  57.0962352
  70.2056108  40.6137530  56.2927624  71.6261164  39.9214108  56.3860362
  72.0261293  40.0925894  59.0650255  72.8507596  39.8965330  58.5932207
  72.2592229  40.6509559  59.8228700  71.4434127  38.7958193  59.5797941
  72.0872809  38.3577913  60.1582777  70.6335880  38.9805962  60.0808832
  71.2342520  38.2150052  58.8309124  71.0931208  42.9263328  56.6003823
  71.3546629  42.5884628  55.4485292  70.2293948  43.8987766  56.8785685
  70.0199715  44.1537043  57.6729203  69.5579114  44.6204068  55.7994662
  69.2895450  43.9753802  55.1264029  68.3027880  45.3371390  56.3118588
  68.5523169  45.9160641  57.0493017  67.9590365  45.9086396  55.6075777
  67.1955305  44.4079775  56.7718031  67.1009660  43.6795842  56.1389130
  67.4379280  44.0129393  57.6244567  65.6105588  45.2781041  56.9358105
  64.8761916  44.8789446  55.3747165  63.9982915  45.2874682  55.3162440
  65.4375472  45.2142517  54.6576397  64.7899194  43.9156572  55.2941959
  70.5134126  45.6387856  55.1835050  70.1997775  46.2700249  54.1717531
  71.6815256  45.8004354  55.8001072  71.9200627  45.3832412  56.5134116
  72.6623734  46.7331517  55.2772508  73.5386758  46.3187714  55.3170646
  72.4688431  46.8968464  54.3415179  72.7192914  48.0610533  56.0015709
  73.1476442  49.0647528  55.4333191  72.2830805  48.0800953  57.2551124
  71.9680112  47.3956788  57.6694968  72.3122440  49.3066137  58.0370530
  72.5068174  50.0503615  57.4450046  70.9597517  49.5517566  58.7048994
  70.7985576  48.8496338  59.3540196  70.9986419  50.3876749  59.1945423
  69.7953094  49.6033470  57.7411787  69.7830229  50.5058348  56.6808647
  70.5049196  51.0791868  56.5594004  68.7054059  50.5637244  55.7969669
  68.7104792  51.1721278  55.0933586  67.6285146  49.7120149  55.9720497
  66.5599799  49.7713813  55.1035249  65.9851252  49.2019263  55.3280109
  67.6181607  48.8036715  57.0168999  66.8943041  48.2312600  57.1323414
  68.7008766  48.7538600  57.8952529  68.6923317  48.1434754  58.5960287
  73.3876807  49.1931506  59.1072432  73.8997374  48.1071543  59.3705701
  73.7378461  50.3229503  59.7060301  73.4106411  51.0935144  59.5087894
  74.7284322  50.3421696  60.7697607  75.2568017  49.5295029  60.7463633
  75.6855450  51.5231973  60.6050553  75.1811817  52.3515397  60.6381981
  76.3059162  51.5399614  61.3503744  76.4628855  51.4616529  59.3084189
  76.9063123  50.3947226  58.8884161  76.6437605  52.6113861  58.6723222
  77.0868287  52.6298274  57.9356191  76.3183984  53.3380214  58.9971091
  73.9731662  50.4779744  62.0834298  73.0235832  51.2523169  62.1796312
  74.3966139  49.7190462  63.0873247  75.0586292  49.1733663  63.0304197
  73.7562962  49.7525828  64.3937751  73.2131598  50.5541092  64.4501244
  72.8607675  48.5303899  64.5838147  73.4098432  47.7319050  64.5512451
  72.4648200  48.5669035  65.4693419  71.5349908  48.3808826  63.3547774
  70.8882414  47.3963700  63.5813411  74.8172676  49.7661814  65.4832023
  75.9408473  49.3130223  65.2830764  74.4460261  50.3060713  66.6317369
  73.6675462  50.6430353  66.7761335  75.3504473  50.3714104  67.7645803
  76.0542071  49.7202598  67.6180131  75.9798697  51.7722453  67.9120187
  75.2689040  52.4315258  67.9494622  76.7980267  51.8627128  69.2050371
  77.1857710  52.7483528  69.2817581  76.2200731  51.6966280  69.9667270
  77.5063871  51.2003622  69.1870561  76.8240847  52.0365166  66.7877916
  76.8669636  52.8651628  66.6576803  74.5732818  50.0865716  69.0321368
  73.4360691  50.5335530  69.1869199  75.1886099  49.3269884  69.9298221
  75.9630850  48.9717807  69.8094491  74.5863376  49.0300869  71.2152912
  73.7506450  49.5147966  71.3017573  74.2572859  47.5355270  71.3873305
  75.0682039  47.0142912  71.2769885  73.6981546  47.2964743  72.7806994
  73.4912829  46.3553278  72.8889923  74.3556824  47.5602805  73.4432562
  72.8911637  47.8206726  72.8996903  73.2490939  47.0900666  70.3248608
  72.4209944  47.5775486  70.4544507  73.5871307  47.3333793  69.4487472
  72.9494601  45.5969705  70.3397842  72.3066716  45.3889401  69.6434514
  73.7675329  45.1006954  70.1820314  72.5829559  45.3482055  71.2030574
  75.6312825  49.4108579  72.2553665  76.7681459  48.9408684  72.1940688
  75.2354250  50.2665979  73.1912634  74.4437482  50.6007548  73.2168157
  76.1042767  50.7303446  74.2768604  77.0151818  50.5168519  74.0214848
  75.9333922  52.2364858  74.5279980  74.9866759  52.4295668  74.6170037
  76.3490351  52.4568136  75.3762112  76.5035815  53.1281160  73.4717022
  77.8493603  53.4805747  73.4899560  78.4146036  53.1041712  74.1252335
  78.3603568  54.3907803  72.5680632  79.2610220  54.6216154  72.5906300
  77.5167755  54.9544206  71.6112778  77.8533247  55.5637230  70.9950359
  76.1749794  54.6056745  71.5791909  75.6117969  54.9780631  70.9399593
  75.6739351  53.6955872  72.5071617  74.7737178  53.4643277  72.4822244
  75.6681288  50.0740371  75.5783298  74.4780527  49.8703801  75.7961453
  76.6298680  49.7584891  76.4434258  77.4695099  49.8439263  76.2788441
  76.3272478  49.2310969  77.7685644  75.3936146  48.9952875  77.8866190
  77.0982694  47.9592343  78.0520874  76.8750087  47.6357388  78.9389326
  76.8647661  47.2854137  77.3945633  78.0499352  48.1402591  78.0046195
  76.8210861  50.3655729  78.6716641  77.9943640  50.7362315  78.6245333
  75.9186525  50.9232350  79.4681687  75.0997890  50.6644644  79.5145735
  76.2421303  52.0405390  80.3484776  77.2050982  52.1543666  80.3341579
  75.5331262  53.3036036  79.8411681  75.8313787  53.4898183  78.9365408
  74.5793091  53.1322972  79.7962135  75.7703543  54.5227199  80.6945463
  75.0749472  54.7124569  81.8900662  74.4388106  54.0868686  82.1547839
  75.3201890  55.8291870  82.6957908  74.8508781  55.9462917  83.4905938
  76.2705472  56.7625636  82.2995162  76.5250880  57.8651749  83.0804178
  76.0942776  58.5228168  82.7855220  76.9704558  56.5919349  81.1183004
  77.6075405  57.2176941  80.8579497  76.7165385  55.4788032  80.3221040
  77.1865174  55.3699264  79.5263762  75.8314970  51.7830377  81.7909281
  74.7413169  51.2888745  82.0492517  76.6992792  52.1444146  82.7305481
  77.4664595  52.5020766  82.5815844  76.3708285  51.9393604  84.1302048
  75.8061799  52.6686055  84.4308218  75.8509480  51.1247187  84.2144971
  77.5785777  51.8470823  85.0389434  78.7171527  51.7904498  84.5896932
  77.3143232  51.8285808  86.3367620  76.5181493  51.8619421  86.6608287
  78.3608876  51.7494658  87.3413504  79.0191219  52.4397800  87.1645602
  77.7113594  51.9594702  88.7157148  77.6768941  52.9129884  88.8924436
  76.7950144  51.6461388  88.6690955  78.3801543  51.2874760  89.8841369
  78.4187896  50.3306552  89.7286143  79.2951631  51.6000482  89.9576382
  77.6440300  51.5618114  91.1854833  76.4330115  51.3408779  91.2885341
  78.3716926  52.0409022  92.1834378  79.2125762  52.1821064  92.0736511
  78.0034307  52.2112924  92.9413932  79.1241505  50.4297007  87.2936573
  78.5647227  49.3894336  86.9607503  80.4160005  50.4808798  87.6028584
  80.8408194  51.2021427  87.8020687  81.2209018  49.2691990  87.6234150
  81.2818232  48.9061925  86.7258540  82.6522575  49.5601502  88.1164356
  82.6002704  49.9904290  88.9842371  83.4474941  48.2693204  88.2649220
  84.3428322  48.4743716  88.5754260  83.0079557  47.6899219  88.9073932
  83.4985039  47.8194959  87.4063406  83.3096955  50.4208211  87.1775075
  83.5862182  51.1084672  87.5728100  80.5509663  48.2829128  88.5786715
  80.1080343  48.6613452  89.6716908  80.4506118  47.0338160  88.1391445
  80.7305735  46.7712127  87.3696206  79.8449881  45.9909913  88.9470904
  80.3170826  45.1600385  88.7809178  79.9775134  46.2103113  89.8824608
  78.3641563  45.7597430  88.7116115  77.7554670  44.9466922  89.4141460
  77.7738334  46.4388438  87.7301269  78.1718222  46.9932517  87.2061930
  76.3440142  46.2631457  87.4850628  76.0317889  45.8266810  88.2930584
  75.6388961  47.6170455  87.2815688  74.7116331  47.4544623  87.0468623
  75.6947605  48.4334162  88.5697345  75.2489053  49.2841649  88.4335884
  75.2510500  47.9461175  89.2814100  76.6204410  48.5895161  88.8137396
  76.2707776  48.3444279  86.2228825  76.9975726  48.6628476  86.4968515
  75.9721826  45.3291604  86.3387968  74.7891754  45.0440765  86.1346423
  76.9642571  44.8592699  85.5899228  77.7945503  45.0590445  85.6908097
  76.6752600  43.9333415  84.5059587  77.2114361  43.1380213  84.6500938
  75.7462078  43.6676417  84.5884663  76.8967461  44.3789209  83.0734054
  76.3188053  43.7940578  82.1551605  77.7062733  45.4103626  82.8531701
  78.1081320  45.8632917  83.4630880  77.9591397  45.8397273  81.4817589
  77.1037978  46.0314179  81.0664494  78.8204670  47.1102468  81.4580015
  79.6381358  46.9438222  81.9519454  79.0761338  47.2993066  80.5414428
  78.1313370  48.3439406  82.0434428  77.2849256  48.4851968  81.5924456
  77.9307529  48.1876301  82.9797344  78.9968334  49.6038299  81.9097417
  79.1712302  49.7784602  80.9715498  78.5098183  50.3690144  82.2552963
  80.3203116  49.4653803  82.6545626  80.8308465  48.7352776  82.2704713
  80.8438241  50.2725334  82.5322213  80.1236212  49.2182828  84.1170173
  80.9045831  49.2873823  84.5378174  79.5554344  49.8188085  84.4463359
  79.7934499  48.4005700  84.2385519  78.6641773  44.7341908  80.6996259
  78.2334488  44.3504918  79.6078223  79.7474466  44.2133679  81.2578446
  80.0618543  44.4494907  82.0220880  80.5009147  43.1664738  80.5815160
  80.6523767  43.4515944  79.6668803  81.8542842  42.9640701  81.2687662
  81.7048289  42.7347570  82.1991020  82.6422440  41.8332011  80.6152535
  83.4934735  41.7272148  81.0688626  82.1368699  41.0074124  80.6789714
  82.7984826  42.0445528  79.6813997  82.6019588  44.1780501  81.1400024
  83.4565514  44.0741075  81.5648173  79.7253635  41.8629979  80.5210752
  79.7812781  41.1492013  79.5233729  78.9922530  41.5622039  81.5855121
  78.9417373  42.0453278  82.2952180  78.1976731  40.3438980  81.6138012
  78.7823296  39.5759427  81.5141499  77.4545772  40.2257227  82.9398001
  78.0925251  40.2939313  83.6678414  76.8426856  40.9731939  83.0278473
  76.6857092  38.9426428  83.0786163  77.3065519  37.7939339  83.5589195
  78.1941677  37.8324875  83.8336480  76.6128066  36.5856121  83.6331616
  77.0367931  35.8231410  83.9560800  75.2852055  36.5252673  83.2230851
  74.8199486  35.7215836  83.2680685  74.6567477  37.6689314  82.7464644
  73.7681016  37.6323853  82.4737130  75.3574590  38.8697361  82.6774154
  74.9312701  39.6325370  82.3590841  77.1799192  40.3961016  80.4684515
  76.9432301  39.4102478  79.7725322  76.5781839  41.5611845  80.2773745
  76.7245796  42.2677046  80.7455311  75.5902612  41.7208957  79.2179737
  74.9912551  40.9619005  79.2925391  74.8133777  43.0448920  79.3994375
  75.4457244  43.7798560  79.4152043  73.8427206  43.2722336  78.2383852
  73.3666986  44.1070997  78.3727417  74.3386234  43.3133747  77.4055144
  73.2070811  42.5406194  78.2003039  74.0837885  42.9921413  80.6306409
  74.5900247  43.2074550  81.2661179  76.2015764  41.6965859  77.8212863
  75.7347890  40.9761545  76.9428301  77.2600291  42.4716597  77.6193150
  77.6329751  42.9541226  78.2256540  77.8765267  42.5540363  76.3061750
  77.1481235  42.5774894  75.6665472  78.7213162  43.8345750  76.2201271
  79.4419895  43.7803293  76.8667594  79.1316105  43.8829669  75.3423607
  77.9198864  45.1306101  76.4702978  77.6220682  45.1422806  77.3927365
  78.5090593  45.8923926  76.3528776  76.4608929  45.3319721  75.3709524
  77.2899321  44.9391672  73.8493544  76.6595507  44.9926904  73.1144506
  78.0122374  45.5693459  73.7017643  77.6509044  44.0403674  73.9000197
  78.7063755  41.3345437  75.9076175  78.7177254  40.9421295  74.7439835
  79.3721243  40.7194853  76.8775478  79.3446125  40.9558530  77.7041132
  80.2237353  39.5651498  76.6072750  80.2356114  39.4691417  75.6416817
  81.6185735  39.8162228  77.1743577  81.5373215  40.0970515  78.0992401
  82.1144149  38.9825481  77.1730417  82.4008300  40.8530888  76.4139336
  82.4881852  40.5743832  75.4885590  81.9088185  41.6890928  76.4138690
  83.7721365  41.0816956  76.9966217  84.2977346  40.1703817  77.6733379
  84.3295267  42.1715006  76.7642749  79.7053980  38.2578313  77.1698456
  79.6936021  37.2334317  76.4815606  79.2914534  38.3021419  78.4285554
  79.2779293  39.0136399  78.9120051  78.8188122  37.1084190  79.0907948
  78.1689113  37.3354902  79.7744150  78.3719455  36.5251605  78.4577359
  80.0111948  36.4031255  79.7085610  81.1476245  36.8861539  79.6343514
  79.7521440  35.2483678  80.3105355  78.9663536  34.9016587  80.3531992
  80.7846434  34.4562395  80.9604591  81.6561388  34.7154510  80.6218751
  80.7404814  34.6965966  82.4733138  79.8407655  34.5276776  82.7925107
  81.3223877  34.0555086  82.9110731  81.1549850  36.1012719  82.8857166
  82.0974533  36.2251717  82.6931827  80.6686413  36.7467648  82.3496395
  80.9057028  36.3847387  84.3571554  81.1967971  35.5066723  85.1970635
  80.4291437  37.4935301  84.6769239  80.5410192  32.9803594  80.6694486
  79.5717813  32.6238603  79.9962210  81.4204832  32.1231386  81.1747066
  82.1133951  32.3448699  81.6333843  81.2483257  30.6946158  80.9684534
  80.6914627  30.5678752  80.1847950  82.5984173  30.0030431  80.7344257
  83.1372288  30.1008263  81.5350434  82.4404155  29.0535254  80.6121527
  83.4059809  30.5192851  79.5396052  83.7766934  31.3904657  79.7511106
  84.1546499  29.9249996  79.3723614  82.5491447  30.6212153  78.2900501
  81.9455474  31.3762195  78.3732539  83.1169817  30.7949761  77.5233870
  81.7760005  29.4059436  78.0548144  80.9501424  29.4080438  78.2944975
  82.2512957  28.2972883  77.4985456  83.5145224  28.2284550  77.0978146
  84.0342708  28.9061032  77.1970591  83.8129993  27.5062886  76.7393050
  81.4558763  27.2464190  77.3528512  80.6390398  27.2858401  77.6175096
  81.7569215  26.5256767  76.9937284  80.5890981  30.0808671  82.1944165
  80.8824057  30.4682768  83.3291934  79.6852547  29.1349481  81.9655736
  79.4331244  28.8801496  81.1839592  79.0420204  28.4462396  83.0746725
  78.6348944  29.0581496  83.7070138  77.9213148  27.5354672  82.5737109
  78.2636916  26.9429353  81.8864330  77.6062594  26.9745046  83.2992611
  76.8434360  28.2968377  82.0552890  77.0855105  28.6814456  81.3483613
  80.1647164  27.6129931  83.6823483  81.0078258  27.0816715  82.9627256
  80.1903781  27.4888356  85.0129457  79.2745382  28.1308063  85.9702680
  78.4834355  27.5941138  86.1332606  78.9701823  28.9974352  85.6580599
  80.1409983  28.2437595  87.1932992  79.6166300  28.3668939  87.9998206
  80.7540408  28.9931976  87.1357527  80.8616164  26.9263591  87.1877465
  80.2979998  26.2097892  87.5204217  81.6519807  26.9492688  87.7493659
  81.2230676  26.7208160  85.7163832  82.1023265  27.0372531  85.4567673
  81.3232186  25.2348354  85.3740243  80.3754324  24.6272819  84.8712858
  82.4998178  24.6709652  85.6361343  83.1777447  25.1096282  85.9324971
  82.7569427  23.2473000  85.4468538  83.7058050  23.1423883  85.6204706
  81.8685743  22.4685901  86.4194353  81.4750324  23.0853886  87.0564214
  81.1371402  22.0623759  85.9287092  82.6251885  21.3936123  87.1682601
  83.7176834  21.6351634  87.6896170  82.0441667  20.2005490  87.2412448
  82.4302048  19.5596591  87.6647360  81.2819055  20.0691961  86.8650742
  82.5979500  22.6801206  84.0380636  82.2861389  21.4997194  83.8753253
  82.8311268  23.5076516  83.0244749  83.0590506  24.3311851  83.1209233
  82.7167650  23.0747875  81.6350879  82.7390686  23.8764241  81.0887122
  83.8831714  22.1543653  81.2630435  83.8361742  21.3522937  81.8060964
  83.7828186  21.8776735  80.3389607  85.2468423  22.7865861  81.4400392
  85.2570239  23.6531363  81.0050424  85.4080799  22.9408135  82.3836288
  86.3610692  21.9327973  80.8770437  86.5397618  20.7907352  81.3523354
  87.0559463  22.4052064  79.9547914  81.4045177  22.3501150  81.3658193
  81.3703637  21.3566783  80.6395025  80.3258623  22.8503719  81.9482012
  80.3283459  23.5456325  82.4544566  79.0183829  22.2381636  81.7660077
  79.1057847  21.2901989  81.9526435  78.0201424  22.8639105  82.7368180
  78.3148023  22.6873128  83.6437705  78.0308503  23.8261974  82.6176238
  76.5901888  22.3672876  82.5808171  76.2606912  22.6080204  81.7013604
  76.5785510  21.3985511  82.6322283  75.6649973  22.9377197  83.6377674
  75.9005368  24.0811855  84.0850482  74.6937117  22.2484030  84.0125524
  78.5148273  22.3646460  80.3261265  77.8205887  21.4741555  79.8270327
  78.8774576  23.4579291  79.6564383  79.3732183  24.0799645  79.9842650
  78.4487300  23.6908775  78.2749161  78.0955351  22.8338848  77.9903570
  77.4033505  24.8089828  78.2007790  77.8367817  25.6459058  78.4306906
  77.1056812  24.8871449  77.2809276  76.1903363  24.6487691  79.0772276
  76.1939029  25.0961355  80.3966781  76.9645550  25.4799761  80.7469535
  75.0634373  24.9778641  81.1976908  75.0763554  25.2841612  82.0754842
  73.9178108  24.3997616  80.6767623  72.7985292  24.2734528  81.4619220
  72.5101658  25.0360746  81.6632339  73.8908950  23.9438112  79.3700447
  73.1194032  23.5546934  79.0251957  75.0243543  24.0711238  78.5781037
  75.0050901  23.7655309  77.6998287  79.5728163  24.1143243  77.3438216
  80.5974661  24.6361804  77.7819310  79.3584948  23.8974315  76.0487507
  78.6652129  23.4961191  75.7373160  80.3070227  24.3347573  75.0343277
  81.2307577  24.1583222  75.2725280  80.0767176  23.6129002  73.6933263
  80.7074729  23.9564664  73.0414605  80.2994601  22.1115378  73.8497828
  80.1505587  21.6714703  72.9985037  81.2099282  21.9483205  74.1430129
  79.6797883  21.7595703  74.5073561  78.7366796  23.8502905  73.2491156
  78.6102912  23.4588572  72.5169872  79.9447692  25.8156495  74.8901864
  78.8739958  26.2281612  75.3442263  80.8027127  26.6187065  74.2690243
  81.5456278  26.3673895  73.9169604  80.5054594  28.0439680  74.1504994
  80.3806167  28.3561695  75.0602628  81.6697715  28.7973561  73.4936122
  81.5948866  29.7379920  73.7190062  82.5004312  28.4780766  73.8794283
  81.7550823  28.6690623  72.0072829  82.4414096  27.7254295  71.2993599
  82.9299037  27.0295524  71.6752783  82.3066377  27.9525881  69.9499547
  82.6596539  27.4786067  69.3248825  81.5178199  29.0571433  69.7643119
  81.0958458  29.6763468  68.5823754  81.3478268  29.3486710  67.7500292
  80.2953315  30.7864363  68.6981088  80.0005416  31.2175170  67.9282378
  79.9110457  31.2858612  69.9573069  79.3676531  32.0388201  70.0041625
  80.3317391  30.6700866  71.1320599  80.0751104  31.0046869  71.9610227
  81.1504937  29.5333562  71.0422602  79.2123548  28.3436484  73.3968986
  78.4931857  29.2781176  73.7454785  78.9250789  27.5461340  72.3721112
  79.4196023  26.8850111  72.1316841  77.7278547  27.7243389  71.5520677
  77.7508437  28.6451289  71.2477270  77.7500748  26.7494203  70.3694735
  77.8045409  25.8435420  70.7132016  76.9092984  26.8212888  69.8901991
  78.8908460  26.9683106  69.3887176  78.8335654  27.8670407  69.0280195
  79.7357545  26.9052453  69.8617128  78.8820688  25.9675338  68.2445490
  77.8840505  25.9200557  67.4949556  79.8765652  25.2272143  68.0942160
  76.4219422  27.5333705  72.3202848  75.4073585  28.1453529  71.9890578
  76.4448544  26.6803971  73.3378856  77.1463748  26.2527969  73.5933994
  75.2451475  26.3991866  74.1195466  74.5265871  26.8548937  73.6541360
  75.0185686  24.8885058  74.1843272  75.8722565  24.4388794  74.0802164
  74.6834879  24.6594642  75.0651944  74.0517892  24.3553777  73.1373616
  74.3506029  24.6277577  72.2558042  74.0630416  23.3856926  73.1536141
  72.6320956  24.8456635  73.3609434  72.0871168  24.6113145  74.4625358
  72.0611678  25.4678105  72.4393012  75.2440825  26.9605134  75.5358400
  74.3047210  26.7346930  76.2922388  76.2859598  27.6992166  75.8957793
  76.9475890  27.8913461  75.3818979  76.3725666  28.2505014  77.2384737
  76.2147326  27.5243424  77.8621584  77.7618360  28.8473900  77.4667075
  78.4246729  28.2978896  77.0195849  77.8036842  29.7273985  77.0618621
  78.1069503  28.9540234  78.9327874  77.2281921  29.3609635  79.7181400
  79.2585095  28.6352794  79.2956204  75.3130139  29.3199233  77.4876060
  75.2922383  30.3484575  76.8148513  74.4222650  29.0942481  78.4674657
  74.3011955  27.8928833  79.3156271  75.1667951  27.5615839  79.6013596
  73.8573251  27.1648171  78.8529083  73.4834749  28.4070471  80.4750953
  74.0316876  28.8771690  81.1230909  73.0375149  27.6874982  80.9494993
  72.5077347  29.3205108  79.8048960  72.0966891  29.9308639  80.4367754
  71.7887981  28.8269838  79.3789873  73.3674832  30.0609918  78.7818621
  72.8801264  30.3272052  77.9869761  73.8801445  31.3946955  79.3149509
  73.1446727  32.3774301  79.3404834  75.1402250  31.4273911  79.7416853
  75.6742718  30.7532170  79.7359102  75.7119746  32.6612251  80.2658512
  74.9751913  33.1906201  80.6093702  76.6917725  32.3492579  81.4007510
  77.3913956  31.7737597  81.0538227  77.1158944  33.1765909  81.6770239
  76.0811499  31.6798310  82.6357415  75.7715423  30.7917350  82.3978914
  77.1397588  31.5626803  83.7312541  76.7516680  31.1383274  84.5121992
  77.8818321  31.0272029  83.4088069  77.4590609  32.4474723  83.9694184
  74.8890430  32.4919564  83.1362160  74.5086162  32.0616787  83.9175606
  75.1819379  33.3864160  83.3710344  74.2174501  32.5457988  82.4381837
  76.3937880  33.5057179  79.1876210  76.8794278  34.6052071  79.4664533
  76.4309880  32.9980666  77.9592243  76.1129777  32.2289582  77.7423586
  77.0370627  33.7429514  76.8592020  77.9716117  33.9139094  77.0558195
  76.9584605  32.9357885  75.5705753  77.3638217  33.4402127  74.8473219
  77.4322115  32.0966493  75.6841817  76.0293318  32.7559141  75.3580168
  76.2885093  35.0638344  76.6939084  75.0693822  35.1197642  76.8808575
  77.0227073  36.1145602  76.3399770  77.8701997  36.0847778  76.1983483
  76.4275225  37.4287665  76.1622531  75.5933897  37.4631036  76.6557280
  77.0158857  38.0936781  76.5534784  76.1562045  37.8066559  74.7166117
  76.1884161  36.9661332  73.8210644  75.9152925  39.0919545  74.4878278
  75.9347910  39.6958116  75.0992968  75.5920759  39.6004794  73.1591730
  74.8148926  39.0808230  72.8998944  75.2891437  41.1151012  73.2357698
  76.0325919  41.5760464  73.6544251  75.1179785  41.6999323  71.8340209
  74.9292405  42.6488046  71.9001679  75.9337967  41.5675300  71.3263760
  74.3826898  41.2545547  71.3845910  74.0246026  41.3256764  74.0791344
  73.2763970  40.9062107  73.6259999  74.1366661  40.8654576  74.9259989
  73.6684909  42.7805691  74.3601287  72.8607019  42.8187796  74.8962769
  74.3961056  43.2047249  74.8422809  73.5220282  43.2459586  73.5214469
  76.5992737  39.3369121  72.0412719  76.2177470  38.9056392  70.9520956
  77.8796456  39.5814159  72.2964006  78.1847716  39.8636479  73.0489484
  78.8836172  39.3721195  71.2567636  78.6052745  39.9325574  70.5153570
  80.2831747  39.8067469  71.7496943  80.4843172  39.3584482  72.5863686
  81.3486115  39.4162688  70.7212015  82.2220797  39.6934491  71.0391282
  81.3405070  38.4546553  70.5952494  81.1593961  39.8542981  69.8763857
  80.2923525  41.3227791  71.9723404  80.1797781  41.7655698  71.1171092
  79.5275645  41.5638016  72.5186968  81.5613748  41.8496887  72.6383852
  81.4951934  42.8110321  72.7461296  81.6670985  41.4332869  73.5082686
  82.3293907  41.6394850  72.0841688  78.9370205  37.9381163  70.7072767
  78.7796271  37.7326672  69.5010666  79.1555804  36.9284160  71.5671668
  79.4813689  36.9189609  73.0039724  78.9737862  37.5824043  73.4967367
  80.4201766  37.1030337  73.1657206  79.1043743  35.5084326  73.3970053
  78.1480553  35.4111406  73.5264744  79.5317094  35.2355741  74.2235021
  79.5964221  34.7118109  72.2185441  79.1834207  33.8352437  72.1826737
  80.5550871  34.5720265  72.2576700  79.2019895  35.5691379  71.0135278
  79.8276240  35.5101557  70.2745613  77.8993427  35.0991036  70.3566806
  77.9350428  34.3997630  69.3453990  76.7585597  35.4825782  70.9246042
  76.7112467  35.9700006  71.6316147  75.4598087  35.0883668  70.3688198
  75.4608579  34.1214778  70.2868833  74.3201210  35.5234213  71.2926189
  74.4494591  36.4546826  71.5312839  73.4831487  35.4688192  70.8046424
  74.1997412  34.7067930  72.5592767  73.9792814  33.7893030  72.3329881
  75.0555520  34.6888926  73.0148570  73.1397743  35.2677406  73.4928997
  73.2895226  36.2164845  73.6293602  72.2623089  35.1743917  73.0894218
  73.1730465  34.5732200  74.7717961  73.5422254  34.9743092  75.4375501
  72.6721507  33.3624767  74.9778306  72.0766142  32.7094237  73.9840972
  72.0156102  33.0724508  73.2068869  71.7525230  31.9244479  74.1190600
  72.7991004  32.7911318  76.1637900  73.2058507  33.2048605  76.7993674
  72.4750540  32.0057698  76.2996740  75.2437463  35.7128726  68.9999975
  74.6996576  35.0777544  68.0937711  75.6652116  36.9627440  68.8554756
  76.0446203  37.4182295  69.4784113  75.5102148  37.6731824  67.5946004
  74.5706519  37.6234265  67.3567772  75.9281930  39.1411829  67.7381504
  76.8527468  39.1757497  68.0311189  75.8135444  39.8712562  66.3999674
  76.0819602  40.7963233  66.5120464  76.3907863  39.4439598  65.7477408
  74.8954635  39.8368588  66.0904739  75.0788298  39.7771123  68.6973042
  75.3418595  39.5901954  69.4723058  76.3379891  37.0331555  66.4882490
  75.8395551  36.7916742  65.3877222  77.6057901  36.7673199  66.7775188
  77.9772882  36.9288781  67.5359468  78.4764373  36.1614486  65.7832580
  78.5072498  36.7308771  64.9991051  79.8974818  36.0310082  66.3421712
  79.8709718  35.5213984  67.1674730  80.4416897  35.5286818  65.7165388
  80.5602307  37.3912485  66.6099028  79.9802263  37.9161889  67.1838030
  81.8925907  37.2098962  67.3265374  82.2950927  38.0780367  67.4863786
  81.7461989  36.7606714  68.1732165  82.4858252  36.6754749  66.7762396
  80.7606846  38.1244457  65.2956908  81.1789065  38.9830000  65.4648590
  81.3295387  37.5971996  64.7137684  79.9014285  38.2622889  64.8677666
  77.9290129  34.8002201  65.3586307  77.9071932  34.4759764  64.1752597
  77.4631853  34.0162570  66.3225662  77.4523048  34.2258667  67.1566425
  76.9194451  32.6975943  66.0154615  77.5862782  32.1909424  65.5264099
  76.5891368  31.9527288  67.3148174  77.3634047  31.9788966  67.8981230
  75.8733917  32.4203268  67.7725096  76.1831507  30.5249282  67.1093872
  74.9067982  30.1589859  66.7358586  74.1374070  30.7959469  66.5844389
  74.8476903  28.8449406  66.6068302  74.0947481  28.3558617  66.3635326
  76.0382602  28.3439512  66.8826818  76.8904601  29.3736697  67.2023521
  77.7865606  29.2944954  67.4381683  75.6745896  32.8210578  65.1346263
  75.5202762  32.0856974  64.1554769  74.8058814  33.7714088  65.4710885
  74.9182736  34.3020658  66.1385263  73.5658429  34.0051876  64.7296102
  73.1308018  33.1394203  64.6884853  72.7037544  35.0350724  65.4627039
  73.2878445  35.6771818  65.8955922  72.1803090  35.5238423  64.8084601
  71.7611180  34.4574572  66.5037757  72.2565279  33.8645955  67.0907817
  71.4132970  35.1756507  67.0540517  70.6036481  33.6963691  65.8817481
  70.7436298  32.5406007  65.4848508  69.4537006  34.3539138  65.7791774
  69.3927108  35.1618382  66.0676554  68.7703772  33.9713153  65.4240893
  73.7545420  34.4592231  63.2804886  72.9612252  34.1053920  62.4109611
  74.7868219  35.2534834  63.0216239  75.3501962  35.5253048  63.6118006
  75.0395226  35.7323496  61.6666311  74.2837136  36.2802886  61.4012527
  76.3258634  36.5909640  61.6134181  77.0471568  36.1131899  62.0520783
  76.7348806  36.8400666  60.1675253  77.5414428  37.3782238  60.1476685
  76.9023229  35.9920481  59.7278974  76.0216132  37.3085564  59.7050452
  76.0939816  37.9128558  62.3470963  75.4477222  38.4401499  61.8517381
  75.7031141  37.7277740  63.2154581  77.3604330  38.7350039  62.5400612
  77.1448367  39.5568067  63.0090307  78.0016077  38.2250158  63.0592029
  77.7427586  38.9485360  61.6742730  75.1807353  34.5579799  60.7050618
  74.5869806  34.5447671  59.6245458  75.9658036  33.5676147  61.1091664
  76.3791982  33.5595819  61.8628416  76.1929092  32.3884330  60.2857609
  76.4530153  32.6775904  59.3968386  77.3187672  31.5492878  60.8929809
  77.1097475  31.3626247  61.8213002  77.3598528  30.6955299  60.4342999
  78.6670475  32.2145471  60.8164798  79.3593446  32.2726117  59.6110263
  79.0028088  31.8600044  58.8573377  80.5818277  32.9420279  59.5163373
  81.0339472  32.9735128  58.7043419  81.1205845  33.5600008  60.6359732
  81.9334093  34.0076665  60.5757053  80.4396691  33.5071546  61.8506586
  80.7971269  33.9194229  62.6041602  79.2177795  32.8338536  61.9339215
  78.7668248  32.7992026  62.7467038  74.9222664  31.5604391  60.1415633
  74.6818737  30.9568268  59.0980958  74.1067044  31.5438576  61.1880549
  74.2575949  31.9655832  61.9219218  72.8581072  30.7883908  61.1708763
  73.0567487  29.8896476  60.8647648  72.2544958  30.7303901  62.5782701
  72.1862280  31.6336249  62.9255098  71.3520496  30.3809744  62.5158475
  73.0373736  29.8856093  63.5688501  73.9602253  30.1853289  63.5866530
  72.6779015  30.0214664  64.4595164  72.9974565  28.4072618  63.2332484
  71.8813749  27.8645149  63.0828035  74.0767211  27.7861423  63.1244211
  71.8525918  31.4246478  60.2198481  71.2453251  30.7418753  59.3933186
  71.6881217  32.7374564  60.3342694  72.1200513  33.2306039  60.8912041
  70.7358852  33.4575519  59.4993724  69.9039528  32.9632920  59.5605740
  70.5608695  34.8864003  60.0200517  71.3994542  35.3635880  59.9209781
  69.9058282  35.3458606  59.4706337  70.1216465  34.9517148  61.4744011
  69.2651202  34.5079115  61.5742324  70.7569972  34.4698158  62.0262242
  70.0091239  36.3845610  61.9644105  70.0646226  36.4025234  62.9330829
  70.7570316  36.9021477  61.6283567  68.7071903  37.0219717  61.5178036
  68.7313587  37.9734805  61.7038628  68.6094521  36.9229215  60.5573525
  67.5320672  36.4080708  62.2054716  66.8918954  37.0182225  62.3013667
  67.2242686  35.7298577  61.7190437  67.7789407  36.1093933  63.0071294
  71.1027488  33.4948288  58.0209995  70.2240519  33.6125699  57.1698827
  72.3906112  33.3930638  57.7105490  73.0249194  33.3003441  58.2844707
  72.8225334  33.4345391  56.3154332  72.0433231  33.6564939  55.7821150
  73.9079700  34.5037952  56.1464724  74.6956668  34.2246849  56.6380506
  74.1573550  34.5448522  55.2105047  73.5187688  35.9128081  56.6095577
  73.3007550  35.8904550  57.5540112  74.6871214  36.8645839  56.3992531
  74.4370027  37.7539728  56.6930932  75.4504468  36.5577300  56.9118632
  74.9194100  36.8885740  55.4580478  72.2947403  36.3935359  55.8416625
  72.0548685  37.2846735  56.1400788  72.4948994  36.4139392  54.8929185
  71.5530454  35.7890997  56.0020730  73.3321051  32.0875074  55.8040955
  74.0794355  32.0288357  54.8303184  72.9017098  31.0057267  56.4449982
  72.3525266  31.0262270  57.1065869  73.3382659  29.6646256  56.0656058
  74.2956124  29.6951282  56.2174286  72.6545693  28.5827605  56.9337054
  71.6969217  28.6289288  56.7858184  73.1604665  27.1935274  56.5502994
  72.7235431  26.5263695  57.1026682  72.9603546  27.0224341  55.6167260
  74.1196632  27.1484889  56.6877306  72.9550401  28.8154536  58.3147858
  72.4328773  29.3975031  58.6210952  73.1311451  29.2881063  54.5979818
  74.0502163  28.7801374  53.9539199  71.9341533  29.5221483  54.0683451
  71.2771082  29.8839055  54.4885803  71.6564798  29.1612586  52.6790860
  72.4571384  29.3846258  52.1791349  71.3435148  27.6630762  52.5839847
  71.0853757  27.4480435  51.6738885  72.1475030  27.1556145  52.7782412
  70.2338755  27.2314398  53.5369930  69.4244129  28.0903626  53.9516397
  70.1624123  26.0257139  53.8620882  70.5111336  29.9492441  52.0524522
  69.6519502  29.3756461  51.3848878  70.5181075  31.2644849  52.2431298
  71.1266518  31.6878381  52.6797234  69.4591186  32.1052351  51.7060522
  68.7139367  31.5208438  51.4973137  69.0458458  33.1413961  52.7531650
  68.2423474  33.5958439  52.4541694  68.8240595  32.6889414  53.5815348
  70.1272564  34.1618606  53.0165606  71.3141832  33.8770337  52.8611275
  69.7239808  35.3585290  53.4314721  70.3020333  35.9719944  53.6030023
  68.8844574  35.5203190  53.5281956  69.8370386  32.7980757  50.3988516
  69.0930775  33.6455339  49.9002760  70.9859403  32.4322302  49.8390089
  71.5248551  31.8475397  50.1657410  71.4122803  33.0297694  48.5850169
  71.8977227  32.3645036  48.0719428  70.6258389  33.2666720  48.0691708
  72.2846861  34.2614852  48.7343997  72.6585720  34.8899250  47.7433862
  72.6174158  34.6124555  49.9692069  72.3729758  34.1908266  50.6780963
  73.4509495  35.7806671  50.2078264  73.4525941  36.2927926  49.3837033
  72.8821721  36.6441860  51.3572816  72.8549237  36.1070900  52.1645842
  73.7702986  37.8648225  51.5989418  73.4006362  38.3960886  52.3215608
  74.6643491  37.5724884  51.8366717  73.8101942  38.4008965  50.7916810
  71.5611554  37.0868638  51.0144869  71.0032291  36.7340682  51.5341190
  74.8814970  35.3883547  50.5555530  75.1333278  34.8141458  51.6137569
  75.8116458  35.6790908  49.6520656  75.6474592  36.0447447  48.8907443
  77.2201609  35.3904980  49.8956443  77.3634523  34.4859721  50.2149957
  78.0295347  35.5399042  48.6099052  77.9276751  36.4458873  48.2782952
  78.9695134  35.4173229  48.8145360  77.6352733  34.5712549  47.5174939
  76.8407543  34.0858041  47.7900521  77.4038367  35.0678492  46.7166498
  78.7367848  33.5855952  47.1950652  79.0928419  32.7785422  48.0822060
  79.2490017  33.6243510  46.0564867  77.6419674  36.4564525  50.8940026
  77.1817017  37.5946963  50.8074436  78.5156665  36.1111930  51.8334167
  78.8808981  35.3366083  51.9098981  78.9135288  37.0961792  52.8337295
  79.0067840  37.9383284  52.3605835  77.8431006  37.1651411  53.9230531
  78.0094439  37.9411743  54.4812488  76.9769724  37.2957075  53.5065230
  77.7882996  35.9364670  54.7945317  77.1080384  34.7984935  54.3744427
  76.6536292  34.8093356  53.5631575  77.0975929  33.6422596  55.1514808
  76.6394575  32.8884034  54.8577365  77.7731914  33.6171064  56.3682306
  77.7691183  32.8463203  56.8897486  78.4557262  34.7514358  56.8007916
  78.9083362  34.7408854  57.6133720  78.4598744  35.9008421  56.0157705
  78.9170877  36.6550372  56.3097018  80.2565715  36.8107906  53.4921204
  80.7679133  35.6934765  53.4449514  80.8131614  37.8443032  54.1121377
  80.4718920  38.6334567  54.1274307  82.0696770  37.7244251  54.8300122
  82.2995909  36.7951189  54.9849754  83.2268325  38.3344246  54.0287003
  84.0657306  38.1590389  54.4831218  83.2811003  37.9087833  53.1583903
  83.0564405  39.7309199  53.8658952  83.4776522  40.1373258  54.4683933
  81.8668679  38.4945544  56.1244006  81.1597844  39.5037847  56.1509762
  82.4762459  38.0069601  57.1950098  82.9640873  37.2991107  57.1882191
  82.3634687  38.6468689  58.4955524  81.7984825  39.4288863  58.3939145
  81.7339383  37.6971158  59.5303686  82.2903463  36.9070713  59.6149484
  81.6570003  38.3817422  60.8891597  81.2595480  37.7763308  61.5349598
  82.5499890  38.6234701  61.1804205  81.1125711  39.1816715  60.8189952
  80.3484280  37.2663262  59.0676695  79.9590985  36.6679605  59.7247114
  79.7834866  38.0479574  58.9669529  80.4191407  36.8071902  58.2161656
  83.7473904  39.0368831  58.9922492  84.6709528  38.2264277  58.9722632
  83.8911294  40.2816528  59.4289372  83.2651090  40.8712190  59.4286816
  85.1644079  40.7469013  59.9549579  85.7611198  39.9910813  60.0692912
  85.8315998  41.7261629  58.9882067  85.2041028  42.4334709  58.7725429
  86.5866367  42.1427081  59.4321868  86.3111550  41.0805947  57.6989269
  86.8654021  40.3118427  57.9054204  85.5497500  40.7539950  57.1941913
  87.0998144  42.0669785  56.8529893  86.5278811  42.8065822  56.5960620
  87.8264532  42.4387022  57.3772475  87.6592039  41.3964477  55.6068879
  88.1756444  40.6158511  55.8623546  86.9282476  41.0835081  55.0510418
  88.5195719  42.3285201  54.8226118  88.8312691  41.9097710  54.1022237
  88.0402169  43.0339516  54.5707345  89.2016198  42.5986982  55.3270921
  84.9077690  41.4285912  61.2832701  83.8998510  42.1113522  61.4557135
  85.8218761  41.2390647  62.2252217  86.5354632  40.7691453  62.1248458
  85.6620612  41.8414267  63.5383619  84.9080329  42.4478257  63.4699840
  85.3748472  40.7690225  64.6277600  85.2538109  41.2179399  65.4795988
  84.1006804  40.0050244  64.2913097  83.9312057  39.3398874  64.9769606
  83.3542074  40.6228636  64.2501539  84.2042872  39.5652123  63.4332818
  86.5520403  39.8056317  64.7505755  86.3589358  39.1434057  65.4320837
  86.6965605  39.3607016  63.9003514  87.3504573  40.2988677  64.9966599
  86.9075334  42.6075560  63.9487383  88.0071952  42.3381663  63.4686307
  86.7159312  43.5890581  64.8188804  85.9450415  43.8218535  65.1200388
  87.8284288  44.3669425  65.3437670  88.6530468  43.8591533  65.2926659
  88.0583788  45.6478181  64.5247269  88.8341870  46.1167558  64.8691802
  88.2549366  45.4124942  63.6046287  86.9324179  46.5061354  64.5615980
  86.9360167  46.9430269  65.2796815  87.4730912  44.7074729  66.7824185
  86.2967308  44.7560265  67.1508851  88.4900690  44.9006790  67.6073770
  89.3180907  44.8360307  67.3847838  88.2540509  45.2489596  68.9946301
  87.3274872  45.5051357  69.1221310  88.5231166  44.0573080  69.9092913
  87.9671924  43.3157870  69.6243896  89.4456868  43.7805865  69.7939944
  88.2704422  44.3143124  71.4012783  88.9377923  44.9264988  71.7481062
  86.9014031  44.9689557  71.6088067  86.7569489  45.1250818  72.5550375
  86.8718851  45.8142293  71.1342594  86.2069397  44.3825734  71.2686883
  88.3716243  42.9980782  72.1470570  88.2137654  43.1477708  73.0923282
  87.7088772  42.3793533  71.8026912  89.2575848  42.6231718  72.0238569
  89.1805406  46.3966548  69.3384364  90.3804658  46.2063249  69.5465226
  88.5989085  47.5879406  69.3755331  87.7601719  47.7064466  69.2283081
  89.3180257  48.8160554  69.6687097  90.2727777  48.6687923  69.5844104
  88.8875461  49.9046429  68.6850464  89.1346054  49.6105444  67.7942934
  87.9194961  49.9552764  68.7077755  89.4301211  51.3214235  68.8727001
  89.2290327  51.6308576  69.7698166  90.9418574  51.3390086  68.6958237
  91.2717967  52.2430578  68.8178070  91.3514582  50.7546151  69.3524221
  91.1671913  51.0304339  67.8044005  88.7685207  52.2372938  67.8539231
  89.1054966  53.1408254  67.9634077  88.9695122  51.9237884  66.9583608
  87.8084211  52.2324203  67.9897574  88.9870500  49.2506413  71.0837376
  87.8211867  49.2995221  71.4659411  90.0081261  49.5633285  71.8674112
  90.8352134  49.5307694  71.6355222  89.7632578  49.9996277  73.2279546
  88.8079554  50.1020758  73.3640449  90.2693175  48.9470174  74.2089134
  91.2358568  48.9976865  74.2732273  89.9168617  49.1283980  75.0944438
  89.8562469  47.5471725  73.7680744  89.0620499  47.6122239  73.2152956
  90.5577955  47.1709807  73.2137159  89.5813665  46.6101228  74.9136156
  90.1741713  46.7966000  75.9962618  88.7772489  45.6746660  74.7190405
  90.4024630  51.3534554  73.4767766  91.4561113  51.6789039  72.9215662
  89.7326895  52.1512765  74.2953473  88.9951242  51.9309213  74.6784387
  90.1943267  53.4899075  74.6213293  90.9966474  53.6795800  74.1104282
  89.1137601  54.5368665  74.2672635  88.3354597  54.4039505  74.8311809
  89.6525097  55.9461173  74.5192420  88.9705469  56.5984359  74.2951145
  89.8931641  56.0377773  75.4544473  90.4363420  56.0961343  73.9676516
  88.6890762  54.3665651  72.8076694  89.4241633  54.6325856  72.2332732
  88.5214987  53.4266951  72.6367216  87.4513225  55.1658656  72.4268931
  87.2409108  55.0111387  71.4930839  86.7030956  54.8859810  72.9776644
  87.6198589  56.1104806  72.5672211  90.4770423  53.5620524  76.1096340
  89.6104687  53.2689436  76.9297995  91.7023498  53.9379772  76.4540120
  92.3242898  54.1291009  75.8906256  92.0951441  54.0584821  77.8519509
  91.3151682  54.1418737  78.4219680  92.8544525  52.8045872  78.2911915
  92.2638334  52.0378794  78.2231835  93.5901313  52.6507289  77.6785927
  93.3933785  52.8833744  79.6938392  94.6670263  53.3925862  79.9386995
  95.1941713  53.6686450  79.2244988  95.1616141  53.4944821  81.2305405
  96.0134761  53.8359092  81.3789074  94.3820692  53.0859445  82.2987407
  94.8756452  53.1923897  83.5773423  94.4426508  52.6856634  84.0882350
  93.1075073  52.5716014  82.0854213  92.5853832  52.2952156  82.8035824
  92.6217438  52.4746360  80.7800223  91.7695870  52.1315785  80.6331572
  92.9623457  55.3026533  77.9905273  93.9944232  55.4204941  77.3308815
  92.5233952  56.2404375  78.8272389  91.8037738  56.1740671  79.2924625
  93.2595742  57.4886347  79.0183783  92.7564935  58.0605379  79.6190784
  94.6299715  57.2075012  79.6381476  94.7438433  56.2500799  79.7424675
  95.3238565  57.5113015  79.0327502  94.8077594  57.8791680  80.9769442
  94.7224381  59.1057161  81.0871719  95.0580218  57.0810317  82.0108160
  95.1677897  57.4157211  82.7959434  95.1101861  56.2306290  81.8949060
  93.4362536  58.1933720  77.6705983  94.4892955  58.7651187  77.3879936
  92.3940664  58.1403110  76.8470053  91.6587971  57.7412590  77.0465315
  92.3855010  58.7529885  75.5174013  91.5189597  58.5098453  75.1558801
  92.5246923  60.2795883  75.6079043  93.2510829  60.4969396  76.2129035
  92.7677034  60.6279478  74.7359488  91.2588333  60.9725402  76.0837148
  91.0886568  60.7262338  77.0068492  91.3959550  61.9329475  76.0672095
  90.0327251  60.6259212  75.2382634  89.8338974  61.2289694  74.1591799
  89.2697302  59.7381393  75.6575630  93.4103996  58.2061734  74.5349675
  93.7401500  58.8589011  73.5443434  93.9180251  57.0111715  74.8135957
  93.7269859  56.5614789  75.5211476  94.8611091  56.3547661  73.9205338
  95.1688320  56.9563233  73.2242978  96.1066047  55.9076648  74.6852005
  95.8465820  55.2950175  75.3907482  96.6914120  55.4186207  74.0859549
  96.8740087  57.0788647  75.2929865  96.9720711  57.7758778  74.6252579
  96.3554139  57.4552116  76.0219443  98.2472195  56.6883963  75.8092573
  99.0973119  56.2853207  74.9878445  98.4804030  56.7864760  77.0329794
  94.1209489  55.1637487  73.3172251  93.2253025  54.6020835  73.9513281
  94.4840653  54.7883035  72.0925792  95.1172480  55.1614539  71.6451148
  93.8229615  53.6901644  71.3951976  93.0180765  53.4919223  71.8982892
  93.4959241  54.1158445  69.9625326  94.3304257  54.2235405  69.4808246
  93.0118163  53.3922161  69.5340228  92.6804736  55.3985578  69.7986020
  93.1226155  56.1304771  70.2565077  92.5752801  55.7513834  68.3137497
  92.0574848  56.5654550  68.2102289  93.4636933  55.8852200  67.9489185
  92.1371731  55.0276341  67.8395353  91.3027748  55.2132815  70.4163986
  90.7884250  56.0288244  70.3111563  90.8445738  54.4828283  69.9729135
  91.3958974  55.0108953  71.3603329  94.6511129  52.4170412  71.3476200
  95.8444303  52.4478247  71.0419794  94.0067241  51.2932155  71.6404882
  93.1755587  51.2571490  71.8590022  94.6808359  50.0031140  71.6128234
  95.5464964  50.1310881  71.1945418  94.8779137  49.4737057  73.0365460
  94.0110646  49.2649734  73.4188594  95.3787157  48.6441545  72.9987281
  95.5913598  50.4334067  73.9381854  94.8891730  51.4278163  74.6095543
  93.9643760  51.4730669  74.5237237  95.5486743  52.3525853  75.4047431
  95.0683604  53.0139107  75.8486206  96.9307668  52.2872146  75.5358729
  97.3777546  52.9059957  76.0676791  97.6453209  51.2964022  74.8708374
  98.5701179  51.2511516  74.9566680  96.9731088  50.3739374  74.0783183
  97.4518662  49.7100765  73.6367098  93.8910758  48.9870078  70.7954494
  92.6606139  49.0243531  70.7515649  94.6172181  48.0835235  70.1469223
  95.4762166  48.0639922  70.1718425  94.0287139  47.0303767  69.3248531
  93.0938438  47.2161383  69.1432039  94.7744407  46.9372589  67.9937248
  94.7458072  47.7996823  67.5512883  95.7080831  46.7368110  68.1638499
  94.1996318  45.8851178  67.0715535  93.4403662  45.0115602  67.5476489
  94.5245580  45.9301540  65.8643983  94.1887572  45.7221910  70.0895945
  95.2944279  45.1909668  70.1940898  93.0898082  45.1970650  70.6175705
  92.3025800  45.5351073  70.5403361  93.1569395  43.9683583  71.3897591
  94.0387085  43.9584045  71.7931377  92.0686808  43.9787459  72.4705904
  91.2514626  44.3252395  72.0803333  91.8899040  43.0629164  72.7357454
  92.3909996  44.7969011  73.7324325  91.5988109  44.8294957  74.2915173
  93.5324609  44.1291954  74.4802301  93.7402580  44.6412923  75.2774347
  93.2713979  43.2297659  74.7323840  94.3151305  44.0898086  73.9079069
  92.7790695  46.2324538  73.3754013  92.9773856  46.7256527  74.1868528
  93.5633284  46.2235286  72.8038313  92.0443836  46.6597854  72.9086483
  93.1023339  42.6779513  70.5714188  93.1618139  41.5838744  71.1366647
  93.0085796  42.7963135  69.2471312  92.9625021  43.5455614  68.8275642
  92.9777418  41.6107226  68.3934262  92.9585730  40.8532057  68.9983052
  91.7272875  41.5972227  67.5086308  91.6862161  42.4402287  67.0293532
  91.8335959  40.8983792  66.8447096  90.3859830  41.3836850  68.2180939
  90.1845479  42.1607492  68.7631353  89.2896367  41.1945348  67.1761880
  88.4388787  41.0593525  67.6221996  89.2378116  41.9832632  66.6138965
  89.4938901  40.4209112  66.6281103  90.4595583  40.1656730  69.1203598
  89.6062279  40.0396501  69.5638239  90.6663207  39.3807344  68.5891247
  91.1534083  40.2968699  69.7852549  94.2175532  41.4723905  67.5164256
  94.2866299  40.5794439  66.6730866  95.1933247  42.3584469  67.7003931
  95.1615230  43.0103018  68.2606714  96.4284955  42.2686592  66.9264600
  96.2397148  41.9371503  66.0347125  97.0896200  43.6385498  66.7728363
  96.4420036  44.2704746  66.4234355  97.3611603  43.9640581  67.6450176
  98.2985975  43.5963483  65.8529735  99.0761729  42.6406707  65.8790667
  98.4679919  44.6340606  65.0423962  99.1412135  44.6566684  64.5078986
  97.9041234  45.2837845  65.0523969  97.3628014  41.3368181  67.6984261
  97.8384162  41.6797063  68.7807062  97.6317713  40.1447721  67.1476263
  96.9407746  39.5907292  65.9742785  97.4442451  39.7241536  65.1558475
  96.0689625  39.9931814  65.8391570  96.8433532  38.1430491  66.3479059
  96.6538680  37.5818622  65.5802454  96.1413038  37.9816893  66.9971329
  98.2058282  37.8781700  66.9151773  98.8658904  37.7556299  66.2151868
  98.2155235  37.0741335  67.4579050  98.4988965  39.1252323  67.7525904
  98.3023977  39.0423911  68.6988602  99.9920873  39.4359823  67.7711528
 100.7385626  38.8412990  68.5459829 100.4308588  40.3595446  66.9234972
  99.9284624  40.8033504  66.3850557 101.8502104  40.6902280  66.8519796
 102.2959144  40.0143797  67.3870768 102.3147866  40.6547433  65.3937064
 103.2627301  40.8543430  65.3476940 102.1944763  39.7617568  65.0338864
 101.5925162  41.5866897  64.6082140 100.9527828  41.8947286  65.0561016
 102.2405995  42.0261583  67.4733553 103.4121003  42.4047638  67.4404964
 101.2752399  42.7381307  68.0434650 100.4519934  42.4945508  68.0888533
 101.5698352  44.0299674  68.6521010 102.4660438  44.2715282  68.3711252
 100.5688014  45.0864756  68.1755186 100.8554671  45.9641868  68.4741703
 100.5545655  45.1074828  67.2059800  99.2671929  44.8189868  68.6650601
  98.7697132  45.4784173  68.5141748 101.5551805  43.9734498  70.1747411
 100.7990594  43.2113727  70.7744821 102.4056579  44.7893445  70.7880054
 102.9443736  45.3157074  70.3724617 102.5009377  44.8643544  72.2399563
 102.5047101  43.9693458  72.6135006 103.7972805  45.5766314  72.6404781
 104.5535594  45.0909811  72.2763600 103.8110306  46.4614927  72.2433755
 103.9602078  45.7012435  74.1435800 103.1550876  45.1058956  74.8894080
 104.9032124  46.3946424  74.5794254 101.3032103  45.6463994  72.7725956
 100.8523599  46.6020776  72.1434039 100.7898408  45.2358964  73.9268815
 101.0897682  44.5656074  74.3747991  99.6497022  45.9079173  74.5365027
  98.9056901  45.8612565  73.9149137  99.2355763  45.2156952  75.8565779
  99.9855245  45.2377117  76.4718884  98.0666250  45.9490070  76.4911240
  97.8162477  45.5056536  77.3171022  98.3234995  46.8645737  76.6811873
  97.3125962  45.9452173  75.8814821  98.8590620  43.7663123  75.5842251
  98.6008376  43.3375742  76.4145412  98.1163859  43.7361073  74.9607865
  99.6202303  43.3003587  75.2031621  99.9992532  47.3656226  74.8212538
  99.1232129  48.1915020  75.0744151 101.2896544  47.6748808  74.7730769
 101.9103680  47.1072683  74.5950186 101.7690258  49.0243628  75.0224250
 101.2144295  49.4174829  75.7145785 103.2263660  48.9771693  75.4863931
 103.2880580  48.4759943  76.3141966 103.7617030  48.5066231  74.8289279
 103.7482866  50.2785081  75.6798413 104.5470123  50.2250259  75.9344211
 101.6588121  49.8930724  73.7703656 101.6390637  51.1198979  73.8558118
 101.5780968  49.2470951  72.6123672 101.5722516  48.3901262  72.5431989
 101.4902859  49.9507826  71.3367104 102.1989324  50.6129950  71.3204378
 101.6681488  48.9552293  70.1889089 102.4290756  48.3865170  70.3834617
 100.8874118  48.3810322  70.1500700 101.8721814  49.5967735  68.8285024
 101.8465852  48.9105473  68.1437248 101.1383472  50.2048573  68.6480516
 103.1831925  50.3527640  68.7299822 103.3460021  51.3625576  69.4460437
 104.0545448  49.9360365  67.9365452 100.1671632  50.6966006  71.1721140
  99.0939138  50.1019948  71.2681120 100.2529175  51.9987408  70.9138774
 100.9964779  52.4232368  70.8374969  99.0643463  52.8317916  70.7358891
  98.3155525  52.3789766  71.1534097  99.2657126  54.2026423  71.3886967
  99.5431978  54.8306724  70.7039441  98.4103591  54.5100811  71.7263410
 100.2796294  54.2524212  72.5281425 101.0469908  53.7085630  72.2921261
 100.5970107  55.1635959  72.6287595  99.7220470  53.7716699  73.8591865
  98.8684687  54.1990001  74.0310089  99.5585700  52.8165669  73.8216709
 100.6548008  54.0722448  74.9459928 101.4379339  54.3535707  74.7306040
 100.3828600  53.9428575  76.2411163  99.1943718  53.5138032  76.6400577
  98.5909928  53.3167803  76.0593048  99.0257459  53.4329715  77.4794441
 101.3008966  54.2534875  77.1461638 102.0728975  54.5384876  76.8959529
 101.1243867  54.1699284  77.9837049  98.7884941  53.0412324  69.2469868
  99.7116982  53.0510679  68.4333914  97.5186048  53.2220454  68.8982966
  96.8634615  53.2185908  69.4551398  97.1285918  53.4464981  67.5091588
  97.8534351  53.1455885  66.9385543  95.8601968  52.6622121  67.1791184
  95.1477572  52.9874994  67.7506559  95.6074756  52.8682784  66.2651131
  95.9248939  51.1428174  67.3215931  96.2063335  50.9059507  68.2191185
  94.5448667  50.5605086  67.0697158  94.5792191  49.5958978  67.1586088
  93.9181129  50.9217816  67.7151246  94.2540314  50.7917262  66.1735354
  96.9397851  50.5759994  66.3421146  96.9773591  49.6113532  66.4362630
  96.6765738  50.8022788  65.4360078  97.8144696  50.9528610  66.5281050
  96.8649807  54.9280748  67.2725881  96.5563139  55.6650709  68.2065637
  96.9767760  55.3592207  66.0205829  97.1955780  54.8615855  65.3541341
  96.7271206  56.7549350  65.6822139  96.6604191  57.2597310  66.5081624
  97.8839040  57.3200677  64.8534278  98.0128097  56.7638556  64.0691088
  97.6439744  58.2049408  64.5370509  99.1971805  57.4066148  65.6214307
  99.5199733  56.5104524  65.8053077  99.8639046  57.8391546  65.0658974
  99.0647043  58.1701039  66.9324077  98.6299203  59.3238061  66.9542032
  99.4430103  57.5267780  68.0336335  99.7414628  56.7218604  67.9801670
  99.3887688  57.9161529  68.7986499  95.4151433  56.8980707  64.9214314
  95.0813983  56.0747634  64.0726109  94.6791791  57.9571131  65.2394752
  94.9197809  58.5406062  65.8229686  93.3862108  58.2369519  64.6295069
  93.1056354  57.4704243  64.1058172  92.3611542  58.5091529  65.7399566
  92.2877052  57.7136971  66.2903259  92.7059685  59.2163018  66.3083512
  90.9683532  58.9020638  65.2777623  91.0214573  59.7148096  64.7508266
  90.6148965  58.2107426  64.6968860  89.8248494  59.1606768  66.6791667
  90.4261003  60.6650320  67.3077069  89.8970049  60.9287277  68.0767827
  91.3527749  60.5574605  67.5746330  90.3652025  61.3491954  66.6227865
  93.4809136  59.4371020  63.6909446  94.1285039  60.4338994  64.0132793
  92.8427502  59.3308431  62.5279951  92.3991384  58.6346064  62.2870055
  92.8449426  60.4127508  61.5454491  93.1095838  61.2213804  62.0104998
  93.8315387  60.1282200  60.4067369  93.4851723  59.4010762  59.8669395
  93.8807051  60.9089116  59.8329075  95.2157227  59.7742191  60.8628686
  95.5361747  58.4642724  61.2076994  94.8834023  57.8039662  61.1590996
  96.8202174  58.1315977  61.6233723  97.0233501  57.2524515  61.8495095
  97.8009720  59.1140709  61.6999016  98.6602071  58.8935270  61.9781040
  97.4940593  60.4292923  61.3587943  98.1468765  61.0892123  61.4083154
  96.2040778  60.7520496  60.9425090  96.0005158  61.6307242  60.7151095
  91.4577583  60.5755418  60.9344116  90.6682868  59.6333442  60.9045365
  91.1648652  61.7722253  60.4387301  91.6919070  62.4508333  60.4598729
  89.8773667  62.0130434  59.8034543  89.1556647  61.6589488  60.3467896
  89.6338875  63.5137356  59.6368715  90.3382154  63.8933823  59.0898975
  88.7999030  63.6521935  59.1613032  89.5809468  64.2455184  60.9643353
  88.7525233  63.8702768  61.8220213  90.3668619  65.1989482  61.1488785
  89.9197822  61.3324447  58.4382623  90.9710190  61.2830264  57.7965699
  88.7862314  60.7928156  58.0034266  88.0452322  60.8080776  58.4398728
  88.7195593  60.1156625  56.7144516  89.5538213  59.6430427  56.5669135
  87.5704797  59.1065618  56.7011574  87.5743072  58.6056741  57.5318962
  86.7264356  59.5825368  56.6606316  87.6592656  58.1439640  55.5356860
  88.0161004  58.5898844  54.4277411  87.3621661  56.9456777  55.7240043
  88.5075068  61.1439162  55.6069521  87.4889030  61.8329132  55.5763022
  89.4746957  61.2610320  54.6820631  90.7638569  60.5475513  54.6686653
  90.6797786  59.6544559  54.3005247  91.1355286  60.4534684  55.5597908
  91.6143965  61.4404343  53.7946308  92.3701449  60.9642624  53.4160601
  91.9721769  62.1953396  54.2868991  90.6377724  61.8675601  52.7447570
  90.4624858  61.1595081  52.1047836  90.9598974  62.6317630  52.2419117
  89.3977114  62.2099279  53.5662020  89.3741747  63.1298655  53.8737663
  88.1136006  62.1024699  52.7445979  87.6043255  63.1044498  52.2407725
  87.5961313  60.8851751  52.6133010  87.9375246  60.1780446  52.9634368
  86.3784269  60.6486449  51.8450689  86.2314006  61.4276642  51.2855090
  86.5558374  59.4033095  50.9713835  85.6968962  59.1623996  50.5898061
  87.1439171  59.6202584  50.2316096  87.1197866  58.2011003  51.7120612
  87.9319019  58.4587999  52.1745919  86.4871707  57.9128043  52.3882732
  87.4178539  57.0439811  50.7707164  87.7849774  56.3025740  51.2778109
  86.5899842  56.7318867  50.3718960  88.3537026  57.4195715  49.7147485
  88.5909947  58.2443547  49.6625643  88.8628817  56.5700047  48.8291121
  88.5282599  55.2868156  48.8686096  87.9806873  55.0037628  49.4679897
  88.8588812  54.7383786  48.2948193  89.7022627  57.0014750  47.8967785
  89.9181761  57.8335664  47.8649791  90.0309430  56.4496445  47.3249163
  85.1414094  60.5038793  52.7302466  84.1226138  59.9561191  52.3037866
  85.2405634  61.0013055  53.9596634  85.9511295  61.3812764  54.2613106
  84.1412449  60.9492662  54.9226026  83.3038684  61.0455649  54.4425503
  84.1669661  59.6122193  55.6709247  85.0606175  59.4552714  56.0142736
  83.5734467  59.6616629  56.4358071  83.7569862  58.4441178  54.7930657
  84.5557264  57.5492509  54.5190854  82.5060388  58.4502430  54.3463430
  82.2257656  57.8116036  53.8436893  81.9770306  59.0944668  54.5596550
  84.2851121  62.0858856  55.9304574  85.1165037  62.0248808  56.8358807
  83.4651565  63.1191904  55.7685595  82.8720985  63.1646537  55.1467707
  83.5011019  64.2848167  56.6462088  84.3819612  64.6750106  56.5335738
  82.4060303  65.2732602  56.2357556  82.4277114  66.0319842  56.8393191
  82.6061575  65.6108453  55.3483445  80.9997441  64.6892412  56.2319117
  80.9974777  63.8589157  55.7308923  80.7380569  64.4733075  57.1407535
  79.9801108  65.6521212  55.6247237  80.2400737  65.8613246  54.7142298
  79.1145119  65.2163463  55.5796612  79.8528727  66.9457848  56.4228835
  79.0983411  67.4537884  56.0864308  79.6600027  66.7308725  57.3483433
  81.0798599  67.7937232  56.3637404  80.8464663  68.6507012  56.3067033
  81.5640947  67.6665129  57.0998268  81.5621134  67.5700163  55.6495256
  83.3786290  63.9632721  58.1389681  84.1039205  64.5280669  58.9591414
  82.4652443  63.0638791  58.4901642  81.9492794  62.6561605  57.9362266
  82.2707149  62.6951545  59.8895860  82.7644050  63.3362169  60.4241195
  80.7844180  62.7524932  60.2540185  80.6823271  62.5037005  61.1858235
  80.4785134  63.6689721  60.1700966  79.8910270  61.8589075  59.4094719
  79.8956674  62.1664249  58.4896591  80.2404343  60.9547591  59.4074433
  78.4644534  61.8579721  59.9441138  77.8955393  61.3527710  59.3432023
  78.4422385  61.4067751  60.8023775  77.9333652  63.2106224  60.0930712
  77.7463465  63.4825146  60.8869324  77.7192516  64.0490974  59.0841202
  77.9888011  63.6783217  57.8388482  78.3029641  62.8933538  57.6822692
  77.8490158  64.2232737  57.1884088  77.2396945  65.2632038  59.3211917
  77.0676871  65.5070847  60.1275443  77.1009396  65.8061484  58.6687753
  82.8172629  61.3068726  60.1970915  82.3899924  60.6553420  61.1538866
  83.7628571  60.8559699  59.3824600  84.0750427  61.2895651  58.7078539
  84.3492473  59.5458942  59.5949055  83.8665751  59.0839397  60.2984783
  84.2547086  59.0132972  58.7890247  85.8139732  59.6460432  59.9672405
  86.4633008  60.6591267  59.7069417  86.3368874  58.5964572  60.5872065
  85.8978530  57.8859763  60.7904669  87.7375411  58.5767001  60.9786013
  88.1628608  59.3310433  60.5425814  87.9083968  58.7193499  62.5095021
  88.8523861  58.6772599  62.7270584  87.3676136  60.0607806  62.9733375
  87.4790001  60.1408646  63.9338570  87.8521392  60.7755638  62.5319636
  86.4253968  60.1246418  62.7517969  87.1992753  57.5845072  63.2198680
  87.3114152  57.6826300  64.1781443  86.2542116  57.6064183  63.0015024
  87.5775264  56.7380561  62.9345391  88.3902820  57.2764980  60.5428847
  87.7120550  56.2956282  60.2384861  89.7164846  57.2837200  60.5074503
  90.1950292  57.9719139  60.6999528  90.4865413  56.1090780  60.1338598
  89.8760048  55.3753769  59.9612628  91.3141326  56.3559161  58.8522613
  91.8272171  57.1724076  58.9557652  92.2865050  55.2037600  58.6280421
  92.8012482  55.3666438  57.8224979  92.8866203  55.1347623  59.3861515
  91.7901708  54.3756751  58.5318881  90.3786640  56.5180650  57.6513133
  89.8686330  55.7007813  57.5375601  89.7423797  57.2252065  57.8419495
  91.0941596  56.8376961  56.3481571  90.4428802  56.9260293  55.6342899
  91.5839050  57.6693123  56.4428557  91.7124511  56.1212123  56.1338569
  91.4399102  55.7922472  61.2756041  92.2014916  56.6545279  61.7140089
  91.3761280  54.5612870  61.7699248  90.8293191  53.9583244  61.4927370
  92.2533475  54.1312218  62.8483661  92.5712628  54.9109143  63.3290859
  91.5181692  53.2244729  63.8618479  91.2512664  52.4034340  63.4188401
  92.4497608  52.8852705  65.0169811  91.9854351  52.3167928  65.6511261
  93.2307403  52.4205956  64.6778214  92.7272803  53.7026665  65.4601162
  90.2619488  53.9290676  64.3854867  89.6568549  54.0848586  63.6433820
  89.8050000  53.3387438  65.0046875  90.5391522  55.2458591  65.0770672
  89.7036737  55.6344944  65.3815738  91.1216693  55.0951890  65.8376126
  90.9704513  55.8533059  64.4554383  93.3937436  53.3412092  62.2185742
  93.2557118  52.1524792  61.9277524  94.5184817  54.0152468  62.0024992
  94.6286054  54.8441783  62.2035421  95.6796282  53.3830165  61.3922559
  95.3967357  53.0647888  60.5204228  96.8177387  54.3998040  61.2519220
  96.5129777  55.1392222  60.7029709  97.0253398  54.7619860  62.1273921
  98.0865343  53.8238470  60.6426665  98.3819634  53.0618007  61.1652190
  97.8998364  53.4994163  59.7483580  99.1939712  54.8637368  60.5873173
  98.9171176  55.6055869  60.0271740  99.3505020  55.2216398  61.4754173
 100.4789691  54.2659330  60.0440936 101.1699582  54.9463273  60.0254479
 100.7876116  53.5646949  60.6392531 100.2904488  53.7107652  58.6765082
 100.9610534  53.9734881  58.1537950 100.2766395  52.8223056  58.7160914
  99.5200216  54.0044435  58.3399833  96.1815734  52.1797063  62.1821607
  96.4521980  52.2810007  63.3761032  96.2977246  51.0406450  61.5090497
  96.0925868  50.9398110  60.6800678  96.7995451  49.8479988  62.1666697
  97.2973002  49.3322835  61.5127197  97.4302588  50.1252181  62.8491787
  95.7822868  48.9277018  62.8137277  96.1210022  47.7979457  63.1626577
  94.5472031  49.3891967  62.9836976  94.2825505  50.1730599  62.7499146
  93.5275939  48.5541596  63.6036587  93.8398908  48.2874449  64.4828287
  92.2162210  49.3269879  63.7743508  92.3971692  50.1476968  64.2593907
  91.8874061  49.5821980  62.8987593  91.1168004  48.5510309  64.5087090
  90.9150220  47.7375697  64.0201229  91.5976932  48.1804680  65.9048964
  90.9006435  47.6898143  66.3680764  92.3916052  47.6276411  65.8374938
  91.8072512  48.9877416  66.4002788  89.8530047  49.3962640  64.5902161
  89.1608977  48.9003159  65.0552779  90.0429306  50.2164107  65.0724128
  89.5486790  49.6112372  63.6943945  93.2911875  47.3186440  62.7466218
  92.8999486  47.4216515  61.5823253  93.5257494  46.1480855  63.3244736
  93.7870818  46.0503517  64.1380303  93.3477052  44.9116542  62.5857796
  93.5986527  45.1266498  61.6738107  94.2449500  43.8122078  63.1525240
  94.0660973  43.7169244  64.1014027  94.0116447  42.9686151  62.7342454
  95.7281176  44.0682982  62.9532864  95.8624212  44.5475760  62.1208795
  96.0536494  44.6405591  63.6657866  96.5360593  42.7887339  62.9300414
  96.4469502  42.0084074  63.8999699  97.2625986  42.5620826  61.9389553
  91.9185665  44.4079919  62.5374995  91.1653177  44.5164225  63.5042037
  91.5521274  43.8720232  61.3809053  92.0635969  43.8298156  60.6903429
  90.2329885  43.3006534  61.1794954  89.6531837  43.4735657  61.9379443
  89.5539593  43.9111931  59.9543315  90.1511417  43.8338735  59.1938659
  88.7598176  43.3941211  59.7458045  89.1611628  45.3664368  60.1232896
  88.5798975  45.4543020  60.8949997  89.9548820  45.8947568  60.3039903
  88.4580990  45.9193534  58.9001026  89.0764303  45.9260434  57.8134713
  87.2882308  46.3425085  59.0226068  90.4662353  41.8170407  60.9597330
  91.1819103  41.4205254  60.0358121  89.8834433  40.9964807  61.8250125
  89.3949429  41.2541419  62.4842994  90.0398466  39.5613450  61.7107161
  90.8564501  39.3883248  61.2163967  90.1537657  38.8937192  63.0979073
  89.3650054  39.1052849  63.6222269  90.2360681  37.3853434  62.9434869
  90.3078405  36.9736879  63.8191824  89.4376550  37.0611138  62.4979863
  91.0163066  37.1561867  62.4143782  91.3880681  39.4290422  63.8288655
  92.1683332  39.2938541  63.2685972  91.2897014  40.3860488  63.9515531
  91.6350286  38.7848856  65.1770928  92.4282468  39.1712898  65.5805302
  90.8713112  38.9406392  65.7549462  91.7638338  37.8300889  65.0614488
  88.8418040  38.9778399  60.9838450  87.6957886  39.2582701  61.3329891
  89.1041087  38.1761545  59.9598813  89.8928112  37.9768188  59.6805666
  88.0126502  37.5658695  59.2241968  87.2967227  38.2171368  59.1554086
  88.4353285  37.1645125  57.7893321  89.2181367  36.5937486  57.8441137
  87.3068742  36.4034333  57.0964308  87.5848818  36.1584213  56.1997860
  87.1000278  35.6010804  57.6004690  86.5184295  36.9673158  57.0477219
  88.7410540  38.3405899  57.0312136  89.2870061  38.8147710  57.4574268
  87.5505196  36.3235339  59.9675740  88.3556293  35.4671432  60.3346085
  86.2514075  36.2472494  60.2136988  85.6851715  36.8575558  59.9999773
  85.6695538  35.0955916  60.8815186  86.3115975  34.6190763  61.4298461
  84.5261040  35.5130131  61.8187314  83.7719540  35.8203018  61.2917470
  84.0799197  34.3216774  62.6445812  83.3585343  34.5888702  63.2345304
  83.7705233  33.6165281  62.0546792  84.8256636  33.9965351  63.1731731
  84.9787113  36.6624561  62.7160009  84.2513422  36.9201177  63.3044164
  85.7390983  36.3787044  63.2471219  85.2338145  37.4202327  62.1670492
  85.1067627  34.2794467  59.7244764  84.0671634  34.6264392  59.1672391
  85.8056288  33.2093433  59.3558423  86.5246266  32.9458691  59.7476912
  85.3936983  32.3806470  58.2274454  85.1361911  33.0152195  57.5399827
  86.5569744  31.4989805  57.7643450  86.8012998  30.8943127  58.4823519
  86.2612939  30.9514099  57.0205833  87.7665313  32.2751443  57.3481675
  88.7538830  32.6462880  58.2339660  89.6658264  33.3616680  57.5994712
  90.4307006  33.7280664  57.9796194  89.3060664  33.4675075  56.3338876
  89.8177612  33.9622700  55.6176924  88.1223513  32.7948249  56.1496279
  87.6532747  32.7117455  55.3506968  84.1699833  31.5187173  58.4618269
  83.4429357  31.2030804  57.5182549  83.9435325  31.1343355  59.7107931
  84.4428930  31.3460799  60.3776705  82.7992996  30.3024667  60.0526825
  82.0106979  30.6384239  59.5980044  83.0533801  28.8626366  59.5995320
  82.3077875  28.3045130  59.8707214  83.0912205  28.8333848  58.6302697
  84.3377566  28.2928065  60.1686689  84.4455156  28.0619156  61.3702081
  85.3233939  28.0702071  59.3034391  86.0733684  27.7518352  59.5785074
  85.2108133  28.2446981  58.4692374  82.5505328  30.3518947  61.5551465
  83.3774067  30.8579474  62.3088488  81.4081687  29.8235279  61.9818475
  80.8244085  29.4619027  61.4646413  81.0455777  29.8159292  63.3953902
  80.9733067  30.7438510  63.6674268  79.7132254  29.0865344  63.5918453
  79.4151460  29.2110835  64.5062616  79.0434778  29.4901896  63.0175774
  79.7907029  27.5947276  63.2926486  79.8394433  27.4600474  62.3329290
  80.6059693  27.2314457  63.6716210  78.5932414  26.8389514  63.8492043
  78.4705183  27.0629806  64.7848549  77.7874551  27.1134690  63.3837158
  78.7855314  25.3367773  63.7018023  78.8547949  25.1123759  62.7599129
  79.6229200  25.0784933  64.1172031  77.6730293  24.5611884  64.3121292
  77.8234494  23.6902542  64.2045406  77.6227821  24.7478668  65.1808383
  76.9064527  24.7797615  63.9167964  82.1028023  29.1482869  64.2732193
  82.2736401  29.5124085  65.4345822  82.8137771  28.1713653  63.7151241
  82.7230519  27.9174389  62.8988887  83.8277676  27.4380955  64.4666011
  83.4441963  27.3096147  65.3485675  84.1124752  26.1033876  63.7759947
  84.4015901  26.2682409  62.8650276  84.8449330  25.6567413  64.2293319
  82.8990289  25.1910613  63.7618994  82.3045798  24.9874689  64.8418880
  82.5386409  24.6772756  62.6805203  85.1389614  28.1831308  64.7151514
  86.0665453  27.6366906  65.3168766  85.2134832  29.4272878  64.2605737
  84.5781290  29.8213804  63.8358373  86.4073326  30.2422610  64.4508062
  87.1129798  29.6505680  64.7567235  86.8128547  30.9156323  63.1438698
  86.0371437  30.9578220  62.5632412  87.0738466  31.8303149  63.3344475
  87.9351262  30.2400738  62.3990441  88.5460843  29.8304384  63.0311914
  87.5775492  29.5273336  61.8473783  88.6858026  31.2262023  61.5320536
  88.0657059  31.7955592  60.6080391  89.8929273  31.4438239  61.7849029
  86.1589127  31.3344617  65.4819159  87.0929940  31.9739833  65.9607335
  84.8900518  31.5381860  65.8135624  84.2352548  31.0768822  65.5011560
  84.4903023  32.5817412  66.7534910  84.8242079  33.3862252  66.3266566
  82.9517925  32.5912045  66.9364965  82.6594433  31.7020166  67.1922950
  82.5592587  33.5691387  68.0363401  81.5953212  33.5674061  68.1422009
  82.9763244  33.3025730  68.8703161  82.8561249  34.4611119  67.7977707
  82.2777793  32.9794862  65.6255120  81.3157530  32.9843447  65.7448970
  82.5735330  33.8633863  65.3586479  82.5141417  32.3381837  64.9370558
  85.1309915  32.5639170  68.1378225  85.7562938  33.5419943  68.5499948
  84.9858999  31.4581515  68.8546495  84.5920001  30.7455208  68.5783192
  85.5067702  31.3848918  70.2085451  85.0787828  32.1193888  70.6762104
  85.1422064  30.0433548  70.8480626  84.2287275  29.8155015  70.6124584
  85.7115194  29.3494894  70.4795596  85.2791187  30.0516080  72.3535791
  84.5529366  30.9522228  73.1354957  83.9734620  31.5510180  72.7222191
  84.6797163  30.9702716  74.5251313  84.1900388  31.5761119  75.0341219
  85.5421601  30.0771550  75.1399056  85.6690745  30.0783484  76.5072729
  86.2213376  29.4885757  76.7378801  86.2740762  29.1771789  74.3851131
  86.8542563  28.5813817  74.8017830  86.1390764  29.1671478  72.9992385
  86.6316806  28.5596418  72.4970050  87.0027637  31.6395884  70.3532589
  87.4126662  32.4212903  71.2091537  87.8193045  30.9952242  69.5256708
  87.5641986  30.4520571  68.9098596  89.2641246  31.1861987  69.6244524
  89.5232826  30.9369486  70.5254682  89.9983899  30.2954629  68.6237755
  89.5963154  29.4128186  68.6260714  89.8841976  30.6570239  67.7313138
  91.4843852  30.1697163  68.9275116  91.9005139  31.0434005  68.8556513
  91.5989227  29.8750850  69.8447583  92.1897903  29.2057613  68.0028283
  91.6685555  28.1349963  67.6889258  93.3908565  29.5728281  67.5696911
  93.7219552  30.3287706  67.8107921  93.8364898  29.0545136  67.0485211
  89.6577832  32.6434920  69.3999998  90.5739558  33.1524756  70.0485586
  88.9661676  33.3104037  68.4812862  88.3321467  32.9686710  68.0117681
  89.2439752  34.7131626  68.1961911  90.1785601  34.8029418  67.9517473
  88.3906839  35.2263156  67.0048876  87.4649578  34.9748782  67.1474828
  88.4709489  36.7491353  66.9132384  87.9347455  37.0566644  66.1662693
  88.1360532  37.1403255  67.7349988  89.3940802  37.0177735  66.7801511
  88.8885489  34.5905545  65.7025473  89.7940554  34.8930419  65.5334933
  88.9284822  33.6286371  65.8194331  88.0314338  34.9016628  64.4842557
  88.4086070  34.4668613  63.7040244  87.1292687  34.5760352  64.6315068
  88.0088324  35.8607175  64.3403624  88.9412886  35.5388946  69.4427690
  89.7327967  36.3997091  69.8335162  87.8016695  35.2642706  70.0755674
  87.2394434  34.6670542  69.8189050  87.4163049  35.9792868  71.2862655
  87.4426087  36.9288996  71.0904479  85.9938265  35.5898728  71.7056091
  85.9746898  34.6334704  71.8634987  85.7969258  36.0214536  72.5516996
  84.8710342  35.9376012  70.7153079  85.0388821  35.4832861  69.8741249
  83.5297065  35.4750731  71.2769747  82.8232730  35.6955997  70.6505142
  83.5500083  34.5157149  71.4154256  83.3622920  35.9192765  72.1225808
  84.8404744  37.4413448  70.4593269  84.1293117  37.6484017  69.8339621
  84.6827088  37.9086410  71.2946073  85.6907693  37.7235095  70.0868948
  88.3976174  35.7013651  72.4364495  88.7601733  36.6157372  73.1820270
  88.8354596  34.4501561  72.5744290  88.5998554  33.7966153  72.0676972
  89.7817215  34.0900673  73.6365163  89.3441004  34.3114304  74.4734848
  90.1230655  32.5953071  73.5956834  90.4702699  32.3853304  72.7147016
  90.8374597  32.4276203  74.2297977  88.9883810  31.6490566  73.8978407
  88.5975041  31.8734497  74.7565991  88.2902343  31.7542963  73.2324155
  89.4632815  30.2056898  73.9143869  89.6587359  29.6355108  72.8203177
  89.6619176  29.6481954  75.0169185  91.0870875  34.8672193  73.5145797
  91.6839616  35.2506995  74.5222310  91.5436581  35.0834029  72.2826800
  91.1506918  34.8173321  71.5650590  92.7894355  35.8138978  72.0637623
  93.4863822  35.3662939  72.5683543  93.1687165  35.8020950  70.5804914
  92.4020023  36.0822168  70.0568397  93.8688509  36.4562216  70.4299088
  93.6445689  34.4401495  70.0743105  94.3680123  34.1192165  70.6350579
  92.9222596  33.7960368  70.1455080  94.1170256  34.5202552  68.6272076
  93.3845904  34.8129284  68.0626485  94.8172723  35.1866474  68.5512275
  94.6358214  33.1783853  68.1306100  93.9366125  32.5113915  68.2127998
  94.8542817  33.2454592  67.1875161  95.8418111  32.7304087  68.8892337
  96.2353715  32.0614144  68.4539592  96.4118982  33.4088283  68.9679010
  95.5970763  32.4530810  69.6987911  92.6819412  37.2478228  72.5659188
  93.6075165  37.7707372  73.1981521  91.5524007  37.8863434  72.2828858
  90.8992297  37.5520991  71.8337195  91.3531374  39.2483773  72.7409163
  92.0717736  39.8142842  72.4189453  90.5275536  39.6029111  72.3750595
  91.3057305  39.2853763  74.2587664  91.8419983  40.1998474  74.8873945
  90.6643642  38.2845984  74.8516297  90.2873600  37.6361690  74.4298974
  90.5494796  38.2119102  76.3050711  90.1357218  39.0311237  76.6197833
  89.6780516  37.0293203  76.7026578  89.6076433  36.9890977  77.6693438
  88.7933045  37.1353240  76.3190671  90.0764706  36.2085617  76.3739337
  91.9278458  38.0873018  76.9531670  92.2143350  38.7365718  77.9646894
  92.7711791  37.2442242  76.3665938  92.5793547  36.7801990  75.6679996
  94.1214189  37.0369242  76.8761076  94.0627914  36.7661990  77.8052872
  94.8167356  35.9376200  76.0775228  95.7142611  35.8051877  76.4222774
  94.3147699  35.1116566  76.1583682  94.8646013  36.1963139  75.1438230
  94.9280199  38.3305016  76.7973833  95.6746086  38.6669244  77.7194126
  94.7755026  39.0627230  75.7018180  94.2577607  38.8636205  75.0443908
  95.5188982  40.3042466  75.5555031  96.4540780  40.1263648  75.7404406
  95.4095708  40.8339629  74.1200432  95.4690474  40.0896615  73.5001262
  94.5372735  41.2386315  73.9945577  96.4870712  41.8538751  73.7820817
  96.3626391  42.6446002  74.3291042  97.3568000  41.4879965  74.0064447
  96.4722923  42.2507734  72.3102219  96.5784925  41.4620844  71.7551712
  95.6151726  42.6434325  72.0834476  97.5848951  43.2393340  72.0203634
  97.5166199  43.9860906  72.6352252  98.4410597  42.8137049  72.1845192
  97.5522137  43.7494765  70.6239836  98.3269816  44.1445600  70.4338974
  97.4201097  43.0712011  70.0627732  96.8904010  44.3388146  70.5385408
  95.0207077  41.3444069  76.5563236  95.8019460  42.1391348  77.0750791
  93.7235834  41.3405226  76.8468135  93.1408346  40.8050720  76.5106728
  93.2122884  42.3078925  77.8079878  93.5279614  43.1825820  77.5330373
  91.6833180  42.3259686  77.8031082  91.3456231  41.4170792  77.8281739
  91.3589995  42.7707669  78.6012404  91.1531820  43.0360852  76.5701150
  91.7993288  43.7005416  76.2843006  91.0681852  42.3950284  75.8474653
  89.8173209  43.7105466  76.7930208  89.8762337  44.3045140  77.5579816
  89.5974140  44.2591571  76.0242761  88.7638357  42.7383878  77.0130719
  88.9489011  42.0450119  77.4872898  87.5321094  42.8497417  76.5292077
  87.1865953  43.8980709  75.7915446  87.7625615  44.5138683  75.6222505
  86.3867526  43.9609393  75.4823421  86.6500560  41.8995067  76.7794164
  86.8755191  41.2167408  77.2517755  85.8505978  41.9632330  76.4705548
  93.7512735  42.0528178  79.2117748  93.8922076  42.9809790  80.0053902
  94.0657806  40.7989962  79.5218113  93.9672622  40.1230414  78.9990148
  94.6239314  40.4955927  80.8349396  94.0232157  40.8457138  81.5113107
  94.7599695  38.9844125  81.0522808  95.3178613  38.6102457  80.3527168
  95.4117315  38.6950879  82.4004053  95.4905884  37.7356289  82.5229407
  96.2936631  39.0973613  82.4262872  94.8662444  39.0676220  83.1106209
  93.4574332  38.3933721  81.0165676  93.5272756  37.5687671  80.8715379
  96.0012527  41.1414642  80.9475278  96.3826690  41.6298646  82.0074734
  96.7460566  41.1413723  79.8497304  96.5058563  40.7948348  79.1007140
  98.0670626  41.7518846  79.8449502  98.5978665  41.3723995  80.5620167
  98.7930666  41.4766741  78.5220211  98.2665673  41.8394392  77.7923090
 100.1666680  42.1457819  78.5099408 100.6098238  41.9603849  77.6671580
 100.0611599  43.1047051  78.6153273 100.7027830  41.7973181  79.2397536
  98.9525896  40.0617670  78.3650390  99.0896545  39.8834201  77.5563823
  97.9039982  43.2566527  80.0408613  98.6956208  43.8946838  80.7398091
  96.8695877  43.8170031  79.4219434  96.3145849  43.3864611  78.9254613
  96.5912104  45.2469053  79.5432354  97.3803948  45.7353868  79.2602676
  95.4095153  45.6357367  78.6479237  95.2344774  46.5857969  78.7366958
  95.6223141  45.4319635  77.7239810  94.6227986  45.1360568  78.9152228
  96.2781890  45.6094805  80.9901555  96.7334842  46.6372282  81.4954593
  95.4964370  44.7598577  81.6543000  95.1779912  44.0352407  81.3171749
  95.1102679  45.0005109  83.0417270  94.7012130  45.8786013  83.0856618
  94.0950206  43.9427303  83.4986319  93.8446993  44.1106357  84.4202175
  93.3055053  43.9870759  82.9369452  94.4927758  43.0606814  83.4275374
  96.3167300  45.0056595  83.9707483  96.3587671  45.7479096  84.9506497
  97.3031982  44.1753309  83.6658485  97.3018914  43.6404405  82.9923178
  98.4986155  44.1208640  84.4933513  98.2121270  44.0084433  85.4131464
  99.3929459  42.9395004  84.0815917  99.6607545  43.0543816  83.1561389
 100.6419425  42.8902563  84.9499232 101.1955872  42.1414932  84.6785631
 101.1409664  43.7150739  84.8459470 100.3861687  42.7825718  85.8788930
  98.6597183  41.7173308  84.2322694  98.0448030  41.6871416  83.6612345
  99.3051526  45.4103408  84.3575553  99.9153128  45.8819868  85.3190300
  99.2820609  45.9886926  83.1629688  98.8260203  45.6907584  82.4969266
 100.0431428  47.2015089  82.8724246 100.8076249  47.1677429  83.4679848
 100.4475539  47.1954565  81.3903419 100.8650546  46.3380893  81.2114100
  99.6291836  47.2268856  80.8702311 101.3827574  48.2809976  80.8306589
 102.1626756  48.3463067  81.4029632 101.7994290  47.8972854  79.4197646
 102.3897894  48.5777461  79.0597968 102.2624996  47.0454298  79.4395561
 101.0122542  47.8238416  78.8585134 100.6986611  49.6365134  80.8135099
 101.3082169  50.3022237  80.4572787  99.9065244  49.5918326  80.2558747
 100.4440219  49.8823375  81.7169563  99.3506741  48.5231250  83.1963998
  99.9948702  49.4696639  83.6519582  98.0475698  48.5909601  82.9582617
  97.5755748  47.9319685  82.6702274  97.2981081  49.8261457  83.1738829
  97.9406196  50.5102989  83.4174982  96.5691912  50.1958299  81.8718830
  96.0077798  49.4525184  81.6006079  95.9809447  50.9485844  82.0402296
  97.5232901  50.5508467  80.7239116  97.9823970  51.3745944  80.9492217
  98.1989280  49.8574007  80.6597535  96.7442046  50.7527839  79.0881047
  97.2444271  49.2721985  78.3074084  96.8903226  49.2465925  77.4043274
  98.2131260  49.2341269  78.2758036  96.9084452  48.5125699  78.8085038
  96.3210496  49.7699718  84.3407960  95.5324006  48.8343992  84.4634444
  96.3700274  50.7914472  85.1910285  96.8952840  51.4658307  85.0986901
  95.5174892  50.8522519  86.3748741  95.7212905  50.0411341  86.8661164
  95.8401036  52.1021033  87.1924818  95.6259774  52.8908085  86.6695524
  95.2756912  52.1232797  87.9810021  97.2945395  52.1611275  87.6153724
  97.9423500  51.1294506  87.7971806  97.8123566  53.3707583  87.7890265
  98.6307244  53.4564019  88.0380211  97.3289826  54.0693382  87.6527818
  94.0177397  50.8148840  86.1011133  93.5092645  51.5698875  85.2733743
  93.3216754  49.9369671  86.8219505  93.6789972  49.4139122  87.4036925
  91.8731585  49.7753911  86.6944277  91.6291585  48.9332719  87.1087093
  91.1570729  50.9272991  87.4075345  90.1969522  50.8152075  87.3204152
  91.3981148  50.9260887  88.3472043  91.4218357  51.7705984  87.0079333
  91.4415799  49.7184478  85.2360182  90.4154214  50.2822381  84.8601868
  92.2155671  49.0148341  84.4236509  92.9142430  48.5832835  84.6776470
  91.9313149  48.9186299  83.0034842  92.0277686  49.8246959  82.6709454
  92.9287024  47.9685453  82.3276541  93.8314110  48.2212308  82.5774485
  92.7855978  47.0672280  82.6568550  92.8072142  47.9750862  80.8232476
  93.4145159  48.9732758  80.0670597  93.9328835  49.6168928  80.4940084
  93.2614092  49.0269962  78.6849127  93.6725905  49.7020052  78.1946140
  92.4929529  48.0684593  78.0447643  92.3360085  48.1341414  76.6808434
  91.5881378  47.8157522  76.4686952  91.8817392  47.0578599  78.7720611
  91.3696018  46.4138015  78.3391973  92.0402919  47.0148675  80.1562698
  91.6297117  46.3373795  80.6433292  90.5085165  48.5070882  82.6429276
  89.8600099  49.1779120  81.8388103  90.0200098  47.4267466  83.2460149
  90.4456203  46.9713260  83.8386782  88.6828563  46.9195793  82.9356347
  88.6708006  46.8200081  81.9707973  88.4580062  45.5839951  83.6490009
  87.6411526  45.1715925  83.3259031  89.1835310  44.9747076  83.4429462
  88.3767764  45.7787002  85.0457484  87.5855092  45.9640834  85.2574706
  87.5297008  47.8622415  83.2631729  86.4447828  47.7538724  82.6767994
  87.7452058  48.7862358  84.1914317  88.4861156  48.8959582  84.6138434
  86.6763489  49.7091391  84.5586856  85.8648726  49.3365199  84.1792818
  86.5590219  49.8078424  86.0851816  85.7502639  50.2913171  86.3174352
  86.4762867  48.9177649  86.4617450  87.6765895  50.4583988  86.6519592
  88.3317838  50.3954246  86.1302191  86.8306604  51.1014336  83.9669551
  85.8524377  51.8222948  83.8369873  88.0524970  51.4799070  83.6048846
  88.7554959  50.9885815  83.6729714  88.2830787  52.8114684  83.0447665
  87.5199251  53.3433562  83.3178910  89.5891552  53.3908111  83.5898868
  90.3065583  52.7572882  83.4305085  89.8070436  54.1971382  83.0956609
  89.5402269  53.7163872  85.0638055  88.8446349  54.3707594  85.2341194
  89.3126214  52.9214056  85.5697728  90.8814497  54.2566644  85.5268002
  91.5730959  53.6002257  85.3514702  91.1056022  55.0487689  85.0143676
  90.8698317  54.5829064  86.9481689  90.1208870  54.5324435  87.3683026
  91.9458766  54.9524019  87.6325033  93.1214353  55.0415376  87.0211396
  93.1851922  54.8598938  86.1831900  93.8185125  55.2808637  87.4631118
  91.8475910  55.2283132  88.9262768  91.0869548  55.1681900  89.3223068
  92.5447131  55.4672530  89.3691703  88.3280643  52.8492918  81.5290951
  88.1927462  53.9142830  80.9260391  88.5200627  51.6921387  80.9098347
  88.6067885  50.9363828  81.3116713  88.5999219  51.6211042  79.4586288
  89.0195778  52.4431018  79.1608724  89.4273102  50.4053951  79.0357273
  89.5833605  50.4314615  78.0784782  90.2960914  50.4334884  79.4665418
  88.7567528  49.1986585  79.3819433  88.9634533  48.9774606  80.1659366
  87.2281144  51.5148095  78.8121873  86.2592377  51.0988014  79.4468754
  87.1633792  51.9125156  77.5471528  87.8316866  52.2497108  77.1241521
  85.9485370  51.8176438  76.7448220  85.1735167  51.5951520  77.2840530
  85.6344310  53.1360272  76.0254976  86.3634237  53.3439265  75.4194345
  84.8401317  53.0152904  75.4827561  85.4212581  54.2986815  76.9422397
  84.2274726  54.5304096  77.5880589  84.3263637  55.6331152  78.3125324
  83.6542233  56.0012657  78.8392957  85.5441671  56.1218466  78.1586059
  85.8464312  56.8364728  78.5303191  86.2499677  55.3058171  77.3100267
  87.1312897  55.4222316  77.0380944  86.3389520  50.8015367  75.6876908
  87.4423165  50.8748210  75.1448306  85.4706088  49.8431803  75.3943804
  84.7051288  49.7281430  75.7697958  85.8198699  48.8887148  74.3488111
  86.6759740  49.1487995  73.9755235  85.9754428  47.4709188  74.9104353
  86.3026487  46.8810365  74.2130666  86.6421064  47.4737653  75.6151058
  84.7587702  46.9714030  75.4157994  84.8710547  46.7033160  76.2042660
  84.7662660  48.9161441  73.2534315  83.5677899  48.9874506  73.5250570
  85.2297014  48.9007532  72.0098649  86.0654861  48.8879477  71.8064567
  84.3302912  48.9048370  70.8668065  83.4158688  48.9298171  71.1898554
  84.5542168  50.1449047  69.9636568  85.4520349  50.1123609  69.5991701
  83.5546853  50.1365321  68.8093927  83.7011775  50.9147601  68.2493334
  83.6756128  49.3315966  68.2815478  82.6517533  50.1581863  69.1630506
  84.4058435  51.4204769  70.7813102  84.5478562  52.1906896  70.2083401
  83.5135165  51.4599245  71.1603635  85.0612635  51.4254976  71.4961224
  84.6087125  47.6525136  70.0493171  85.6480614  47.5472929  69.3913222
  83.6896268  46.6945970  70.1201002  82.9810439  46.7450637  70.6044610
  83.8140452  45.4548966  69.3653227  84.7354887  45.2450525  69.1446116
  83.2875126  44.2679271  70.1828010  83.6953791  44.2846828  71.0621900
  82.3314671  44.3726071  70.3111798  83.5534739  42.9303554  69.5440055
  82.8157817  42.5116825  68.4405327  82.1270315  43.0466142  68.1175960
  83.0986795  41.2941062  67.8121428  82.6006752  41.0248210  67.0744048
  84.1225658  40.4881455  68.2895338  84.3131887  39.6793476  67.8717327
  84.8616769  40.8950856  69.3945314  85.5466420  40.3574383  69.7197700
  84.5737769  42.1120929  70.0153282  85.0711019  42.3788899  70.7542269
  82.9577016  45.6808683  68.1286693  81.7508093  45.8867643  68.2324471
  83.5863433  45.6669453  66.9590874  84.4272660  45.5203289  66.8578028
  82.8502040  45.9109411  65.7263136  81.9467342  46.1501580  65.9877700
  83.4998737  47.0516644  64.9420703  84.4121909  46.8147192  64.7147835
  83.0252501  47.1861180  64.1065245  83.4913349  48.2507358  65.6948012
  82.7610096  48.6495187  65.5794796  82.7566088  44.6851309  64.8392634
  83.7225555  43.9415372  64.6824341  81.5765855  44.4845409  64.2666135
  80.8930627  44.9917799  64.3887698  81.3403579  43.3669497  63.3678297
  82.1547811  42.8496106  63.2730610  80.2445990  42.4255541  63.9013206
  79.3888192  42.8819413  63.8705206  80.1658056  41.1799132  63.0269451
  79.4749958  40.5891679  63.3653704  79.9529993  41.4368056  62.1160242
  81.0189574  40.7196767  63.0410635  80.5298780  42.0520053  65.3437610
  79.8336105  41.4597096  65.6687769  81.3876661  41.6028425  65.3981146
  80.5502580  42.8548164  65.8877205  80.8605077  43.9622799  62.0560493
  79.8812812  44.7032998  62.0290117  81.5625307  43.6554349  60.9717542
  82.2620763  43.1558495  60.9735926  81.1809384  44.1625158  59.6627003
  80.4307939  44.7692774  59.7679507  82.3308551  44.9476856  58.9948724
  83.0886480  44.3513222  58.8870965  81.8960896  45.4683706  57.6235566
  82.6271806  45.9588884  57.2161903  81.6533355  44.7199370  57.0556837
  81.1313013  46.0563142  57.7281430  82.6935060  46.0640817  59.8186248
  83.2419465  45.8142836  60.4035957  80.8202566  42.9734843  58.7877793
  81.5738807  42.0043740  58.6986948  79.6531289  43.0476589  58.1603647
  79.1113110  43.7122365  58.2254485  79.1939084  41.9740684  57.2908740
  79.8432570  41.2556478  57.3456030  77.8105038  41.4413409  57.7187888
  77.1435917  42.1175527  57.5202268  77.4888351  40.1659193  56.9468569
  76.6190959  39.8337018  57.2178461  77.4790996  40.3568976  55.9962547
  78.1632464  39.4950150  57.1353396  77.7844372  41.1556712  59.2208126
  78.4258502  40.4565280  59.4207704  78.0720591  41.9488279  59.6988817
  76.4221881  40.7374876  59.7326210  76.4721715  40.5711632  60.6872591
  75.7805810  41.4441850  59.5608038  76.1398602  39.9276651  59.2787846
  79.0537692  42.5106738  55.8728259  78.2473751  43.4109770  55.6284618
  79.8596740  41.9814971  54.9551116  80.4588263  41.3893491  55.1270863
  79.7864975  42.3746788  53.5496589  79.4268388  43.2700205  53.4475513
  81.1723616  42.3915040  52.8977513  81.6765021  41.6234001  53.2089822
  81.0705507  42.2929517  51.9377070  81.9560957  43.6340164  53.1786246
  82.5653959  43.8733777  54.3911792  83.1458247  45.0600119  54.3643715
  83.6210314  45.4486730  55.0620887  82.9356498  45.6004086  53.1770843
  83.2654807  46.5064464  52.8776830  82.1947911  44.7279377  52.4153752
  81.9107158  44.8626525  51.5402785  78.9227759  41.3054355  52.9024676
  79.2173338  40.1187598  53.0191147  77.8599056  41.7246285  52.2279292
  77.6549837  42.5519579  52.1136616  76.9355348  40.7789994  51.6138012
  77.3389804  39.9018651  51.7116430  75.5785873  40.8591678  52.3234156
  75.2563552  41.7725542  52.2715538  74.9447186  40.3073834  51.8396403
  75.5796339  40.4262797  53.7927953  75.6324380  39.4594643  53.8429627
  76.3709124  40.7764041  54.2310466  74.0895029  40.9997818  54.6842256
  74.5736195  42.6949562  54.9881744  73.8666474  43.1527132  55.4695350
  75.3870199  42.7100189  55.5171631  74.7308593  43.1434506  54.1428323
  76.7213429  41.0077013  50.1212908  76.7448423  42.1412059  49.6477720
  76.5089471  39.9197716  49.3879102  76.5087217  39.1185736  49.7000332
  76.2527120  40.0131932  47.9547009  75.9578489  40.9194427  47.7726086
  77.5174311  39.7336248  47.1410165  78.2188104  40.3406494  47.4243277
  77.8262441  38.8340178  47.3317273  77.3028534  39.8817619  45.6375443
  76.6589146  39.2216878  45.3378829  76.9222154  40.7547431  45.4511047
  78.5963501  39.7178052  44.8524745  78.4401551  39.9366416  43.9206753
  79.2582719  40.3443782  45.1838894  79.1393956  38.3023327  44.9566345
  79.2935599  38.0808754  45.8885191  78.4797210  37.6750437  44.6215539
  80.4102143  38.1500091  44.1883987  80.7054886  37.3140685  44.2664407
  80.2624577  38.3334251  43.3303436  81.0211833  38.7111984  44.5100779
  75.1720268  39.0289407  47.5436395  75.2674185  37.8311072  47.8161690
  74.1392187  39.5531711  46.8964766  74.0608468  40.3924376  46.7267870
  73.0320195  38.7445995  46.4105673  73.0962136  37.8407707  46.7557668
  71.7000079  39.3397458  46.8551064  71.6518804  40.2557730  46.5402889
  70.9835759  38.8523631  46.4197122  71.4499962  39.3302383  48.3459490
  71.1675245  38.4447527  48.6223564  72.2759031  39.5240735  48.8157688
  70.3951687  40.3444582  48.7345209  70.7194084  41.5492952  48.7484289
  69.2428769  39.9443212  49.0081481  73.0973904  38.7910267  44.8942549
  73.5323173  39.7849454  44.3226685  72.6743966  37.7148802  44.2455245
  72.3859888  36.9999706  44.6273768  72.6719544  37.6731309  42.7899762
  73.0246291  38.5023373  42.4322902  73.5552813  36.5323697  42.2503285
  73.1618200  35.6846373  42.5099724  73.6384426  36.6080394  40.7312994
  74.1966737  35.8862508  40.4015583  72.7491548  36.5269989  40.3541792
  74.0230865  37.4591231  40.4702331  74.8775476  36.6447801  42.7964592
  74.8705300  36.4009333  43.5998056  71.2301646  37.4207843  42.3787714
  70.6391801  36.4233778  42.7860780  70.6610543  38.3282241  41.5907508
  71.0555986  39.0344199  41.2988547  69.2785926  38.1760645  41.1567919
  68.7687111  37.9683574  41.9552483  68.7268149  39.4625256  40.5159665
  67.7713036  39.3624911  40.3815780  68.9587211  40.6583051  41.4282011
  68.6051771  41.4588362  41.0092709  68.5092597  40.5114404  42.2752744
  69.9101447  40.7682846  41.5832387  69.3700217  39.6788195  39.2522407
  69.0626359  40.3750777  38.8969783  69.1497721  37.0616629  40.1347257
  70.1475778  36.5153703  39.6596288  67.9082247  36.7373323  39.7932295
  67.2081483  37.1192792  40.1143956  67.6260155  35.6879073  38.8275722
  68.0866419  34.8798745  39.1035582  66.1024860  35.3978837  38.7822705
  65.7857402  35.2174282  39.6815285  65.3563516  36.6116474  38.2560993
  64.4052342  36.4217412  38.2314367  65.5191195  37.3699085  38.8395808
  65.6668737  36.8199606  37.3612247  65.8238078  34.1590716  37.9313350
  65.9922458  34.3698257  36.9998935  66.4459556  33.4573655  38.1799989
  64.4035000  33.6364562  38.0733095  64.2892690  32.8535171  37.5118546
  64.2376610  33.3979179  38.9984040  63.7766974  34.3245465  37.7996267
  68.1418695  36.0804813  37.4398845  68.2568184  35.2385614  36.5484101
  68.4717718  37.3597059  37.2719618  68.4039082  37.9569675  37.8870863
  68.9878101  37.8600727  36.0000053  68.8203206  37.1778235  35.3303096
  68.2591373  39.1485679  35.6063418  68.1837204  39.7245271  36.3833123
  68.7874000  39.6266755  34.9485684  66.8722620  38.8826170  35.0413179
  66.5609800  37.7045442  34.7753309  66.1008145  39.8439136  34.8533856
  70.4994258  38.0903462  36.0360339  71.0610423  38.7420688  35.1531044
  71.1486320  37.5518013  37.0638090  70.7704626  37.1111782  37.6985185
  72.5911325  37.6759200  37.1867758  72.9116130  36.9337916  37.7218867
  72.9773502  37.5767847  36.3026050  73.1287883  38.9579054  37.7924835
  74.3417715  39.1022634  37.9502953  72.2483255  39.8930027  38.1307207
  71.3974110  39.8205852  38.0288715  72.6899292  41.1500447  38.7197899
  73.4488241  41.4655752  38.2051511  71.5772170  42.1986544  38.6588690
  71.3718339  42.3881692  37.7301953  70.7733183  41.8302870  39.0580310
  71.9306033  43.4969229  39.3639429  72.0811604  43.3163503  40.3055447
  72.7643147  43.8365831  39.0033957  70.8608003  44.5617477  39.2284977
  69.6925690  44.2893416  39.5770700  71.1942103  45.6790814  38.7776262
  73.1255549  40.9494002  40.1677039  72.5044744  40.1981976  40.9163064
  74.2015649  41.6263531  40.5565373  74.6490051  42.1543384  40.0462561
  74.7157356  41.5202935  41.9154603  74.3844771  40.6908075  42.2936954
  76.2448066  41.5025811  41.8987793  76.5610231  42.2222755  41.3298047
  76.5704198  41.6850769  42.7941241  76.8440055  40.1953643  41.4149686
  76.6280115  39.4904348  42.0449551  76.4414847  39.9515273  40.5671157
  78.3501366  40.2791392  41.2509171  79.0173849  40.8477111  42.1417070
  78.8680835  39.7695881  40.2360428  74.2278060  42.6702797  42.7838158
  74.3592400  43.8364860  42.4142716  73.6632367  42.3326558  43.9385822
  73.5608888  41.5200587  44.2009654  73.1607391  43.3304568  44.8719258
  73.1288951  44.2028726  44.4490302  71.7437026  42.9746130  45.3267860
  71.8007419  42.2250934  45.9399939  71.3880596  43.7251213  45.8280358
  70.7417975  42.6160440  44.2233730  71.0295180  41.8050382  43.7749587
  69.3706963  42.3834971  44.8470818  68.7330712  42.1562520  44.1522114
  69.4245734  41.6555728  45.4857777  69.0802471  43.1902898  45.3003750
  70.6756976  43.7343597  43.1910311  70.0392934  43.4978226  42.4976330
  70.3926912  44.5560238  43.6219760  71.5520607  43.8616260  42.7947257
  74.0941792  43.3319768  46.0710339  74.3379837  42.2905364  46.6743440
  74.6182071  44.5010763  46.4129992  74.4562142  45.2441620  46.0105977
  75.5356029  44.5983878  47.5358212  75.6983692  43.6848061  47.8178668
  76.8598990  45.2804641  47.1126085  76.6570788  46.1407582  46.7135710
  77.7474614  45.5084348  48.3274748  78.5726336  45.9356244  48.0496241
  77.2863284  46.0783259  48.9621948  77.9494528  44.6562583  48.7451514
  77.5801645  44.4200661  46.0895123  78.4083491  44.8519629  45.8286841
  77.7767060  43.5520483  46.4769341  77.0161451  44.3046893  45.3087951
  74.9569813  45.3666611  48.7131220  74.2118884  46.3329673  48.5444598
  75.2887212  44.9063992  49.9107232  75.7648310  44.2017168  50.0382505
  74.8663946  45.5694334  51.1296481  74.7705303  46.5213669  50.9689667
  73.4917204  45.0809476  51.6006495  73.2965075  45.4984780  52.4537926
  72.8251032  45.3968121  50.9709740  73.3261643  43.5923057  51.7552773
  73.5289598  43.1450181  50.9185965  73.9506224  43.2540170  52.4155922
  71.8942092  43.2825658  52.1813474  71.7088733  43.7106745  53.0319322
  71.2747111  43.6563715  51.5345952  71.6631133  41.7936172  52.3021308
  71.6469505  41.3931175  51.4186515  72.3999189  41.3872686  52.7840896
  70.3866601  41.5036613  53.0046241  70.2585697  40.6234182  53.0380152
  70.4224078  41.8291571  53.8318288  69.7131217  41.8845124  52.5653399
  75.9276991  45.3105935  52.1797413  76.5284187  44.2330226  52.2338891
  76.1779241  46.3230711  52.9957894  75.7763829  47.0824835  52.9603009
  77.1782309  46.2180820  54.0384537  77.4991827  45.3046864  54.0947155
  78.3781049  47.1343037  53.7324761  78.0853183  48.0589363  53.7305691
  79.4435911  46.9721391  54.8044419  80.1952087  47.5519360  54.6039135
  79.0731592  47.2109992  55.6682706  79.7445193  46.0502183  54.8255416
  78.9453367  46.7921384  52.3522979  79.2784911  45.8813136  52.3677984
  78.2258924  46.8193633  51.7018760  80.0564469  47.7121497  51.8905011
  80.3633936  47.4346758  51.0135730  79.7242180  48.6223661  51.8432237
  80.7938545  47.6695095  52.5183911  76.5379975  46.6497378  55.3403041
  75.9635665  47.7323769  55.4226781  76.6170423  45.7883410  56.3451307
  76.9945653  45.0170477  56.2997430  76.0443488  46.1150220  57.6355069
  75.6051275  46.9794947  57.5981364  75.3677701  45.4635132  57.8761300
  77.1454750  46.1332369  58.6739020  78.0747409  45.3281111  58.6135419
  77.0587152  47.0580593  59.6182967  76.4336921  47.6456475  59.6746899
  78.0682667  47.1270639  60.6585593  78.5983010  46.3152642  60.6311027
  78.9968850  48.3158813  60.4301248  79.3048605  48.3067319  59.5104198
  78.4979654  49.1380315  60.5548375  80.2036346  48.3178165  61.3610414
  79.9052245  48.3973821  62.2804948  80.6725126  47.4713847  61.2873082
  81.1532552  49.4562214  61.0333876  81.3997386  49.4163090  60.0961795
  80.7049015  50.3048977  61.1721877  82.4047383  49.3914450  61.8940013
  82.1574633  49.4411210  62.8309993  82.8450739  48.5377620  61.7621756
  83.3512579  50.4964666  61.5687846  84.0966432  50.3996009  62.0454762
  83.5494668  50.4725780  60.7014251  82.9737322  51.2787950  61.7653286
  77.3987923  47.2469274  62.0123864  76.4154470  47.9669801  62.1688764
  77.9334545  46.5226390  62.9884891  78.6131665  46.0052989  62.8872480
  77.3941661  46.5517297  64.3359192  76.7099052  47.2375348  64.3820978
  76.7728063  45.1988473  64.6922828  76.0340243  45.0345234  64.0851520
  77.4346162  44.5082710  64.5279721  76.2587035  45.0372070  66.1245973
  76.9794512  45.2168227  66.7487847  75.1357640  46.0357619  66.4035454
  74.8196247  45.9219509  67.3133459  75.4694341  46.9391105  66.2884347
  74.4037010  45.8807694  65.7858894  75.7730973  43.6084090  66.3253082
  75.4460089  43.5018405  67.2321651  75.0562470  43.4192568  65.7001897
  76.5067196  42.9919056  66.1722758  78.5101957  46.8588095  65.3199359
  79.5362726  46.1746102  65.3359525  78.3114423  47.8997194  66.1219856
  77.6128035  48.3995924  66.0920030  79.2828325  48.2871661  67.1402169
  80.1396916  47.8725396  66.9561940  79.5169413  49.7984635  67.1328551
  78.6660343  50.2533225  67.2411950  80.0659985  50.0400373  67.8944818
  80.1814360  50.2839363  65.8658851  81.1681000  49.7072952  65.4122552
  79.6531200  51.3538014  65.2948433  80.0012310  51.6734210  64.5761361
  78.9628617  51.7301495  65.6424907  78.7043104  47.8570382  68.4848184
  77.5816381  48.2243536  68.8236637  79.4640062  47.0729197  69.2403736
  80.2436705  46.7939590  69.0073530  79.0293417  46.6115941  70.5540445
  78.1127316  46.8438229  70.7687088  79.1038596  45.0878241  70.6084601
  80.0192330  44.7965725  70.4733117  78.8325143  44.7745609  71.4856527
  78.1966080  44.4790068  69.5322956  78.3825290  44.8984929  68.6777390
  78.4719147  42.9933889  69.3845398  77.8913711  42.6227254  68.7016623
  79.3979396  42.8593721  69.1291841  78.3023673  42.5471606  70.2292598
  76.7329528  44.7345015  69.9005478  76.1567287  44.3499295  69.2213982
  76.5386137  44.3254740  70.7588128  76.5749217  45.6901422  69.9560990
  80.0083680  47.2663760  71.5157379  81.1699056  46.8658871  71.6213080
  79.5136022  48.2854277  72.2079702  78.6889433  48.5279326  72.1728258
  80.3310532  49.0943745  73.0988781  81.2410060  48.8032185  72.9314712
  80.1008061  50.5848645  72.7699905  79.2010913  50.8334326  73.0330136
  81.0666390  51.4583186  73.5483034  80.9082888  52.3900184  73.3300797
  80.9319372  51.3224241  74.4997177  81.9778735  51.2223612  73.3138856
  80.2510588  50.8091259  71.2589760  80.1059607  51.7458759  71.0541643
  81.1435916  50.5522771  70.9808914  79.5978867  50.2703225  70.7848378
  80.1265040  48.8833287  74.5909388  79.0165697  49.0309906  75.1073483
  81.2200266  48.5532991  75.2764007  81.9909415  48.4473587  74.9111969
  81.2184155  48.3380702  76.7231885  80.3322718  48.2111729  77.0973307
  82.0298912  47.0795125  77.0537376  81.7295781  46.3498294  76.4889272
  82.9634327  47.2378806  76.8402691  81.9163502  46.6623882  78.5070792
  81.6216923  47.5225386  79.3617529  82.1429068  45.4661586  78.7977796
  81.9159543  49.5854763  77.2708041  83.1388712  49.6695550  77.2552471
  81.1308761  50.5514926  77.7345872  80.2728697  50.4964843  77.7641177
  81.6686846  51.8137818  78.2430270  82.3523685  52.0771779  77.6070774
  80.5420283  52.8421794  78.3425494  79.8669849  52.4935625  78.9456088
  80.9015161  53.6442038  78.7524595  79.8542887  53.2410222  77.0410016
  79.5686265  52.4503629  76.5573716  78.6150582  54.0796622  77.3519125
  78.1789512  54.3329132  76.5230496  78.0008743  53.5609812  77.8948279
  78.8776431  54.8782852  77.8356619  80.8391626  54.0096020  76.1669344
  80.4050863  54.2654739  75.3379861  81.1344817  54.8056253  76.6349767
  81.6045764  53.4471929  75.9709937  82.3537310  51.7194799  79.5996525
  82.1149670  50.7882870  80.3670848  83.2081384  52.7000160  79.8909994
  83.4096141  53.3406322  79.3541527  83.8815027  52.7549288  81.1815830
  84.3810257  51.9380790  81.3390982  84.8564201  53.9235866  81.2127117
  85.2998612  53.9522764  82.0747505  85.5183037  53.8118480  80.5128191
  84.3731800  54.7527359  81.0704146  82.8057435  52.9480660  82.2548417
  81.7370160  53.4900093  81.9761216  83.0943821  52.5151980  83.4790484
  83.8348278  52.1383697  83.7007683  82.1316584  52.6603178  84.5603265
  81.3410634  52.1347670  84.3632683  82.5101317  52.3079872  85.3808484
  81.7383135  54.1121840  84.7647994  82.5793491  55.0073222  84.7170823
  80.4552211  54.3379507  85.0130337  79.8681263  53.7132992  85.0792999
  79.9163840  55.6764011  85.1976607  80.4714660  56.2469952  84.6435646
  78.4463502  55.6732513  84.7837567  78.0748673  56.5659260  84.8688818
  78.3637282  55.4199388  83.8512459  77.7243585  54.7670002  85.5992615
  77.2240404  55.1956625  86.1202408  80.0187584  56.2610961  86.6056938
  79.6465067  57.4194008  86.8152380  80.5153796  55.4821060  87.5628860
  80.8037598  54.6825333  87.4340008  80.6080855  55.9492005  88.9492244
  79.7044869  56.2307443  89.1600505  81.0822676  54.8184814  89.8664270
  81.0154916  55.1139333  90.7880523  80.4835921  54.0623107  89.7663244
  82.5076826  54.3552018  89.6007034  83.0310794  55.1047620  89.2773023
  82.9098096  54.0681877  90.4355170  82.5872400  53.2253116  88.5967408
  81.5972308  53.0048307  87.8686625  83.6473190  52.5614512  88.5349681
  81.4966338  57.1689030  89.1839601  82.4710740  57.4008617  88.4664175
  81.1492859  57.9408277  90.2115240  80.4671986  57.7885541  90.7127173
  81.9093406  59.1317174  90.5815342  82.2512849  59.5385721  89.7705340
  80.9752693  60.1456696  91.2452404  80.4937200  59.7120591  91.9671532
  81.5040756  60.8546369  91.6426360  79.9826597  60.7460577  90.2731204
  80.0461802  60.4946427  89.0683712  79.0608004  61.5537750  90.7879070
  78.4777448  61.9231810  90.2753843  79.0475439  61.7060928  91.6338996
  83.0809413  58.7582172  91.4848495  84.2327634  58.7397909  91.0477154
  83.8770779  59.7569898  91.9104125  83.7424841  60.5774967  91.6900062
  85.0334898  59.5862114  92.7724584  84.7722146  59.1928274  93.6199148
  86.0769003  58.5678439  92.1960131  85.6041747  57.7208237  92.1971426
  86.4656579  58.8352268  90.7240362  87.1108579  58.1717360  90.4340414
  85.6746077  58.7824126  90.1651094  86.8557190  59.7198226  90.6482497
  87.3199851  58.3705882  93.1002698  87.7529257  59.2286800  93.2305388
  87.0277649  58.0649589  93.9729948  88.3498968  57.3728398  92.5428936
  89.0966712  57.3007772  93.1579936  87.9339193  56.5035252  92.4364006
  88.6696176  57.6846466  91.6822746  85.6166022  60.9724115  92.9854805
  85.0980996  61.9572404  92.4618890  86.5688561  61.1445194  93.9306500
  87.0052174  60.5207240  94.3306390  86.8882382  62.4870488  94.3075170
  86.1774433  63.0781953  94.0146459  86.9260339  62.5461519  95.2747602
  88.1746801  62.9560939  93.7414835  89.2198018  62.3182781  93.8422283
  88.0746194  64.1451479  93.1355367  87.3205376  64.5459683  93.0330788
  89.1685857  64.8802439  92.5981395  89.9610268  64.8602431  93.1568648
  89.6128802  64.3081140  91.2371624  89.8462619  63.3756757  91.3667649
  88.8489584  64.3292038  90.6406025  90.7820057  64.9928171  90.5306243
  90.4768625  65.8184121  90.1231031  91.4606590  65.2318714  91.1817770
  91.3958495  64.0854494  89.4582813  91.9212705  63.3844493  89.8758429
  90.6943506  63.6497261  88.9493868  92.2567091  64.9002281  88.5520875
  92.3959867  65.7331231  88.7132137  92.8166241  64.3024097  87.4656063
  92.8937559  62.9420776  87.3756709  92.5860738  62.4510523  88.0107864
  93.2500904  62.5759047  86.6838355  93.2736868  65.0662261  86.4361248
  93.2081650  65.9232914  86.4740720  93.6279833  64.6925885  85.7477717
  88.5731942  66.2371926  92.4274899  87.6713588  66.4144381  91.6111273
  89.0255032  67.2270845  93.2220688  89.6435578  67.1502611  93.8153846
  88.4430186  68.5309745  93.0882457  87.9393573  68.5206531  92.2596301
  87.5180240  68.9277447  94.2417080  86.9730569  69.6901498  93.9908568
  86.9098425  68.2016529  94.4520790  88.3195905  69.2435780  95.3705984
  89.1224601  69.0617515  95.2043045  89.5525156  69.5101670  93.1745036
  90.4796338  69.3434931  93.9680185  89.4654923  70.5854726  92.3737073
  88.8268481  70.7466930  91.8200300  90.5108643  71.5632087  92.4244847
  90.4376032  72.0909108  93.2353906  91.3769651  71.1275588  92.4471950
  90.4068250  72.4429856  91.2256080  89.3180703  72.8219209  90.7959498
  91.5885611  72.8083201  90.6895711  92.3393329  72.5581289  91.0268308
  91.7527292  73.6347866  89.5247651  91.0567845  74.3088993  89.5666105
  93.1111542  74.3500140  89.4665472  93.1589338  74.8888153  88.6611317
  93.2097790  74.9212490  90.2439254  93.8238261  73.6914838  89.4575559
  91.6600114  72.7701482  88.3028192  91.5722822  71.5453923  88.3949632
  91.6602268  73.3920321  87.1014693  91.7276718  74.2428124  86.9935524
  91.5421180  72.6310839  85.8818964  90.7350523  72.1014219  85.9748051
  91.3427845  73.4776762  84.6422667  91.4029472  72.9359934  83.8402473
  89.9419775  74.1077319  84.7216380  89.7895399  74.6569616  83.9368460
  89.2732191  73.4058150  84.7605710  89.8792612  74.6576781  85.5174771
  92.4504926  74.5444277  84.5395532  92.3120427  75.0793732  83.7426655
  92.4216183  75.1173066  85.3216517  93.3159655  74.1088022  84.4895819
  92.7354439  71.7311326  85.7124977  93.8933231  72.1434178  85.7921072
  92.4483000  70.4292425  85.5225936  91.6542583  70.1021179  85.4783529
  93.5089809  69.4818055  85.3788151  94.3364299  69.9874545  85.3497412
  93.5886028  68.4827057  86.5505654  93.6070578  68.9789999  87.3840032
  92.7808870  67.9454129  86.5578158  94.8093197  67.5442316  86.5058733
  95.1524600  66.9056914  85.4671360  95.3782343  67.3647315  87.6153497
  93.2709182  68.6857153  84.1394909  92.2735053  67.9772497  84.0082317
  94.2177667  68.7781444  83.1911319  94.8714977  69.3374781  83.2082097
  94.1934299  67.9145949  82.0477217  93.6040444  67.1700832  82.2451149
  93.6216357  68.5592304  80.7654251  93.7006089  67.9207391  80.0391309
  92.6749096  68.7217266  80.8991362  94.2835023  69.8739643  80.3303157
  93.9331464  70.5995251  80.8707786  95.2365215  69.8235109  80.5059374
  94.0627711  70.1975074  78.8529181  93.1161721  70.1413932  78.6507610
  94.3358844  71.1123280  78.6804379  94.8345250  69.2560859  77.9257706
  95.7845807  69.3113697  78.1143865  94.5659697  68.3385511  78.0882079
  94.5782668  69.6141291  76.5101513  95.0300193  69.0624799  75.9779655
  93.7077125  69.5443582  76.3387301  94.8428268  70.4505462  76.3627457
  95.6158007  67.5140855  81.7976064  96.3606273  68.2110927  81.1103536
  96.0354343  66.3588307  82.3511630  95.5464457  65.8399649  82.8325551
  97.3900465  65.9126020  82.1546435  97.8928186  66.6438573  81.7627037
  98.0978286  65.5056918  83.4626885  97.5385784  64.8652997  83.9302001
  98.9237499  65.0499909  83.2379870  98.4214814  66.6565518  84.4167535
  99.1487156  67.1790618  84.0446947  97.6515338  67.2443057  84.4748389
  98.8069629  66.1978775  85.8284022  99.3461874  65.3927621  85.7913613
  99.3385965  66.8753667  86.2754178  97.5434844  65.9487148  86.5690737
  96.8633300  66.4532297  86.4185723  97.4347954  64.9394526  87.4830554
  98.4874910  64.1482878  87.8349988  99.2589697  64.2756679  87.4774908
  98.3801715  63.5219595  88.4145006  96.1808965  64.7071550  87.9622354
  95.5204219  65.1839375  87.6862684  96.0504214  64.0838231  88.5397781
  97.3139628  64.6877670  81.3040541  96.2511048  64.0753010  81.2162232
  98.4364601  64.3293746  80.6379087  99.1601347  64.7929520  80.6440037
  98.5184782  63.1252667  79.8501860  97.6498379  63.0142755  79.4312849
  99.5794503  63.1799584  78.7360962  99.5802826  62.3415785  78.2489161
  99.3731010  63.9068347  78.1282568 100.4543531  63.3253101  79.1289371
  98.8949020  61.9811125  80.7589139  99.5937290  62.1775519  81.7526610
  98.4005453  60.7639242  80.4311640  97.8821061  60.6532503  79.7544003
  98.6581690  59.5259079  81.1380840  97.9733268  58.9103572  80.8341130
 100.0194160  58.8758642  80.7928453 100.7298608  59.5124957  80.9709032
 100.1657066  58.1161794  81.3779128 100.1142269  58.4120956  79.3303989
  99.2975404  57.9383844  79.1085840 100.1495887  59.1983811  78.7639276
 101.3087196  57.5082569  78.9758799 102.1475352  57.9650129  79.1450086
 101.3070555  56.7066573  79.5223525 101.1788329  57.1640077  77.5364790
 100.5823416  56.5899380  77.3042118 101.9608492  57.7158297  76.5683860
 103.0439705  58.4855777  76.8828924 103.2436753  58.6305164  77.7067490
 103.5259604  58.8258443  76.2575026 101.6226921  57.4535701  75.2690036
 100.9411956  56.9590481  75.0937565 102.0913518  57.7838192  74.6281233
  98.5455682  59.7195506  82.6227448  99.4892786  59.4428211  83.3606320
  97.3917748  60.2249311  83.0980471  96.6981332  60.4034273  82.6215827
  97.2626523  60.5022907  84.4992124  98.1518931  60.4174276  84.8773367
  96.7565888  61.9268219  84.7910540  96.6649574  62.0424461  85.7502984
  97.4192248  62.5677112  84.4902161  95.4191409  62.2349052  84.1191115
  95.5004391  62.1302940  83.1584741  94.7463249  61.6029741  84.4176876
  94.9768441  63.6605446  84.4506468  95.6673492  64.4045806  85.2022086
  93.8781262  64.0171459  83.9534984  96.3095721  59.5373796  85.1157622
  95.5156618  58.8864293  84.4343034  96.4210582  59.4129481  86.4529240
  97.0240413  59.8155221  86.9158101  95.5449969  58.5966891  87.2333295
  95.2737487  57.8614281  86.6615107  96.1985674  57.9891117  88.4826818
  95.5477110  57.4512901  88.9596597  96.9464168  57.4315838  88.2180050
  96.5153734  58.7003410  89.0606619  94.4028879  59.4377902  87.6925048
  94.4528069  60.6666678  87.7059562  93.3090858  58.7775930  88.0735174
  93.2079649  57.9233197  88.0698111  92.1993478  59.5397468  88.5305842
  92.0149247  59.3494475  89.4637804  92.3868606  60.4896864  88.4659938
  91.0377606  59.1774436  87.6841024  91.1281763  58.3378777  86.7850395
  89.9099720  59.8390327  88.0097999  89.9270265  60.4165982  88.6461843
  88.5871859  59.7529337  87.4508457  88.3914824  58.8024313  87.4439616
  87.5922316  60.5485839  88.3277407  86.7705770  60.6801721  87.8291554
  87.3688720  60.0179512  89.1082177  88.1164295  61.9215061  88.7931331
  89.0898721  62.4752615  88.2789225  87.4499734  62.4763250  89.8439771
  87.7059881  63.2319863  90.1645912  86.7729584  62.0711499  90.1868034
  88.4428496  60.2057491  86.0195836  87.8794580  59.4764012  85.2050423
  88.9818696  61.4062290  85.7259865  89.4263789  61.8098855  86.3413944
  88.9843444  62.2330921  84.5225397  88.1679120  62.7569586  84.5474202
  90.1918421  63.1929923  84.4852312  91.0101451  62.6743404  84.5243140
  90.1781904  63.9964110  83.1859079  90.9388912  64.5972710  83.1685183
  90.2285117  63.3906063  82.4302086  89.3581179  64.5121567  83.1326680
  90.1478116  64.1367478  85.6916407  90.1962076  63.6083362  86.5032459
  90.9350735  64.7033130  85.6748632  88.9132175  65.0166819  85.7526270
  88.9576400  65.5829008  86.5392221  88.8710922  65.5705460  84.9578993
  88.1202740  64.4593183  85.7995881  89.0048691  61.3711528  83.2658252
  90.0559450  61.1163313  82.6747934  87.8288462  60.9140826  82.8676657
  87.0891225  61.0751032  83.2761510  87.6887788  60.0874321  81.6856563
  88.5248515  59.6845982  81.4044744  86.7058113  58.9422042  81.9360934
  86.8940513  58.5417635  82.7988853  85.8044634  59.2985796  81.9795512
  86.7674291  57.8783154  80.8684128  86.6614152  58.1721749  79.6736489
  86.9363516  56.6354789  81.2856521  86.9758391  55.9922302  80.7155830
  87.0066375  56.4691709  82.1264271  87.1350113  61.0194919  80.6130651
  85.9273521  61.2229508  80.5302538  88.0239363  61.6008225  79.8138678
  88.8721169  61.4627924  79.8558473  87.6133574  62.5439846  78.7747841
  87.2245279  63.2992797  79.2427510  88.8294354  62.9822019  77.9550330
  89.5025339  63.3316659  78.5604819  89.2123642  62.2014456  77.5255226
  88.5387664  64.0352165  76.8856169  89.3528835  64.2208916  76.3920036
  87.8978423  63.6766944  76.2520120  87.9987510  65.3319942  77.4609446
  88.2026199  65.6396874  78.6361196  87.3166666  66.1076207  76.6275026
  87.1940394  65.8601654  75.8133610  86.9972162  66.8574155  76.9020134
  86.5261089  62.0179047  77.8430032  85.5922726  62.7452217  77.5030135
  86.6371632  60.7605685  77.4233859  87.2741476  60.2244269  77.6376219
  85.6265835  60.2034354  76.5302133  85.5100137  60.8358921  75.8035312
  86.0913628  58.8613412  75.9601708  86.5280967  58.3422132  76.6536638
  85.3252621  58.3470354  75.6602652  86.9848513  59.0678483  74.8787971
  87.7484502  59.2517119  75.1770585  84.2818952  60.0391651  77.2192494
  83.2360309  60.2892800  76.6195332  84.2964564  59.6171967  78.4787241
  85.0056722  59.4237540  78.9253716  83.0454656  59.4542437  79.1995730
  82.4386191  58.9103141  78.6743598  83.2953359  58.7484755  80.5294279
  83.9292132  58.0289471  80.3814739  83.7166600  59.3766371  81.1369664
  82.0566057  58.1710867  81.2116175  81.4384040  58.8833600  81.4393439
  81.3354133  57.2106679  80.2677232  80.5508215  56.8501295  80.7104735
  81.0648187  57.6864642  79.4665775  81.9319977  56.4856879  80.0259528
  82.4960652  57.4520140  82.4843417  81.7192832  57.0786523  82.9300196
  83.1113142  56.7374586  82.2568876  82.9363563  58.0813776  83.0762658
  82.4108402  60.8265448  79.4334417  81.2046970  60.9978245  79.2773692
  83.2304049  61.8074752  79.7982857  84.0774762  61.7135754  79.9152605
  82.7273595  63.1564677  80.0333490  82.0417542  63.1090379  80.7175981
  83.8569790  64.0748360  80.5110115  84.5971761  63.9912112  79.8896467
  83.5443404  64.9914306  80.4578572  84.3920180  63.8368294  81.9232311
  84.5936660  62.8959225  82.0454000  85.6764781  64.6328620  82.1293363
  86.0122295  64.4790499  83.0264756  86.3409882  64.3483691  81.4828016
  85.4942860  65.5778679  82.0101102  83.3326240  64.2495779  82.9358016
  83.6671023  64.1006004  83.8339441  83.1235287  65.1896348  82.8212364
  82.5305134  63.7219124  82.7981144  82.1344206  63.7244716  78.7536034
  81.0648610  64.3414786  78.7679749  82.8267276  63.4998582  77.6434710
  83.5602038  63.0518815  77.6121092  82.3729885  64.0164423  76.3625332
  82.1656761  64.9560622  76.4875732  83.4740810  63.8957381  75.3042971
  83.6765702  62.9574423  75.1637657  83.0162956  64.5102266  73.9810230
  83.7237207  64.4256107  73.3228476  82.2247381  64.0471968  73.6658623
  82.8091886  65.4488113  74.1143023  84.6304276  64.6020199  75.7633859
  85.0475832  64.1274565  76.3169587  81.1069784  63.3215260  75.8929207
  80.2255089  63.9598178  75.3307144  80.9999686  62.0190164  76.1379262
  81.5995075  61.5392783  76.5252445  79.7916078  61.3065220  75.7384605
  79.7128103  61.3330162  74.7721919  79.8581127  59.8411660  76.1770239
  80.6050939  59.4160032  75.7269186  80.0451771  59.8104356  77.1286523
  78.5882224  59.0238833  75.8994333  77.8398203  59.4159034  76.3758738
  78.2755020  59.0451341  74.4094104  77.4729429  58.5282068  74.2393428
  78.1362122  59.9612974  74.1207926  79.0181027  58.6609030  73.9169800
  78.7827782  57.5933295  76.3876030  77.9799053  57.0791058  76.2110863
  79.5326067  57.1909822  75.9208741  78.9603224  57.5975142  77.3413066
  78.5803081  61.9829869  76.3848830  77.5654495  62.2220964  75.7280309
  78.6962892  62.2937452  77.6719882  79.3966345  62.1374656  78.1465861
  77.6077306  62.9411045  78.3881566  76.8151558  62.3832803  78.3361346
  77.8422972  63.0143183  79.3267791  77.2827502  64.3210020  77.8460206
  76.1165209  64.7027913  77.7458643  78.3167924  65.0765486  77.4948622
  79.1393275  64.8324647  77.5598394  78.1189503  66.4164544  76.9569116
  77.4997292  66.8887230  77.5345175  79.4451253  67.1703345  76.9316621
  80.1174925  66.6218865  76.4975420  79.3462386  67.9747027  76.3977537
  79.9231124  67.5440017  78.3121921  79.4005824  68.2908566  78.6441924
  79.7739691  66.8013592  78.9176898  81.3956132  67.9142675  78.3187219
  81.9161334  67.1930746  77.9302821  81.5386298  68.6976597  77.7642529
  81.8599445  68.1806431  79.6766458  81.2761869  68.4102037  80.2647470
  83.1279573  68.0905582  80.0602058  84.0575932  67.7383821  79.1911373
  83.8417069  67.5677559  78.3768365  84.8785450  67.6808367  79.4396762
  83.4644714  68.3542232  81.3168410  82.8602197  68.5837243  81.8842060
  84.2864536  68.2946703  81.5634029  77.5071115  66.3643198  75.5635569
  76.7565201  67.2644608  75.1774782  77.8384974  65.3180079  74.8103174
  78.3816681  64.6996117  75.0586734  77.2875066  65.1383250  73.4669023
  77.4377237  65.9447986  72.9488944  77.9824641  63.9643485  72.7216928
  78.0227277  63.2033401  73.3211317  77.1908323  63.5710462  71.4773518
  77.6391346  62.8381535  71.0267374  76.2985255  63.2936689  71.7355250
  77.1317733  64.3313399  70.8774421  79.3927874  64.3731085  72.3143069
  79.8218762  63.6367276  71.8501399  79.3500748  65.1444193  71.7269039
  79.9059307  64.5980661  73.1054479  75.7921441  64.8442935  73.6052404
  74.9558740  65.4126085  72.8953612  75.4516383  63.9641224  74.5379433
  76.0101844  63.5595805  75.0521243  74.0546901  63.6162934  74.7563966
  73.6856418  63.2881874  73.9215171  73.9298871  62.4936609  75.8124962
  74.4368481  62.7341009  76.6039159  72.4743654  62.3138398  76.2344796
  72.4138007  61.6070397  76.8962813  72.1434235  63.1420062  76.6151264
  71.9399410  62.0776891  75.4603043  74.4932559  61.1948838  75.2275965
  73.9478054  60.9315599  74.4697013  75.3857408  61.3664918  74.8892559
  74.5562244  60.0444377  76.2064611  74.9220151  59.2624279  75.7642340
  75.1234162  60.2867801  76.9545029  73.6635200  59.8450428  76.5299074
  73.2624695  64.8476823  75.1852461  72.1562299  65.0821655  74.6958815
  73.8310149  65.6452071  76.0834734  74.6027364  65.5052122  76.4366042
  73.1585821  66.8555223  76.5475901  72.2986893  66.5841707  76.9065702
  73.9685539  67.5583827  77.6581426  74.8663848  67.7212203  77.3299755
  73.3266069  68.8965973  78.0300348  73.8481607  69.3226187  78.7281347
  73.3004656  69.4717138  77.2488661  72.4232770  68.7445847  78.3488972
  74.0095158  66.7193913  78.8196590  74.5540720  66.0930494  78.6934072
  72.9491962  67.8318674  75.3975772  71.8687958  68.4088515  75.2491678
  73.9796351  68.0129094  74.5778160  74.7391667  67.6191095  74.6623291
  73.8903631  68.9214682  73.4423864  73.6519516  69.8007561  73.7748388
  75.2356436  69.0021467  72.7313033  75.1678940  69.6084747  71.9771824
  75.9090192  69.3281264  73.3486019  75.4883750  68.1206715  72.4146040
  72.8051274  68.4732292  72.4649906  72.0628540  69.2978163  71.9252681
  72.7124630  67.1639795  72.2473452  73.2167440  66.5783787  72.6242237
  71.7239486  66.6068700  71.3292302  71.7974043  67.1133614  70.5057646
  72.0169782  65.1255842  71.0684606  72.0962137  64.6793210  71.9260286
  71.2484941  64.7409914  70.6179069  73.2635677  64.7963945  70.2446246
  74.0362603  65.2345202  70.6349245  73.4986240  63.2937200  70.2555728
  74.2889222  63.0855859  69.7326169  73.6261785  62.9926751  71.1684123
  72.7301874  62.8429681  69.8717122  73.0943868  65.3079639  68.8196644
  73.8878097  65.0957231  68.3035181  72.3216003  64.8846320  68.4127773
  72.9658045  66.2691984  68.8337973  70.2930807  66.7589567  71.8327147
  69.4092421  67.1812273  71.0834624  70.0614808  66.4191737  73.0984572
  70.6613436  66.1308898  73.6430847  68.7204001  66.5204055  73.6609166
  68.1351630  66.0827287  73.0228967  68.6201611  65.8005675  75.0279537
  67.7084252  65.8647088  75.3520933  68.9814222  64.3309764  74.8631981
  68.9171928  63.8833432  75.7217435  68.3694490  63.9151179  74.2356253
  69.8879994  64.2563317  74.5273084  69.5284706  66.4630767  76.0440844
  69.4540357  66.0013194  76.8939489  70.4461114  66.4226340  75.7328487
  69.2663438  67.3902025  76.1567844  68.2578946  67.9648930  73.8211587
  67.0684006  68.2525056  73.6967640  69.1924321  68.8715688  74.0906691
  70.0292028  68.6951937  74.1833386  68.8405501  70.2799872  74.2521174
  67.9466249  70.3327127  74.6259607  69.8108325  70.9762436  75.2131711
  70.6843832  71.0286440  74.7943006  69.5101153  71.8869976  75.3577887
  69.9520735  70.2849468  76.5587184  69.0704041  70.0812445  76.9069574
  70.4116299  69.4395958  76.4370485  70.7084760  71.1223247  77.5730555
  71.6005453  71.8975088  77.1653987  70.4199861  70.9929996  78.7810922
  68.8684342  70.9758018  72.8980663  68.6974027  72.1930885  72.8056095
  69.0872643  70.1860919  71.8519317  69.2124169  69.3372978  71.9165794
  69.1365331  70.6871416  70.4857429  69.4845709  69.9621733  69.9434702
  67.7322756  71.0818561  70.0172641  67.3895103  71.7721896  70.6055435
  67.7963536  71.4707022  69.1308253  66.7358519  69.9333850  69.9771923
  67.0848001  69.2172553  69.4233850  66.6195193  69.5703325  70.8693882
  65.3908970  70.3963833  69.4313408  65.0435617  71.1054846  69.9951481
  65.5173903  70.7739462  68.5469044  64.4091898  69.3151673  69.3579649
  64.1299763  69.0795374  68.5791912  63.9190384  68.6713092  70.4132948
  64.3144601  68.9943880  71.6387868  64.8904808  69.6224223  71.7524843
  63.9944722  68.5750219  72.3186521  63.0274067  67.7018630  70.2445463
  62.7672043  67.4896215  69.4529446  62.7103081  67.2860610  70.9268506
  70.0825215  71.8698112  70.3059858  69.8118648  72.7697596  69.5111608
  71.1883301  71.8749681  71.0434481  71.3935143  71.2672892  71.6166521
  72.1597214  72.9535906  70.9208653  71.6950841  73.8002814  71.0096963
  73.2314202  72.8872842  72.0262019  73.8585583  73.6153867  71.8949864
  72.5926339  73.0305089  73.3980982  73.2802183  72.9870660  74.0812603
  72.1346296  73.8835960  73.4545551  71.9553233  72.3127703  73.5352388
  73.9193498  71.6341627  71.9514994  74.7051937  71.7609143  71.6820325
  72.8400362  72.8315910  69.5601883  73.1012284  71.7273843  69.0845800
  73.1282937  73.9721970  68.9139565  72.8307529  75.3367933  69.3854397
  73.4805034  75.6447868  70.0365075  71.9583560  75.3926841  69.8062353
  72.8917829  76.1356002  68.1044292  73.0465339  77.0780371  68.2716500
  72.0680105  76.0693322  67.5957244  74.0420321  75.4974284  67.3923677
  74.8944994  75.7676173  67.7691679  74.0597362  75.7338661  66.4518903
  73.7754030  74.0086877  67.5996286  73.2176051  73.6110874  66.9119502
  75.0539246  73.1800944  67.5124413  75.2186884  72.3724027  66.5959890
  75.9516131  73.3799940  68.4697451  75.8464966  73.9287565  69.1227912
  77.2173692  72.6606173  68.4799785  77.3624963  72.3635317  67.5679674
  78.3430386  73.5909404  68.9378804  78.4111916  74.3336689  68.3179066
  78.1120955  73.9640297  69.8023517  79.6760731  72.9162436  69.0384649
  80.3132028  72.3619051  67.9490887  79.9619192  72.3654807  67.0016627
  81.4558736  71.8246400  68.3379701  82.0671463  71.3891955  67.7881276
  81.5834422  72.0112914  69.6397791  80.4839501  72.6920491  70.1023848
  80.3244147  72.9503870  70.9814866  77.2125121  71.4081479  69.3520771
  76.8240517  71.4480610  70.5197857  77.6453148  70.2978578  68.7657131
  77.8957037  70.2640184  67.9437434  77.7379208  69.0184722  69.4665737
  77.3234538  69.0602352  70.3421775  77.0173585  67.8987973  68.6968463
  77.4889704  67.7245923  67.8671398  77.0085672  66.6262630  69.5270770
  76.5532953  65.9233230  69.0374569  77.9213485  66.3531157  69.7100709
  76.5460529  66.7890597  70.3634978  75.5973816  68.3295603  68.3636391
  75.1490309  67.6194895  67.8782908  75.1139694  68.5149083  69.1844806
  75.6220221  69.1297084  67.8154403  79.2354428  68.7255276  69.5151374
  79.8724672  68.5594030  68.4756301  79.8142546  68.6530581  70.7254428
  79.1252369  68.7987741  72.0215922  78.3122688  68.2711544  72.0602885
  78.8739812  69.7190729  72.1949404  80.1693917  68.3015921  73.0073354
  80.1415383  67.3366459  73.1056262  80.0397087  68.6800239  73.8908289
  81.4454709  68.7568925  72.3937131  82.2133018  68.3038113  72.7764222
  81.5871372  69.7087879  72.5166921  81.2451548  68.3960776  70.9258292
  81.7472183  68.9173793  70.2798402  81.8128176  67.0178307  70.5917823
  82.6045119  66.4844545  71.3608076  81.4375621  66.4592028  69.4434844
  80.8928027  66.8242156  68.8870971  81.9379544  65.1433991  69.0281755
  81.5829575  64.5257179  69.6863040  81.4694292  64.7964019  67.6138640
  81.7857695  65.4858459  67.0094083  81.8954394  63.9672964  67.3454230
  79.9822118  64.6476262  67.4273800  79.2737692  63.6224823  68.0545370
  79.7222890  63.0334890  68.6172250  77.9007541  63.4673987  67.8489993
  77.4380317  62.7789349  68.2699547  77.2322654  64.3513294  67.0092849
  75.8803555  64.2209731  66.7881222  75.5947949  63.5411377  67.1899667
  77.9184224  65.3746734  66.3824573  77.4676104  65.9647689  65.8225137
  79.2848454  65.5178610  66.5930974  79.7420094  66.2078488  66.1687095
  83.4612827  65.0527561  69.0137623  84.0386610  64.0523249  69.4280916
  84.1102375  66.0982831  68.5109264  83.7273116  66.8158514  68.2312257
  85.5617286  66.1008403  68.3958050  85.7792431  65.2180931  68.0574919
  86.0060365  67.2124550  67.4324270  85.7370829  68.0703042  67.7975376
  86.9746929  67.2162073  67.3836245  85.4423777  67.0778905  66.0249661
  85.6344932  66.1917102  65.6799368  84.4768612  67.1697398  66.0496546
  86.0325269  68.1286977  65.0941266  85.5681925  68.1050999  64.2428366
  85.8900302  69.0117847  65.4701784  87.4618241  67.9150332  64.8764159
  88.0118209  68.4402276  65.2782310  87.9692268  66.9627647  64.0986832
  87.1650608  66.1286183  63.4527212  86.3122395  66.2025995  63.5360741
  87.4967227  65.5138068  62.9509124  89.2853351  66.8393863  63.9720860
  89.8095930  67.3756003  64.3927976  89.6130326  66.2234041  63.4688939
  86.3375155  66.2290853  69.7002091  87.5656907  66.1282929  69.6980693
  85.6385049  66.4314822  70.8122080  84.7802750  66.4806846  70.8496179
  86.3245467  66.5878928  72.0882834  87.1408408  67.0630983  71.8668121
  85.4536723  67.4020169  73.0515490  84.5499948  67.0504431  73.0458083
  85.7910384  67.3017487  73.9558606  85.4260685  68.8866934  72.6788902
  86.3359578  69.2230251  72.6573163  85.0673576  68.9804887  71.7826721
  84.6070285  69.7399684  73.6289120  84.5903966  69.4397930  74.8400190
  83.9901817  70.7254736  73.1646583  86.8316372  65.3103531  72.7599870
  87.4841502  65.3778889  73.8018059  86.5386841  64.1522771  72.1736983
  86.0605556  64.0752888  71.4635082  87.0317484  62.8869240  72.7220294
  87.8986730  63.0600388  73.1214702  86.1016878  62.3395566  73.8077321
  86.6052125  61.7714695  74.4112418  85.7495844  63.0733045  74.3354311
  85.0297135  61.6026042  73.2426779  84.6233235  62.0820534  72.6852027
  87.1631785  61.8564581  71.6117794  86.4896927  61.9399097  70.5832631
  88.0307952  60.8746970  71.8190167  88.5133077  60.7856321  72.5255909
  88.2169699  59.8516707  70.8101653  88.3415726  60.2911395  69.9539438
  89.4670499  59.0246907  71.1146992  89.3948601  58.6421939  72.0031090
  89.5261493  58.2843752  70.4910445  90.7340578  59.8715283  71.0249274
  90.6619594  60.4758280  70.2690823  90.8078258  60.4206742  71.8213896
  91.9883597  59.0372026  70.8768177  92.0380428  58.3868469  71.5949083
  91.9565780  58.5394422  70.0444989  93.2233123  59.9293423  70.8998562
  93.3434318  60.2888990  71.7925914  94.0087001  59.3967419  70.7002445
  93.1241426  61.0506889  69.9235785  93.9117077  61.4606068  69.8606543
  92.8914368  60.7303562  69.1265710  92.5100630  61.6320255  70.2004125
  86.9892581  58.9629092  70.6883333  86.6139153  58.5801643  69.5844669
  86.3531233  58.6503953  71.8136913  86.5932670  58.9095999  72.5977359
  85.1567788  57.8120006  71.7819996  85.4188552  56.9746479  71.3672040
  84.6386883  57.5583896  73.2009167  85.3495728  57.1457404  73.7162281
  84.4498892  58.4159888  73.6141231  83.3854115  56.6800936  73.3191636
  82.6949179  57.0211006  72.7294103  83.6989506  55.2495405  72.9017429
  82.8994817  54.7066846  72.9811532  84.0046527  55.2405974  71.9811495
  84.3921659  54.8887684  73.4765655  82.8890638  56.7157776  74.7541015
  82.0962847  56.1628783  74.8365738  83.5810504  56.3785884  75.3442972
  82.6726114  57.6293746  74.9989257  84.0324974  58.4283703  70.9445501
  83.4260256  57.7512613  70.1116730  83.7501090  59.7088399  71.1618619
  84.1629069  60.2120177  71.7239322  82.6746170  60.3616274  70.4241387
  81.9475996  59.7200691  70.4032910  82.2020056  61.6453311  71.1470054
  81.5615824  62.1039650  70.5802488  81.5383661  61.2824853  72.4740244
  81.2453746  62.0918016  72.9209014  80.7735377  60.7101003  72.3070933
  82.1749446  60.8152726  73.0373716  83.3201982  62.5078876  71.3966844
  83.4456967  63.0043634  70.7303849  83.0198325  60.6651101  68.9661574
  82.1229729  60.8458527  68.1412500  84.3086863  60.7208682  68.6424604
  84.9576127  60.6273222  69.1990435  84.7107127  60.9563504  67.2563222
  84.1853847  61.6808259  66.8822451  86.1875010  61.3502851  67.1661959
  86.7031844  60.7591444  67.7377415  86.4941184  61.2044312  66.2576287
  86.4831163  62.7837366  67.5552000  85.9357029  63.3872186  67.0294462
  86.2493179  62.9265525  68.4860867  87.9547768  63.1011835  67.3377422
  88.1242777  64.0281531  67.5683127  88.4951672  62.5584346  67.9327143
  88.3589985  62.8600391  65.9546582  87.7575071  62.5945039  65.4004478
  89.5976095  63.0243628  65.4965694  90.5598291  63.4329564  66.3135429
  90.3833264  63.5916865  67.1397732  91.3595040  63.5389272  66.0162396
  89.8765171  62.7770595  64.2233692  89.2561745  62.5100596  63.6911699
  90.6774799  62.8844453  63.9298527  84.4991188  59.6483583  66.4979439
  83.9556432  59.6300537  65.3911394  84.9238578  58.5531153  67.1176556
  85.2902209  58.5540868  67.8958453  84.7986874  57.2308329  66.5118937
  85.2166156  57.2799356  65.6383956  85.5158339  56.1605155  67.3785599
  85.1777507  56.2124384  68.2861841  85.2326131  54.7687188  66.8414334
  85.6860140  54.1114336  67.3915360  84.2775159  54.6027859  66.8606620
  85.5534019  54.7021698  65.9285190  87.0204638  56.4286506  67.3917259
  87.3757037  56.2679297  66.5038670  87.1702728  57.3660679  67.5918158
  87.7891713  55.5877098  68.3856904  88.7315556  55.8114058  68.3381106
  87.4606142  55.7638620  69.2808913  87.6690617  54.6475889  68.1765100
  83.3358320  56.8260738  66.3319650  82.9694142  56.2479537  65.3107417
  82.5021236  57.1556815  67.3138989  82.7354519  57.5952768  68.0154285
  81.0883046  56.7861883  67.2744471  81.0016937  56.1816084  66.5204951
  80.7024701  56.1163906  68.5971197  80.7838640  56.7720521  69.3076154
  79.7678504  55.8626160  68.5503068  81.5206164  54.8800788  68.9844281
  82.4640314  55.1071503  68.9946544  81.1175223  54.4143885  70.3761392
  81.6370798  53.6317175  70.6186452  81.2846188  55.1238225  71.0160049
  80.1741223  54.1901285  70.3822866  81.3062624  53.7747269  67.9627186
  81.8269808  52.9960353  68.2144341  80.3655202  53.5388598  67.9334793
  81.5892360  54.0832358  67.0873088  80.1177867  57.9337400  66.9919314
  78.9367080  57.8451079  67.3237396  80.6099631  58.9979251  66.3666968
  81.4266282  59.0671723  66.1074423  79.7791018  60.1624866  66.0628103
  79.5481097  60.5465456  66.9231994  80.6070843  61.1393015  65.2142047
  81.3722160  61.4333049  65.7322293  80.9523645  60.6672317  64.4405240
  79.8324415  62.3653711  64.7390808  79.1187601  62.0817053  64.1458232
  79.4134032  62.7931306  65.5021154  80.7070002  63.3777973  64.0181916
  81.9328691  63.2527230  64.0005576  80.0814126  64.3868659  63.4253091
  79.2241120  64.4405731  63.4591352  80.5342455  64.9873463  63.0081106
  78.4524546  59.8393589  65.3742859  77.4140923  60.4029245  65.7196646
  78.4809536  58.9265815  64.4095542  79.1861425  58.5003348  64.1618278
  77.2651345  58.5801014  63.6841408  76.8484442  59.4236910  63.4480588
  77.6082479  57.7843542  62.4221167  78.3825843  58.1800075  61.9935006
  77.8528474  56.8791322  62.6700385  76.4559927  57.7422451  61.4369747
  75.9518490  58.8292641  61.0770903  76.0541382  56.6311276  61.0254555
  76.2404258  57.8139763  64.5177585  75.0850247  57.6784295  64.1144519
  76.6594278  57.3285529  65.6832002  77.4619196  57.4192310  65.9784939
  75.7713300  56.5870184  66.5736664  75.1131188  56.1306381  66.0268712
  76.5709766  55.5627370  67.3839817  77.2241744  56.0208502  67.9350034
  75.9766475  55.0866557  67.9850353  77.2279348  54.6403290  66.5355135
  77.8411832  55.0321371  66.1163777  75.0551451  57.5295244  67.5322131
  74.1224033  57.1338536  68.2333667  75.4929883  58.7842289  67.5506464
  76.1282597  59.0773358  67.0499872  74.9190787  59.7859507  68.4402639
  74.2293926  59.3679877  68.9791461  76.0193130  60.3417012  69.3502039
  76.6705929  60.8054881  68.8009233  75.6270647  61.0010828  69.9431105
  76.7522490  59.2948076  70.1987866  76.9701759  58.5287381  69.6456127
  78.0488327  59.8678679  70.7352225  78.5026707  59.1967635  71.2697419
  78.6175519  60.1299343  69.9946817  77.8565808  60.6433348  71.2856600
  75.8530165  58.8353283  71.3306880  76.3181725  58.1741623  71.8655669
  75.6190980  59.5944362  71.8871483  75.0446170  58.4435615  70.9637303
  74.2694115  60.9173722  67.6458599  74.9028626  61.9335453  67.3604934
  73.0006425  60.7331077  67.2905983  72.5385753  60.0336423  67.4833159
  72.2887026  61.7408935  66.5255425  71.3326007  61.6211299  66.6379827
  72.5060774  62.6228807  66.8651758  72.6428072  61.6597163  65.0545734
  72.4840404  62.6284556  64.3124500  73.1234734  60.4929937  64.6354262
  73.2358022  59.8058603  65.1407636  73.5036012  60.2940804  63.2495101
  73.5124914  61.1506644  62.7941171  74.4076665  59.9442198  63.2129930
  72.5712595  59.3477199  62.5171539  71.3910060  59.2546776  62.8503293
  73.1091958  58.6299056  61.5344799  73.9397340  58.6679415  61.3146511
  72.3190673  57.6988980  60.7321759  71.3932844  57.9441742  60.8832900
  72.7023378  57.8396382  59.2594746  73.6320671  57.5861146  59.1481275
  72.1744122  57.2185246  58.7338840  72.5028138  59.2435832  58.7148046
  71.5889901  59.5256507  58.8742481  73.0783529  59.8609855  59.1931070
  72.8042898  59.3167679  57.2286158  73.7181135  59.0347004  57.0691723
  72.2287955  58.6989794  56.7512348  72.6126181  60.6660658  56.7040711
  73.2950311  61.0669280  56.3689428  71.4527720  61.3161426  56.7106482
  70.3654450  60.7431493  57.2169067  70.4102539  59.9479385  57.5423738
  69.6173212  61.1671948  57.2194112  71.3780579  62.5443862  56.2121571
  72.0797152  62.9195284  55.8848477  70.6279931  62.9650383  56.2165897
  72.4340220  56.2353775  61.1496147  72.0208618  55.3379784  60.4125288
  72.9967163  55.9953896  62.3273812  73.3004484  56.6080581  62.8483976
  73.1454854  54.6362133  62.8401030  73.1219287  54.0092033  62.1008159
  74.5014039  54.4675231  63.5804372  74.5651544  55.1579298  64.2585989
  74.5866099  53.1034868  64.2591955  75.4391004  53.0209782  64.7139023
  73.8667630  53.0171962  64.9038547  74.5076106  52.4038865  63.5920317
  75.5802001  54.5955318  62.6460024  75.5098479  55.3245454  62.2343293
  72.0045886  54.3747423  63.8225517  71.6458082  55.2591773  64.6004363
  71.4116388  53.1846208  63.7725280  71.6087050  52.5641627  63.2108602
  70.3444735  52.8524120  64.7119669  69.7175236  53.5868430  64.8028778
  69.5291595  51.6438002  64.2406140  68.8498137  51.9402924  63.6153759
  70.1107204  51.0333194  63.7599415  68.8598006  50.8978052  65.3942635
  69.4758446  50.2341902  65.7416837  68.6812699  51.5231531  66.1133781
  67.5637594  50.2111369  65.0022918  67.6838215  49.7581009  64.1531154
  67.3489071  49.5302175  65.6585693  66.4497549  51.1509389  64.8969051
  66.6294365  51.9919600  64.9216257  65.1774921  50.7897069  64.7650273
  64.8489394  49.5047805  64.7199249  65.4597975  48.9020798  64.7761947
  64.0244930  49.2742581  64.6340842  64.2283842  51.7142762  64.6821374
  64.4361005  52.5482887  64.7134103  63.4056402  51.4793909  64.5965557
  71.0590025  52.5159153  66.0112130  71.8466453  51.5792280  66.0632294
  70.7760708  53.2823755  67.0561461  70.1994283  53.9199893  67.0464957
  71.4451015  53.0883672  68.3326773  72.0657012  52.3564029  68.1899244
  72.1652066  54.3896367  68.7281104  71.5201288  55.1139393  68.7212266
  72.7500831  54.2992310  70.1292311  73.1962175  55.1324440  70.3482862
  72.0376710  54.1363852  70.7674852  73.3900845  53.5710675  70.1662202
  73.2141651  54.6412464  67.7861600  73.5248989  55.4114852  67.9115939
  70.5533459  52.6387988  69.4781384  69.3835013  53.0156432  69.5616898
  71.1276655  51.8159825  70.3523955  71.9364036  51.5333013  70.2748705
  70.4392013  51.3110972  71.5309878  69.6322816  51.8319811  71.6670376
  70.0443000  49.8420089  71.3641510  70.8271001  49.3226322  71.1224509
  69.7240762  49.4950451  72.2111415  69.0440212  49.6737377  70.3784243
  68.9223746  50.4004034  69.9747746  71.3876182  51.4178564  72.7094464
  72.5926885  51.2114728  72.5708198  70.8395121  51.7547403  73.8672279
  70.0048151  51.9306334  73.9728851  71.6360506  51.8531289  75.0767006
  72.5486178  51.6182002  74.8469909  71.6192646  53.2741293  75.6645423
  70.7016927  53.5585652  75.7958550  72.3253729  53.2812099  77.0268261
  72.3121591  54.1786845  77.3939374  71.8665242  52.6785552  77.6322667
  73.2441621  52.9911894  76.9169920  72.2840600  54.2490161  74.6939030
  73.2171861  54.0044957  74.5883356  71.8677109  54.1608564  73.8218965
  72.1989848  55.7007722  75.1405758  72.6367131  56.2670674  74.4861870
  71.2677879  55.9613016  75.2212837  72.6379029  55.8015399  75.9994033
  71.0495532  50.9226789  76.1229428  69.8473227  50.9620617  76.3911365
  71.8971269  50.0715725  76.6898420  72.7249099  49.9991679  76.4694358
  71.4786115  49.1755963  77.7532189  70.5109757  49.1147345  77.7715180
  72.0122628  47.7395499  77.5648341  72.9812325  47.7597332  77.5359294
  71.5622305  46.8651063  78.7386285  71.8984294  45.9638905  78.6179916
  71.9092456  47.2314287  79.5667217  70.5928839  46.8454709  78.7753790
  71.4857211  47.1559559  76.2451910  70.5178089  47.1082645  76.2863912
  71.7092132  47.7619685  75.5212724  72.0371870  45.7683447  75.9177749
  71.6649350  45.4619506  75.0758722  73.0031616  45.8123732  75.8469127
  71.7938956  45.1484378  76.6227215  72.0884353  49.7526192  79.0248107
  73.3037839  49.7122493  79.2136070  71.2480247  50.3246899  79.8764381
  70.4004726  50.3945260  79.7472279  71.7184265  50.8907839  81.1274368
  72.6331055  51.1993585  81.0353816  70.8606896  52.0878140  81.5201050
  71.1846462  52.4577661  82.3562686  70.9124451  52.7645398  80.8265868
  69.9388203  51.8043843  81.6273927  71.6361034  49.8049744  82.1925652
  70.5737141  49.2146641  82.4092304  72.7599352  49.5386162  82.8478891
  73.5054705  49.9439036  82.7090896  72.8121606  48.5089157  83.8811511
  72.0191220  47.9624561  83.7687915  74.0768344  47.6166398  83.7234389
  74.0842530  46.9678315  84.4442341  74.0471533  46.8894295  82.3867152
  74.8398407  46.3373433  82.3012308  73.2570760  46.3294679  82.3401882
  74.0253964  47.5378830  81.6653834  75.2603350  48.4256109  83.7879222
  75.5234245  48.4751268  84.5838883  72.7962220  49.1125222  85.2811593
  73.4788534  50.0996084  85.5532167  72.0065613  48.5186390  86.1701232
  71.5208273  47.8295795  86.0025719  71.9094826  49.0149612  87.5356154
  72.6556932  49.6214109  87.6612915  70.5802896  49.7740035  87.7610924
  70.5303721  50.0561934  88.6882774  70.5311237  51.0076530  86.8652802
  69.6963877  51.4801874  87.0106347  71.2744876  51.5932320  87.0789467
  70.5909631  50.7356551  85.9364581  69.3914261  48.8560013  87.4666429
  69.4450734  48.5566423  86.5461892  69.4563016  48.0662128  88.0256843
  68.0382260  49.5127850  87.6949209  67.3324994  48.8796662  87.4909709
  67.9648694  49.7906013  88.6214126  67.9535960  50.2882929  87.1178289
  72.0127666  47.8895621  88.5555811  71.9738699  46.7129648  88.2074966
  72.1531550  48.2714170  89.8181190  72.1821770  49.0954967  90.0612331
  72.2717129  47.3276633  90.9210886  72.3735057  46.4380757  90.5486332
  73.4878912  47.6818192  91.7734388  74.2978648  47.4086743  91.3156172
  73.5370881  48.6436457  91.8877127  73.4222977  47.0540486  93.0427963
  74.0170153  47.3715678  93.5442357  71.0243048  47.3543372  91.7972367
  70.3513707  48.3774597  91.9028682  70.7016479  46.2223398  92.4400674
  71.2445684  44.8757070  92.1834309  72.1963854  44.8302116  92.3655312
  71.1189545  44.6064127  91.2604218  70.4400975  44.0007377  93.1452252
  70.8518108  43.9583543  94.0224286  70.3627171  43.0886908  92.8230843
  69.1079634  44.6904647  93.1876592  68.5704379  44.4000641  93.9408543
  68.5866691  44.5256693  92.3863174  69.5210703  46.1481864  93.3097707
  68.8251243  46.7728124  93.0508352  69.8351587  46.5247943  94.7592036
  68.9246301  46.6807364  95.5754694  71.1209806  46.6725460  95.0668520
  71.7583240  46.5882179  94.4957828  71.5734468  46.9964920  96.4223524
  71.0194278  46.4640753  97.0141096  73.0482416  46.6415121  96.5675811
  73.3461217  46.8566251  97.4649238  73.1709092  45.6929907  96.4049376
  73.5685337  47.1487885  95.9245944  71.3551498  48.4435135  96.8463857
  71.6169091  49.3689210  96.0851781  70.8881178  48.6292154  98.0790336
  70.7063670  47.9903808  98.6243510  70.6427092  49.9653820  98.6131266
  70.0269643  50.4250774  98.0217356  70.0209456  49.8692395 100.0108407
  69.8486445  50.7598669 100.3545996  69.1652992  49.4144483  99.9584075
  70.8800745  49.1721668 100.8957368  70.5250229  49.1294130 101.6559555
  71.9466169  50.7567802  98.6828379  71.9448638  51.9853508  98.6292081
  73.0588524  50.0412038  98.8009044  73.0718372  49.1819342  98.8394818
  74.3774734  50.6626811  98.8768155  74.3808501  51.2800522  99.6249829
  75.4412902  49.5748428  99.0886514  75.1744223  49.0665288  99.8708326
  75.3874545  48.9744223  98.3283363  76.9227185  49.9336647  99.2722979
  77.4042565  49.1510373  99.5839668  77.5360957  50.3527275  97.9484974
  78.4704148  50.5759624  98.0812942  77.4654297  49.6225438  97.3136942
  77.0645620  51.1276720  97.6038150  77.0623467  51.0302629 100.3211079
  77.9999618  51.2533164 100.4330456  76.5753624  51.8178590 100.0324096
  76.7015184  50.7188695 101.1654479  74.6947337  51.4588652  97.6126328
  75.4396440  52.4334303  97.6582446  74.1142994  51.0451460  96.4894768
  73.5725491  50.3784507  96.4490791  74.3536982  51.7018738  95.2064375
  75.1633679  52.2250134  95.3147244  74.5093676  50.6414131  94.1149962
  73.6865578  50.1323649  94.0447327  74.6448183  51.0801516  93.2601116
  75.6627676  49.6926175  94.3775074  75.5395574  48.4782298  94.1902617
  76.7986623  50.2390398  94.7955396  77.4839866  49.7427265  94.9459715
  76.8479859  51.0891463  94.9150719  73.2480108  52.6713876  94.7939921
  73.1881960  53.0894824  93.6392939  72.3842356  53.0382694  95.7365733
  72.4268894  52.7766522  96.5550183  71.2695253  53.9363524  95.4465788
  70.6717417  53.4085474  94.8940369  70.5924473  54.3797737  96.7486414
  70.2054471  53.5992439  97.1750758  71.2742139  54.7207956  97.3479588
  69.5000822  55.4437102  96.5998110  69.8768126  56.2462293  96.2058882
  68.4002494  54.9365046  95.6787256  67.7131952  55.6154891  95.5897610
  68.7743345  54.7395184  94.8051383  68.0104909  54.1304421  96.0522594
  68.9398943  55.7867636  97.9756773  68.2483048  56.4604208  97.8847001
  68.5629100  54.9893733  98.3804459  69.6515765  56.1286210  98.5391567
  71.6166281  55.1717645  94.6244891  70.9917846  55.4317534  93.6014043
  72.6051950  55.9362657  95.0705589  73.0671638  55.7680901  95.7764447
  72.9870905  57.1569638  94.3665156  72.1884369  57.7069918  94.3407158
  74.1089058  57.8773544  95.1164902  73.8270936  58.0339640  96.0316160
  74.8863311  57.2980183  95.1549151  74.5099300  59.2028300  94.4880032
  74.7068877  59.0646342  93.5489060  73.7614086  59.8174512  94.5335160
  75.7156830  59.8317756  95.1651680  75.6339742  60.1265478  96.3781239
  76.7458315  60.0305041  94.4830844  73.4114617  56.9267113  92.9186368
  72.9518335  57.6247025  92.0179487  74.2956222  55.9607224  92.6920913
  74.6420209  55.4611165  93.3004759  74.7480638  55.6821766  91.3311425
  75.0372589  56.5261960  90.9491067  75.9217586  54.7020913  91.3385888
  75.7056757  53.9631030  91.9282518  76.0240862  54.3331562  90.4473823
  77.2510375  55.3018475  91.7739141  77.1945997  55.5496925  92.7098119
  77.9430661  54.6259085  91.7000168  77.6604849  56.5224150  90.9599350
  77.2451267  56.6445713  89.7863873  78.4187457  57.3603016  91.4957303
  73.6228641  55.1217020  90.4671090  73.5543186  55.3898376  89.2684219
  72.7409917  54.3339470  91.0708856  72.7712470  54.1170756  91.9021795
  71.6256446  53.7682960  90.3290247  71.9763717  53.2809437  89.5671243
  70.8318787  52.7846870  91.2089362  70.6181872  53.2176641  92.0499164
  69.5288826  52.3831585  90.5384939  69.0474983  51.7644287  91.1100711
  68.9858715  53.1728480  90.3869037  69.7200268  51.9555425  89.6889185
  71.6330961  51.6181962  91.4396482  71.4928019  51.3305957  92.2159397
  70.7117918  54.8849658  89.8256643  70.3006633  54.8848307  88.6646831
  70.3996383  55.8423561  90.6959040  70.6671861  55.8627834  91.5131065
  69.5501987  56.9592137  90.3012860  68.7178588  56.6007475  89.9537947
  69.2339178  57.8566831  91.5058765  70.0712308  58.0960088  91.9334290
  68.8391210  58.6787296  91.1761219  68.3028988  57.2731773  92.5721343
  68.7048027  56.4786921  92.9565136  68.0891086  58.3010545  93.6820492
  67.4989876  57.9309789  94.3577291  68.9426491  58.5239742  94.0856536
  67.6899483  59.1025644  93.3091645  66.9749028  56.8875819  91.9367227
  66.3865176  56.5184969  92.6138187  66.5632113  57.6741544  91.5451607
  67.1268190  56.2246232  91.2454664  70.2431556  57.7820339  89.2210260
  69.6049757  58.2562382  88.2840512  71.5555802  57.9466739  89.3564534
  72.0193564  57.6233670  90.0048154  72.3207614  58.7117135  88.3841334
  71.9387353  59.6005575  88.3118667  73.7753635  58.8357743  88.8397074
  73.8154145  59.3111094  89.6839310  74.1468706  57.9531514  88.9932431
  74.5473190  59.5174365  87.8700940  74.0426975  59.9818722  87.3849109
  72.2549846  58.0317668  87.0190507  72.0502503  58.6842171  85.9924414
  72.4232037  56.7150967  87.0157106  72.5720992  56.2449624  87.7198652
  72.3642061  55.9519549  85.7760615  73.0127892  56.3317925  85.1624130
  72.7212382  54.4726072  86.0307304  72.1807684  54.1430611  86.7654873
  72.4279670  53.6168836  84.7983984  72.6605427  52.6933423  84.9827840
  71.4844364  53.6753821  84.5801006  72.9527249  53.9382869  84.0490526
  74.1146442  54.3798965  86.3528196  74.2789438  53.6208786  86.6724513
  70.9768558  56.0462713  85.1439242  70.8466773  56.2539483  83.9380856
  69.9368330  55.9048646  85.9568884  69.9905662  55.7668438  86.8038146
  68.5807440  55.9800605  85.4226702  68.5205749  55.3417180  84.6945235
  67.5665816  55.6131325  86.5099579  67.6950508  56.2007762  87.2710549
  66.6721126  55.7758963  86.1734285  67.6618714  54.1590764  86.9844205
  68.5756253  53.9597102  87.2417137  66.7789483  53.9517966  88.1995468
  66.8447216  53.0302032  88.4938059  67.0686358  54.5404514  88.9141507
  65.8582811  54.1528235  87.9693358  67.2729804  53.2219289  85.8506836
  67.3341957  52.3030497  86.1549855  66.3629745  53.4101059  85.5733216
  67.8735195  53.3548501  85.1000420  68.2612732  57.3571451  84.8432685
  67.6328732  57.4613552  83.7908699  68.6969825  58.4100901  85.5272410
  69.1401487  58.3577701  86.2619874  68.4459308  59.7727197  85.0654440
  67.4974190  59.8922705  84.9044596  68.8945466  60.7703410  86.1380510
  68.9808641  60.3006013  86.9821765  69.7767058  61.1002993  85.9056705
  67.9672444  61.9595787  86.3354630  68.3133937  62.5207834  87.0466669
  67.9598995  62.4971407  85.5278677  66.5462183  61.5427058  86.6726732
  65.7825542  61.2263199  85.7370808  66.1929918  61.5189847  87.8727742
  69.2053768  60.0196189  83.7578800  68.7047134  60.6730018  82.8426582
  70.4171141  59.4803290  83.6779985  70.7759799  59.0195153  84.3096369
  71.2557106  59.6257227  82.4955258  71.3348731  60.5659281  82.2725704
  72.6423489  59.0509385  82.7916866  72.9881786  59.4767820  83.5916048
  72.5479484  58.1061137  82.9906531  73.6595451  59.2099732  81.6843940
  73.6491839  58.3727105  80.5676049  72.9788731  57.7334920  80.4798552
  74.6291728  58.4813668  79.5821058  74.6157752  57.9174503  78.8427245
  75.6256930  59.4401158  79.7152178  76.6292676  59.5324955  78.7792745
  77.3492246  59.7383434  79.1594265  75.6458901  60.2846355  80.8085209
  76.3121542  60.9282997  80.8896478  74.6690744  60.1677788  81.7817447
  74.6862644  60.7392546  82.5154271  70.6290042  58.9056583  81.3037219
  70.5554823  59.4479563  80.2039295  70.1727291  57.6806695  81.5363469
  70.2104738  57.2925892  82.3031005  69.5592526  56.8787449  80.4886745
  70.1613224  56.8854017  79.7284426  69.3539679  55.4494663  80.9816329
  68.9452683  54.9198382  80.2791113  70.2112182  55.0627940  81.2195939
  68.7753855  55.4553481  81.7600890  68.2274871  57.4557380  80.0312156
  67.9465134  57.5100697  78.8357224  67.4116038  57.8873899  80.9855950
  67.5980022  57.8722277  81.8254728  66.1003867  58.4345203  80.6622330
  65.6088962  57.7708251  80.1528375  65.3343306  58.7380952  81.9501578
  65.4429031  57.9952418  82.5647389  65.7263968  59.5172715  82.3749547
  63.8754671  58.9830731  81.7352459  63.3746971  60.2066059  81.3477646
  62.0659582  60.1152039  81.1940173  61.4988606  60.8060365  80.9370318
  61.6994391  58.8754444  81.4681836  60.7547288  58.5207001  81.4316328
  62.8124348  58.1471474  81.8109868  62.8320115  57.2484740  82.0498063
  66.2123574  59.6767420  79.7860550  65.3915026  59.8991339  78.8967613
  67.2418867  60.4798933  80.0270828  67.8223712  60.3452852  80.6468451
  67.4705778  61.6818322  79.2379659  66.6444024  62.1885790  79.2083856
  68.5695834  62.5253935  79.8767889  69.3401969  61.9588475  80.0403018
  68.8472205  63.2053349  79.2430970  68.1817907  63.2031778  81.1751106
  67.4774384  63.8501643  81.0160468  67.8309831  62.5499047  81.8007480
  69.3986092  63.8901216  81.7642540  69.1186926  64.5713188  82.3955749
  69.9316592  63.2475058  82.2580198  70.2041518  64.4956210  80.7078929
  69.9054832  64.4516304  79.9029489  71.3653890  65.1097780  80.9034442
  71.8741166  65.2125248  82.1244025  71.4509582  64.8800665  82.7957910
  72.6262506  65.6112074  82.2440965  72.0240955  65.6153933  79.8709646
  71.6998832  65.5454196  79.0780787  72.7767484  66.0137751  79.9937635
  67.8899291  61.3133028  77.8181104  67.4628277  61.9403363  76.8481041
  68.7319548  60.2893446  77.7028179  69.0309440  59.8375600  78.3704601
  69.2258195  59.8430673  76.4062994  69.6566751  60.6039282  75.9857674
  70.2342890  58.7142136  76.5960355  70.5596696  58.4216792  75.7303490
  70.9789037  59.0318957  77.1304117  69.8065464  57.9706825  77.0486454
  68.1042329  59.3920315  75.4740011  68.2767673  59.3610105  74.2575700
  66.9585832  59.0423074  76.0473890  66.8214754  59.0564260  76.8968265
  65.8140849  58.5953306  75.2568389  66.0986241  57.8014332  74.7777623
  64.6293123  58.2693346  76.1666140  64.4258798  59.0525694  76.7013144
  63.8527052  58.0940622  75.6120891  64.8358807  57.0877065  77.0972006
  64.9622062  56.2784580  76.5770538  65.6425654  57.2180203  77.6194755
  63.6382134  56.9201298  78.0305988  63.7970539  56.1744864  78.6307110
  63.5437009  57.7133657  78.5815601  62.3482540  56.6825126  77.2556571
  62.2515909  57.3654646  76.5730540  62.4005272  55.8292684  76.7977326
  61.1505245  56.6962598  78.1435068  60.4529242  56.3586626  77.7059502
  61.3121540  56.2054659  78.8676872  60.9707471  57.5333242  78.3870255
  65.3729447  59.6496779  74.2452298  64.7771138  59.3224609  73.2209542
  65.6710320  60.9119782  74.5341434  66.1055392  61.1552651  75.2358506
  65.2727759  62.0104381  73.6594213  64.4021924  61.7542813  73.3176055
  65.2030660  63.3145595  74.4602521  66.0849096  63.5262084  74.8045698
  64.9477033  64.0402874  73.8695111  64.2194755  63.2366563  75.6129466
  63.0404108  62.9382118  75.4203659  64.7019363  63.5070562  76.8229749
  64.1845635  63.4769821  77.5084871  65.5321920  63.7120607  76.9195436
  66.1511892  62.2197764  72.4236691  65.8610848  63.0822002  71.5956072
  67.2161057  61.4340444  72.2964600  67.4382337  60.8263524  72.8623218
  68.1106939  61.5535779  71.1481805  68.2969707  62.4977392  71.0291284
  69.4357698  60.8039205  71.3935633  69.2459580  59.8678810  71.5606939
  70.3299881  60.9077661  70.1649175  71.1604230  60.4337204  70.3273944
  69.8788399  60.5147208  69.4012385  70.5210914  61.8415129  69.9815673
  70.1441090  61.3964510  72.6147644  70.3161069  62.3372999  72.4526874
  69.5498537  61.3438149  73.3792199  71.4469950  60.7118515  72.9590516
  71.8398261  61.1353265  73.7383241  71.2804249  59.7757507  73.1499902
  72.0591679  60.7842898  72.2096238  67.4541812  61.0056684  69.8823815
  66.9209640  59.8950679  69.8758136  67.5090729  61.7908441  68.8097805
  67.8951478  62.5594035  68.8016819  66.9084670  61.4098776  67.5330980
  66.3645237  60.6259003  67.7052235  66.0551949  62.5656615  67.0008571
  66.6506579  63.2838310  66.7367694  65.6029571  62.2622191  66.1977303
  65.0030145  63.1443999  67.9513283  65.4270885  63.4125396  68.7811857
  64.3584523  64.3760474  67.3213435  63.6928306  64.7390500  67.9270372
  65.0385961  65.0461369  67.1502046  63.9327240  64.1273115  66.4855907
  63.9580143  62.0844135  68.2654820  63.2927395  62.4535039  68.8671986
  63.5276807  61.8007784  67.4435434  64.3865820  61.3219524  68.6858684
  67.9404225  61.0225559  66.4728242  68.8479920  61.7971431  66.1694477
  67.7858999  59.8270410  65.9096937  67.1559832  59.2810751  66.1195701
  68.6850146  59.3269567  64.8693925  69.3826852  59.9851362  64.7260558
  69.3277824  58.0045891  65.3073053  68.6536624  57.4434770  65.7224660
  69.6488356  57.5307640  64.5242986  70.4787109  58.2048139  66.2773911
  70.3519187  58.9181660  67.2740132  71.6108703  57.5686052  65.9914269
  72.2915919  57.6468601  66.5110300  71.6629281  57.0783294  65.2862457
  67.9156623  59.1140903  63.5682753  66.6944426  58.9530872  63.5818931
  68.6345147  59.1089506  62.4479161  69.4878908  59.2116947  62.4266831
  68.0174958  58.9245709  61.1350498  67.0780270  58.7260283  61.2744382
  68.1659107  60.2018856  60.3054583  69.1011444  60.3199233  60.0771711
  67.6819289  60.0914526  59.4719062  67.6671691  61.4595139  61.0002129
  66.7090087  61.3974615  61.1369467  68.0750936  61.5307160  61.8774596
  67.9867449  62.7039355  60.1864953  67.5237511  62.6636375  59.3346515
  67.6582465  63.4894521  60.6511720  69.4874645  62.8409633  59.9473448
  69.7951795  62.0983631  59.4039837  69.6595531  63.6515767  59.4441188
  70.2626942  62.8758975  61.2202563  71.1188703  63.0430988  61.0424748
  69.9388149  63.5156453  61.7473360  70.1936597  62.0892875  61.6319308
  68.6539165  57.7566751  60.3789558  69.5380639  57.9575113  59.5453029
  68.2026891  56.5215551  60.6548460  67.1084224  56.1902762  61.5873099
  66.2417346  56.4446192  61.2324649  67.2101053  56.6429250  62.4396476
  67.2424438  54.6842177  61.7265761  66.4070728  54.2703203  61.9942142
  67.9055724  54.4400990  62.3908400  67.6539690  54.2705106  60.3500302
  66.9109029  54.2951763  59.7268197  68.0084343  53.3676810  60.3331128
  68.7179742  55.3073344  60.0111316  69.6046509  55.0767909  60.3304797
  68.9451212  55.4412076  58.5029860  69.3425456  56.4991490  58.0208460
  68.6755404  54.3526155  57.7829635  68.3868901  53.6248363  58.1388096
  68.8306119  54.2552320  56.3279070  69.2536417  53.3926627  56.1910271
  67.4644424  54.3324222  55.6387165  66.8549307  53.7134158  56.0709658
  67.0981749  55.2225986  55.7594444  67.5237069  54.0146983  54.1480495
  68.1852838  54.5857474  53.7278960  67.8229015  53.0998864  54.0300253
  66.1933143  54.1965158  53.4456245  65.7502675  55.3544627  53.2959362
  65.5891232  53.1805612  53.0404254  69.7604150  55.2825688  55.6919869
  70.9470629  54.9483950  55.4909159  69.3228597  56.4952813  55.3631044
  68.5180566  56.7754549  55.4806323  70.2282629  57.4529272  54.7599383
  70.2051353  58.2554845  55.3037370  71.6491132  56.9136457  54.7111337
  71.6582371  56.0604957  54.2488353  72.5404297  57.9036254  53.9691653
  73.4470780  57.5614384  53.9368248  72.2085951  58.0244325  53.0655972
  72.5331947  58.7557113  54.4320113  72.1678749  56.7290253  56.1335007
  73.0747472  56.3849071  56.1057667  72.1608899  57.5831277  56.5939236
  71.5995606  56.1019570  56.6070388  69.7926900  57.7568707  53.3336184
  70.5865278  57.6414517  52.4032555  68.5269094  58.1475501  53.1649677
  67.8511823  57.7437899  53.5115807  68.1827874  59.3065439  52.3672595
  68.4544171  59.1208928  51.4545646  66.6868758  59.5789779  52.4066203
  66.3732049  59.5528101  53.3248217  66.5075392  60.4712148  52.0708455
  65.9262179  58.5555017  51.5749723  66.5064443  57.8925607  50.7174442
  64.6224003  58.4282575  51.8314397  64.1499976  57.8625806  51.3882565
  64.2544705  58.9117488  52.4406013  68.8974197  60.5398930  52.9016382
  68.7824789  60.8624107  54.0822550  69.6361563  61.2283162  52.0287346
  69.7239584  61.0119729  51.2011185  70.3649364  62.4202699  52.4137371
  71.0853252  62.1418363  53.0000475  70.9430775  63.1288748  51.1989216
  70.2570624  63.2488205  50.5238755  71.2553618  64.0132885  51.4459519
  72.0957791  62.3039792  50.6342276  72.8120101  62.2556229  51.2857159
  71.7979691  61.3946959  50.4715833  72.6204034  62.9106755  49.3402188
  72.0687040  63.8888411  48.8414985  73.6899161  62.3253165  48.7974985
  74.0464759  61.6418164  49.1795963  74.0228007  62.6311389  48.0661501
  69.4376348  63.3928215  53.1270534  69.7848072  63.9257755  54.1780364
  68.2542904  63.6216491  52.5511506  68.0003499  63.2534127  51.8164995
  67.2828699  64.5271201  53.1310363  67.6770304  65.4136726  53.1307637
  65.9943019  64.5441542  52.3238490  65.6599129  63.6411507  52.2101183
  65.3104055  65.0425307  52.7972364  66.2602644  65.1800695  50.9634973
  66.6071589  66.0783660  51.0779026  66.9361537  64.6743846  50.4852647
  64.9652079  65.2166953  50.1583264  64.6134793  64.3185867  50.0518328
  64.2926182  65.7307500  50.6323094  65.2335487  65.8387468  48.7920471
  65.5774269  66.7394815  48.8978526  65.9116855  65.3289080  48.3217324
  63.9887870  65.8627784  48.0117121  64.1450817  66.2261945  47.2143260
  63.6886830  65.0311359  47.9056067  63.3773101  66.3456267  48.4425049
  66.9424403  64.0904324  54.5492240  66.9392363  64.9609516  55.4157752
  66.6953098  62.8983090  54.7214141  83.1171741  45.3600367  82.8380460
  81.6438230  46.0925273  85.9151119  80.5822633  45.6081047  84.9756660
  79.3251878  46.5971139  84.8403407  81.1141958  45.2948009  83.6418663
  80.0140536  44.3266498  85.6144587  80.4326238  42.8328537  85.4606471
  79.6216752  42.2249858  84.4084166  81.8526649  42.6638633  85.1644282
  80.2840574  42.2842654  86.9528401  79.1175058  42.2561012  87.7174041
  78.3314887  42.2838031  87.1496553  79.0707314  43.0261411  88.3051623
  79.1633879  40.9575446  88.5221268  79.6279905  41.1139911  89.3585448
  77.8129933  40.5744333  88.6008736  77.5718632  39.3275750  87.9390265
  77.4152391  38.5821670  88.5393870  76.3643275  39.5347620  87.0958159
  76.0695421  40.6749235  86.4365138  76.6135759  41.4777148  86.4339967
  74.9227995  40.5271323  85.7932049  74.4775883  39.3206488  86.0254516
  73.3567659  38.5943399  85.6441570  72.4361491  39.1585523  84.8519991
  72.5399491  39.9682078  84.5807143  71.7409543  38.7111559  84.6146833
  73.1957863  37.3058751  86.0789387  74.1003340  36.7037234  86.8820232
  73.9681223  35.7890309  87.1768665  75.1887965  37.3975224  87.2642880
  75.4116318  38.6770663  86.8672594  79.8874732  39.8081013  87.8172620
  80.5615498  40.1574434  87.2134682  80.5695389  38.9452949  88.7498335
  80.2116735  38.1856414  88.7418413  78.8099147  39.0196901  87.1093414
  78.7006942  39.2739176  86.1792397  79.1070489  37.6251812  86.9628999
  79.5318079  37.5020875  86.2480735  82.0391402  33.7399850  74.8541064
  81.8872299  34.1673052  76.1705454  81.0292735  33.4852474  77.0269525
  80.3223503  32.3758221  76.5680288  80.4746003  31.9497460  75.2510094
  81.3334787  32.6314648  74.3944154  82.6515964  35.3919156  76.6825604
  82.3409551  36.5335494  75.8086507  83.2945975  37.1296413  74.9755897
  84.6182952  36.6784005  74.9673338  85.0383270  35.6508954  75.8208134
  84.1484175  35.0662549  76.7174431  79.5209273  31.7441998  77.3657653
  84.6408055  34.0877423  77.7854857  85.9086585  33.6014974  77.6936351
  86.2457344  32.7008618  78.7584639  87.7202025  32.3239732  78.6101471
  86.4978548  35.2018069  75.7243615  83.8961820  33.7649776  78.7099379
  82.8543637  38.4374183  73.9529547  85.1838550  37.0387829  74.4288028
  86.6789537  34.8788872  74.8279911  87.0810210  35.9510141  75.9210715
  86.6608120  34.4901107  76.3634691  87.8601792  31.8948828  77.7515885
  88.2657264  33.1239759  78.6628297  87.9720313  31.7140295  79.3212357
  86.0882282  33.1195592  79.6189453  85.6877200  31.9083777  78.7214803
  81.5402225  36.8476047  75.8099354  82.3852547  35.6269433  77.5853062
  81.4408357  32.3344946  73.4777774  79.9816405  31.1777466  74.9307304
  80.9232678  33.7823503  77.9446657  82.6371837  34.2152203  74.2568591
  79.4149776  32.0386148  78.2725803  71.0595271  26.2372856  77.0253702
  90.0595271  29.2372856  59.0253702  66.0595271  43.2372856  35.0253702
  83.0595271  44.2372856  88.0253702  78.0595271  40.2372856  37.0253702
  72.0595271  26.2372856  60.0253702  85.0595271  38.2372856  80.0253702
  41.0595271 122.2372856  31.0253702  50.0595271   2.2372856 100.0253702
   9.0595271  99.2372856 101.0253702  62.0595271 129.2372856  45.0253702
   2.0595271  23.2372856  62.0253702  68.0595271  50.2372856  52.0253702
 100.0595271  41.2372856  61.0253702  20.0595271 116.2372856  99.0253702
  20.0595271  92.2372856 114.0253702  29.0595271  18.2372856 100.0253702
  73.0595271   9.2372856 113.0253702  77.0595271  20.2372856  77.0253702
  40.0595271  23.2372856  16.0253702  -1.9404729  50.2372856  87.0253702
  -1.9404729  31.2372856  44.0253702  21.0595271  64.2372856   0.0253702
  93.0595271 102.2372856 105.0253702  -1.9404729  73.2372856  47.0253702
  20.0595271 117.2372856  73.0253702 115.0595271  62.2372856 119.0253702
   3.0595271  44.2372856 103.0253702  85.0595271  55.2372856  87.0253702
  31.0595271 108.2372856 114.0253702  -0.9404729  97.2372856  62.0253702
  93.0595271 125.2372856  92.0253702   2.0595271  22.2372856  89.0253702
 126.0595271  24.2372856  65.0253702   7.0595271  77.2372856 112.0253702
  20.0595271  18.2372856  29.0253702  86.0595271 136.2372856  58.0253702
  54.0595271  46.2372856  90.0253702 114.0595271  87.2372856 106.0253702
  40.0595271 124.2372856  86.0253702  42.0595271  69.2372856 -10.9746298
  31.0595271  84.2372856 128.0253702  -1.9404729  54.2372856  31.0253702
 127.0595271  93.2372856  51.0253702  61.0595271  31.2372856   3.0253702
 114.0595271 110.2372856  93.0253702   8.0595271  91.2372856  20.0253702
 127.0595271  70.2372856  91.0253702  -1.9404729  73.2372856  73.0253702
  20.0595271  37.2372856  16.0253702  86.0595271 136.2372856  84.0253702
  52.0595271  46.2372856 128.0253702  63.0595271  54.2372856 -10.9746298
  46.0595271 120.2372856  11.0253702 127.0595271  93.2372856  78.0253702
  -0.9404729  73.2372856 102.0253702  61.0595271   8.2372856  16.0253702
  62.0595271 130.2372856  75.0253702 101.0595271  38.2372856  80.0253702
  28.0595271  37.2372856 113.0253702  -0.9404729  51.2372856  60.0253702
  41.0595271 122.2372856  62.0253702  71.0595271  30.2372856 127.0253702
  -1.9404729  97.2372856  35.0253702  66.0595271  -2.7627144  73.0253702
  -0.9404729  28.2372856  73.0253702  30.0595271 100.2372856   7.0253702
  69.0595271 127.2372856  24.0253702  46.0595271  96.2372856 128.0253702
  93.0595271  55.2372856 132.0253702  68.0595271  30.2372856  56.0253702
  -0.9404729 100.2372856  83.0253702  41.0595271   0.2372856  28.0253702
   8.0595271  67.2372856   6.0253702  39.0595271 123.2372856 109.0253702
 127.0595271  23.2372856  91.0253702  61.0595271  76.2372856 136.0253702
 127.0595271  70.2372856  38.0253702  19.0595271 117.2372856  47.0253702
  99.0595271 128.2372856  47.0253702  72.0595271 126.2372856 102.0253702
  50.0595271  22.2372856 114.0253702 127.0595271  47.2372856  51.0253702
  87.0595271  22.2372856  85.0253702  93.0595271  78.2372856 119.0253702
  53.0595271  74.2372856 -13.9746298  27.0595271   4.2372856  93.0253702
 100.0595271  95.2372856  20.0253702  19.0595271 107.2372856  20.0253702
  41.0595271  45.2372856   3.0253702   5.0595271  30.2372856 100.0253702
  -1.9404729 107.2372856  61.0253702 127.0595271  47.2372856  78.0253702
 126.8165271  47.5442856  82.7823702  39.8165271 122.5442856  65.7823702
  67.8165271  -4.4557144  75.7823702 126.8165271  24.5442856  69.7823702
  61.8165271 130.5442856  78.7823702 100.8165271  98.5442856  18.7823702
  27.8165271   6.5442856  95.7823702  -1.1834729  98.5442856  79.7823702
 126.8165271  69.5442856  42.7823702 111.8165271  90.5442856 105.7823702
  62.8165271  73.5442856 137.7823702   5.8165271  80.5442856 112.7823702
  35.8165271  54.5442856   0.7823702  55.8165271  45.5442856 127.7823702
  97.8165271 130.5442856  49.7823702  35.8165271   7.5442856  27.7823702
 127.8165271  93.5442856  81.7823702  89.8165271  28.5442856   1.7823702
  40.8165271 123.5442856 105.7823702  91.8165271 105.5442856 105.7823702
  -2.1834729 100.5442856  62.7823702  21.8165271  67.5442856  -1.2176298
  30.8165271  34.5442856 112.7823702  57.8165271  12.5442856  16.7823702
  91.8165271 128.5442856  92.7823702 117.8165271  60.5442856 120.7823702
  29.8165271 111.5442856 112.7823702  49.8165271   4.5442856 102.7823702
  92.8165271  57.5442856 134.7823702  16.8165271 105.5442856  17.7823702
 127.8165271  47.5442856  54.7823702  -2.1834729  69.5442856 102.7823702
  -2.1834729  56.5442856  33.7823702  58.8165271  29.5442856   0.7823702
 127.8165271  70.5442856  94.7823702 102.8165271  43.5442856   2.7823702
 127.8165271  93.5442856  54.7823702   3.8165271  27.5442856  97.7823702
  90.8165271  79.5442856 121.7823702  14.8165271  19.5442856  30.7823702
  -2.1834729  69.5442856  72.7823702  30.8165271  81.5442856 130.7823702
  53.8165271  77.5442856 -15.2176298  51.8165271  19.5442856 115.7823702
   5.8165271  65.5442856   3.7823702  65.8165271 128.5442856  22.7823702
  -3.1834729  26.5442856  70.7823702  35.8165271  29.5442856  14.7823702
   5.8165271  89.5442856  17.7823702  74.8165271   6.5442856 114.7823702
 112.8165271 113.5442856  93.7823702  43.8165271  97.5442856 130.7823702
 129.8165271  22.5442856  88.7823702  42.8165271 121.5442856   9.7823702
 123.8165271  28.5442856  28.7823702  18.8165271 119.5442856  49.7823702
  74.8165271 128.5442856 101.7823702  60.8165271  52.5442856 -13.2176298
  18.8165271  95.5442856 114.7823702  72.8165271  27.5442856 128.7823702
  27.8165271  98.5442856   4.7823702  -4.1834729  48.5442856  84.7823702
 130.8165271  51.5442856  79.7823702  83.8165271 125.5442856  29.7823702
  17.8165271  35.5442856  13.7823702  29.8165271  19.5442856 103.7823702
 122.8165271  51.5442856  14.7823702  -4.1834729  71.5442856  44.7823702
  43.8165271  42.5442856   3.7823702  -4.1834729  29.5442856  41.7823702
  58.8165271 128.5442856  46.7823702   2.8165271  44.5442856 106.7823702
 100.8165271  20.5442856  14.7823702   8.8165271 101.5442856 103.7823702
  -5.1834729  95.5442856  34.7823702  85.8165271 138.5442856  60.7823702
  19.8165271 119.5442856  75.7823702  90.8165271  51.5442856 -11.2176298
  -3.1834729  49.5442856  57.7823702  28.8165271  -2.4557144  93.7823702
  68.8165271  -1.4557144  59.7823702  39.8165271  67.5442856 -13.2176298
  38.8165271  -1.4557144  25.7823702 126.8165271  27.5442856  58.7823702
 132.8165271  25.5442856  61.7823702 110.8165271  36.5442856  14.7823702
  56.8165271  -6.4557144  83.7823702  38.8165271 127.5442856  86.7823702
  63.8165271 111.5442856  12.7823702  -1.1834729  23.5442856  87.7823702
  88.8165271 138.5442856  83.7823702  98.8165271   7.5442856  90.7823702
 113.8165271  58.5442856   2.7823702  70.4469505  55.1977408 133.4346947
  70.1120873  55.8754329 132.9991169  70.9596375  54.8082719 132.8463819
  70.4735086  55.2401986 133.2833739  75.2320295  48.7265972 135.7589548
  75.1159821  49.4773658 136.1881686  76.0276181  48.4689925 136.0085635
  75.3324884  48.8000818 135.8593640  72.9549600  49.4573616 134.0703838
  72.8700895  50.3134582 134.2153407  73.4433983  49.1817940 134.7385997
  73.0138497  49.5430937 134.1905919  70.6201555  52.3355120 132.2799894
  71.0352704  52.0040144 131.5884390  69.7893485  52.1024022 132.1520030
  70.5589564  52.2526376 132.1590741  73.3134946  48.5865680 131.4661095
  73.2315108  48.6567867 132.3316082  73.9514666  49.1495424 131.2744836
  73.3954783  48.6804651 131.5651045  67.2109022  55.5214817 136.0149273
  67.5007320  55.1303798 135.2908500  67.9412503  55.7031522 136.4554549
  67.3615906  55.4908631 135.9732080  67.3182893  58.8711589 137.8640116
  67.9706951  58.3388032 138.0931142  66.6208502  58.5180242 138.2507990
  67.3113611  58.7401112 137.9552283  71.7829389  54.1354788 136.6308174
  71.5416065  53.4022648 136.2235239  71.9630722  54.6841645 135.9774507
  71.7737013  54.1077179 136.4738397  76.5085509  51.2422231 133.9996731
  76.1292318  50.4559369 133.9926021  75.8451755  51.7909088 133.8568376
  76.3543984  51.2067055 133.9777528  71.8551078  51.8247934 129.8185507
  72.6224063  51.8848059 129.4091359  71.4082387  51.2528375 129.3341825
  71.9024505  51.7484510 129.6863217  74.7545608  53.4867722 134.3348417
  74.8365445  54.2934708 134.0109868  75.2395350  53.5063681 135.0589191
  74.8382766  53.6088384 134.3935316  68.5590151  53.4279845 134.5879859
  68.6282971  52.5694383 134.7272859  69.3378606  53.6451725 134.2598883
  68.6843001  53.3332709 134.5597016  72.9497638  55.8517546 138.8016352
  72.5577430  55.5484261 138.0839218  73.1050710  56.6886636 138.6121306
  72.9151228  55.9301383 138.6672849  67.9025678  48.0966700 131.2822617
  68.1918203  48.8731583 131.5566191  67.9897477  47.5855432 131.9837116
  67.9579935  48.1358618 131.4265115  72.2494380  52.0603527 134.6685961
  72.9728579  52.5261640 134.5250534  71.8094971  52.1277136 133.9183558
  72.2910072  52.1387364 134.5370742  72.5098230  56.1224232 134.8284022
  71.7927539  55.9485094 134.3631259  73.1604967  55.8876804 134.2959508
  72.5000080  56.0620024 134.6813240  78.8918528  51.0928042 135.3940877
  79.2752134  51.8419399 135.6238974  78.0962642  51.3393862 135.1352866
  78.8312310  51.2397736 135.3898451  81.2077439  61.7372587 132.8477962
  81.4473443  61.9450571 132.0353305  81.5293280  60.9330095 132.9566906
  81.2914597  61.6486688 132.7438515  76.5167729  53.6665982 136.6937500
  77.2713697  54.0344300 136.4554550  76.3395264  54.0405537 137.4616679
  76.6022208  53.7764170 136.7722388  74.8724794  56.0736301 133.3915613
  74.6900367  56.2908182 132.5656605  75.7350407  56.1875314 133.4474227
  74.9729384  56.1226199 133.2770100  80.5524513  53.0762712 136.4264636
  81.2810674  52.8978667 135.9802793  80.6419406  53.9180792 136.6371814
  80.6731175  53.1746591 136.3918154  74.4186821  59.3510474 131.9038086
  73.7044998  59.0648654 132.3160518  74.9030790  59.6907100 132.5444473
  74.3846184  59.3592124 132.0593721  73.5486152  57.9650445 136.7142560
  73.2610948  57.5951715 135.9774507  74.2356620  58.4345300 136.4526265
  73.6075049  57.9797414 136.5657636  71.1214347  58.7431657 137.5627841
  71.2230483  59.5457819 137.8908816  71.9170233  58.5418993 137.2650922
  71.2542252  58.8317556 137.5663196  78.8758262  63.6152008 131.2822617
  79.1650787  64.3916891 131.5566191  78.9630061  63.1040739 131.9837116
  78.9312518  63.6543926 131.4265115  75.6622946  57.2787791 130.5617199
  75.3135750  57.9307516 131.0248748  75.1819392  57.2644904 129.8341070
  75.5393190  57.3730844 130.5228290  76.0647077  60.7713432 133.4035820
  76.6992157  61.3673857 133.3385282  76.1472688  60.4716890 134.2181691
  76.1703628  60.8154340 133.5138907  77.6426060  56.7027408 133.3781262
  77.9641901  56.2230490 132.7240525  77.9053004  57.5127054 133.1872074
  77.7292085  56.7517306 133.2536755  80.7037171  58.6435531 134.8771926
  80.1102010  58.9652528 134.3256493  80.7412449  57.7976627 134.6693033
  80.6211560  58.5659860 134.7654698  78.6766403  59.2832782 132.9701256
  79.0565368  59.3012411 132.1852371  77.9358999  59.7286771 132.8492104
  78.6235241  59.3514557 132.8364824  78.6685574  55.5094310 135.6528888
  79.4901268  55.6792623 135.4110583  78.2055225  55.6641571 134.9295185
  78.7216736  55.5576043 135.5100532  70.1420328  32.1355539 120.3686994
  69.8071697  32.8132461 119.9331216  70.6547199  31.7460850 119.7803866
  70.1685910  32.1780117 120.2173786  72.6500424  26.3951747 121.0043885
  72.5651719  27.2512714 121.1493454  73.1384807  26.1196071 121.6726044
  72.7089321  26.4809068 121.1245966  70.3152379  29.2733251 119.2139941
  70.7303528  28.9418275 118.5224436  69.4844309  29.0402154 119.0860077
  70.2540388  29.1904507 119.0930788  73.0085770  25.5243811 118.4001142
  72.9265932  25.5945998 119.2656129  73.6465490  26.0873555 118.2084883
  73.0905607  25.6182782 118.4991092  66.9059846  32.4592948 122.9489320
  67.1958144  32.0681930 122.2248547  67.6363327  32.6409653 123.3894596
  67.0566730  32.4286762 122.9072127  71.4780213  31.0732919 123.5648221
  71.2366889  30.3400779 123.1575286  71.6581546  31.6219776 122.9114554
  71.4687837  31.0455310 123.4078444  76.2036333  28.1800362 120.9336778
  75.8243142  27.3937500 120.9266067  75.5402579  28.7287219 120.7908422
  76.0494808  28.1445186 120.9117575  71.5501902  28.7626065 116.7525554
  72.3174887  28.8226190 116.3431406  71.1033211  28.1906506 116.2681872
  71.5975329  28.6862641 116.6203264  74.4496432  30.4245853 121.2688464
  74.5316269  31.2312839 120.9449915  74.9346174  30.4441813 121.9929237
  74.5333590  30.5466516 121.3275363  68.2540975  30.3657976 121.5219906
  68.3233795  29.5072514 121.6612906  69.0329430  30.5829857 121.1938930
  68.3793825  30.2710840 121.4937063  72.6448462  32.7895677 125.7356399
  72.2528254  32.4862392 125.0179265  72.8001534  33.6264767 125.5461353
  72.6102052  32.8679514 125.6012896  67.5976502  25.0344831 118.2162664
  67.8869027  25.8109714 118.4906238  67.6848301  24.5233563 118.9177163
  67.6530759  25.0736750 118.3605162  71.9445204  28.9981658 121.6026008
  72.6679403  29.4639771 121.4590581  71.5045795  29.0655268 120.8523605
  71.9860896  29.0765495 121.4710789  72.2049053  33.0602363 121.7624069
  71.4878363  32.8863225 121.2971306  72.8555791  32.8254935 121.2299555
  72.1950904  32.9998155 121.6153287  78.5869352  28.0306174 122.3280924
  78.9702958  28.7797530 122.5579021  77.7913465  28.2771993 122.0692913
  78.5263134  28.1775867 122.3238498  88.0787128  38.6077109 124.4211285
  88.0481132  39.4621745 124.5929554  88.6768476  38.3072401 124.9797429
  88.1624286  38.6893605 124.5286087  81.2786812  37.6952760 129.1764215
  80.4224708  37.8561258 129.2273332  81.3254466  36.8244824 129.1969277
  81.1585924  37.5903562 129.1870281  75.6627952  47.2315477 124.9401447
  74.9110852  46.8531016 124.7117492  76.1113964  47.2633911 124.1920257
  75.6177619  47.1801085 124.7958949  81.1152912  47.6540847 120.3686994
  80.7804281  48.3317769 119.9331216  81.6279783  47.2646158 119.7803866
  81.1418493  47.6965425 120.2173786  80.6557203  49.6055116 126.3098106
  81.0396583  50.1742014 125.7702881  80.5916345  48.8804626 125.8303922
  80.7030631  49.5830579 126.1591968  84.1238634  39.7544804 131.8195867
  84.6694594  40.4329890 131.8789837  84.0655510  39.6132264 130.9597449
  84.1954548  39.8336805 131.7007928  77.2412708  47.2433870 127.2064220
  77.3423071  46.4334224 127.5161347  76.6454454  47.1490816 126.5763898
  77.1685247  47.1098898 127.1590458  85.9003702  41.1829411 122.6929595
  85.7843228  41.9337097 123.1221733  86.6959589  40.9253364 122.9425682
  86.0008292  41.2564258 122.7933687  77.0813448  52.1611459 128.6079076
  77.7250903  52.6024623 128.9975234  77.4069704  51.3564885 128.5209334
  77.2245277  52.1076654 128.6524553  70.4377753  43.2654156 126.8316553
  70.2027937  42.4321809 126.7248822  70.5763393  43.5458822 126.0177754
  70.4233415  43.1837660 126.6958908  77.7834028  45.1723434 123.9798937
  78.1049869  45.7128641 123.3760245  78.4306124  44.6020205 124.1121227
  77.9260083  45.1682609 123.9105973  79.8335736  37.1739429 124.0633324
  80.5315900  37.3527556 124.5554787  80.1488068  36.6509768 123.4403713
  79.9831073  37.1233201 124.0435334  80.0223671  43.5609874 124.0513115
  80.4617307  42.9526974 124.4967888  79.8728334  43.1817247 123.2798580
  80.0645137  43.4148345 124.0032283  77.4895314  42.1553885 131.2531941
  78.1344317  41.6626329 130.9342889  77.7297091  42.2978672 132.0798019
  77.6205899  42.1031328 131.3281474  80.0281406  45.0008791 130.9038834
  80.3104648  44.2060197 130.6825589  80.7567566  45.4789379 130.9243895
  80.1770969  44.9543388 130.8741849  83.6233008  41.9137055 121.0043885
  83.5384303  42.7698022 121.1493454  84.1117391  41.6381379 121.6726044
  83.6821905  41.9994376 121.1245966  85.2139007  28.5317348 126.3904209
  84.8992448  29.2220827 126.8224632  84.6965949  28.4762130 125.6889710
  85.0903478  28.6252237 126.3501158  84.5551441  38.5321849 122.5041620
  84.0262912  38.7481483 123.1638926  85.0776461  39.2257988 122.4242589
  84.5539894  38.6664986 122.5897219  90.0099494  44.1068154 127.8774664
  89.1797197  44.3178797 128.0408081  89.9608746  43.2805208 127.6016948
  89.8806229  44.0157760 127.8612030  76.4451049  42.4285066 121.3049088
  75.8608264  42.9335097 121.7114952  76.0421144  42.2027453 120.5645680
  76.2990353  42.4693314 121.2554113  71.9995077  48.1439827 128.1072759
  71.5162656  48.8690317 128.0832343  72.8118396  48.4415957 128.2182917
  72.0485825  48.2942181 128.1200039  78.0709231  46.9372008 130.7122574
  77.5536173  46.5779423 130.1083882  78.7683623  46.4134182 130.7228640
  78.0974813  46.8069696 130.6252833  81.7272823  47.3866822 136.6738747
  81.8156169  47.1992962 137.5216957  82.1562536  46.7404251 136.2743594
  81.8034926  47.2629829 136.7410498  80.9028263  38.6750718 119.7818008
  81.1424267  38.8828702 118.9693352  81.2244104  37.8708227 119.8906953
  80.9865421  38.5864819 119.6778561  76.2118553  30.6044114 123.6277546
  76.9664521  30.9722431 123.3894597  76.0346088  30.9783668 124.3956726
  76.2973032  30.7142302 123.7062435  74.8539275  48.6596003 128.2593039
  75.5559854  48.1447992 128.3165796  74.7736758  48.9870154 129.0639914
  74.9463035  48.6310229 128.3865831  74.5675618  33.0114433 120.3255659
  74.3851191  33.2286314 119.4996652  75.4301231  33.1253445 120.3814274
  74.6680208  33.0604331 120.2110146  74.1790050  44.8502355 127.7678647
  75.0178949  45.0825288 127.8152409  74.2101819  43.9806666 127.6985683
  74.3071768  44.7559301 127.7643292  74.8042753  45.2703230 132.0691953
  75.3440978  45.1274361 132.7395325  74.1212699  45.6699981 132.4375979
  74.7834907  45.3082901 132.2226374  80.2475337  30.0140843 123.3604683
  80.9761498  29.8356798 122.9142839  80.3370230  30.8558923 123.5711861
  80.3681999  30.1124722 123.3258201  84.2283638  40.9494231 127.2636977
  84.9841153  41.3825745 127.3025886  84.3345962  40.2999000 127.8371613
  84.3553809  40.9171715 127.3535003  87.2663809  44.7767508 128.0139380
  86.8299041  44.7804250 128.7698352  86.9326725  45.4573007 127.5818958
  87.1526429  44.8779964 128.0620213  74.1137645  36.2888605 118.8378132
  73.3995822  36.0026785 119.2500565  74.5981614  36.6285231 119.4784520
  74.0797008  36.2970255 118.9933767  81.9963276  48.7285943 132.9848986
  81.1978522  48.4885443 133.2422855  82.4449288  48.7800336 133.7316034
  81.9437887  48.7008334 133.1333910  90.4008155  41.4948428 126.9059017
  91.0624589  40.9339096 126.8054926  89.7599567  41.0000459 127.2311709
  90.4037023  41.3384837 126.9391358  81.2884963  44.7918559 119.2139941
  81.7036111  44.4603583 118.5224436  80.4576893  44.5587462 119.0860077
  81.2272972  44.7089815 119.0930788  70.6173312  42.2762300 129.5038119
  70.4348885  42.2509186 128.6510411  71.3522981  42.7461238 129.5427027
  70.6987376  42.3423663 129.3836037  86.6872986  42.5113810 126.6471006
  86.9228575  42.6559009 125.8197857  86.8362550  43.2756218 127.0402520
  86.7438789  42.6452865 126.5834610  88.5163443  41.3515476 124.4840610
  88.8471660  41.8843116 123.8780705  89.0896531  41.4054364 125.1402561
  88.6497122  41.4385045 124.4918392  83.7295332  39.1980379 125.1664190
  83.8242186  39.9369673 125.6203816  83.1054175  38.7697854 125.5998755
  83.6504362  39.2441699 125.2972338  83.9818353  41.0429119 118.4001142
  83.8998516  41.1131306 119.2656129  84.6198074  41.6058863 118.2084883
  84.0638190  41.1368090 118.4991092  77.3411524  40.8089857 127.8675668
  77.0830769  39.9761592 127.8406968  77.3960007  41.0347470 127.0268169
  77.3111302  40.7187628 127.7395805  82.4212574  32.9118307 127.9679761
  81.7168901  32.4227493 128.1263680  82.4697549  32.9240782 127.0968205
  82.3242626  32.8407955 127.8619101  76.3146236  38.3627619 128.3540563
  75.7395828  38.5219787 128.9904524  75.9381913  37.7263028 127.8909014
  76.1749049  38.2925432 128.3795122  89.6242794  36.5925973 125.9880772
  89.3679359  35.7805915 125.7978654  90.4672108  36.6003540 125.7610959
  89.7108820  36.4737971 125.9265589  81.0858463  41.0649573 121.4109749
  81.8999102  41.3564466 121.2992520  81.0217605  40.4109435 120.8368042
  81.1961202  41.0114768 121.3098586  76.9566372  44.5371090 126.5382061
  77.5940319  44.2982838 127.0833854  77.3821443  44.7408249 125.8035221
  77.1142538  44.5322101 126.5099218  71.6479014  46.7759427 130.4216364
  71.6883159  47.0474278 129.5936144  72.2073538  47.3001335 130.8374152
  71.7362360  46.8935182 130.3608253  77.5969187  39.7573380 120.8756950
  77.9814339  39.5381087 121.6273495  77.3480807  40.5836326 121.0058026
  77.6171259  39.8471526 121.0058026  88.3304374  43.5320018 131.8867619
  88.0250191  44.2648075 132.2480934  87.6110590  43.1257947 131.6060405
  88.1791716  43.5801751 131.8980756  79.3387844  45.0143513 128.2175847
  79.4126852  44.8518685 129.0717697  80.1557350  45.2033703 127.9736329
  79.4704202  45.0180255 128.3073872  73.0993600  45.3601376 125.2470290
  72.2731718  45.6063113 125.1204569  73.1605591  45.2813457 126.1132348
  72.9867767  45.3846325 125.3559235  77.8792429  47.9778256 122.9489320
  78.1690728  47.5867237 122.2248547  78.6095910  48.1594961 123.3894596
  78.0299313  47.9472070 122.9072127  78.4687174  42.7796002 134.0342451
  77.9698868  43.4911770 134.1127339  79.2787399  43.0996669 133.9960613
  78.5143281  42.9322851 134.0399019  75.8198345  49.9545639 126.0149470
  75.5998640  49.6642993 126.8076137  75.5992867  49.2960594 125.4867382
  75.7545939  49.8145347 126.0538379  74.7315292  42.0418955 128.2805172
  74.4428541  41.4156426 128.8150899  75.5998640  41.9839242 128.3469852
  74.8175544  41.9406499 128.3696126  85.5193190  37.1853738 128.5987154
  85.1757956  36.4644074 128.9494403  85.6186232  36.9767590 127.7565512
  85.4835233  37.0477942 128.5258834  77.9866301  51.3275028 124.7980162
  78.6390359  50.7951471 125.0271188  77.2891909  50.9743681 125.1848036
  77.9797019  51.1964551 124.8892330  74.9347565  43.6814206 124.2047537
  75.6893533  44.0627245 124.4182999  74.3418178  44.1325350 124.6594233
  74.9584279  43.8043033 124.3030415  85.9806219  43.6479443 124.1411142
  86.5464252  44.3072652 124.0569685  85.3334122  43.9929141 124.6127544
  85.9684975  43.7961384 124.1983898  76.2545792  44.8522767 129.5787652
  75.7326546  44.9923059 130.2639517  76.6419812  44.0933432 129.7689769
  76.2349493  44.7608291 129.7088729  73.2436976  34.9028576 123.6482607
  72.9561772  34.5329847 122.9114554  73.9307444  35.3723431 123.3866312
  73.3025873  34.9175546 123.4997683  82.4512797  46.5918227 123.5648221
  82.2099473  45.8586087 123.1575286  82.6314130  47.1405084 122.9114554
  82.4420421  46.5640618 123.4078444  77.6812118  41.8826786 124.9769143
  77.4854900  42.4901521 124.3829446  77.9046463  41.1894730 124.4960817
  77.6846759  41.8704312 124.8185224  76.0790648  38.7681524 125.0950012
  76.8013300  38.9322683 124.6353817  75.5998640  39.4891189 124.9889351
  76.1154378  38.8979754 125.0115625  84.0384155  35.1045323 130.4746696
  83.1995256  35.1306602 130.2384960  84.1088523  35.7516059 131.0552043
  83.9252549  35.2041449 130.5255813  82.4853433  32.0030700 125.2074312
  83.1879786  31.8038449 124.7294271  82.2197622  31.2306643 125.5143156
  82.5500066  31.8593666 125.1819754  87.9141679  40.3113310 127.7607938
  87.8275654  40.4668736 128.6142717  87.4592159  40.9551385 127.3867343
  87.8344936  40.4289065 127.8315045  70.8165171  35.6809789 124.4967888
  70.9181307  36.4835950 124.8248863  71.6121057  35.4797125 124.1990968
  70.9493076  35.7695687 124.5003243  81.7867495  37.6324057 126.3833498
  81.5402209  37.5519808 127.2170287  82.1152618  36.8477525 126.1896025
  81.7988739  37.5050322 126.4781021  85.6815544  44.3407416 130.1720279
  85.5429903  45.0388462 130.6769021  84.9015542  44.1856073 129.8156461
  85.5458771  44.4207583 130.1946553  76.8192277  48.5583547 132.6617508
  76.9681841  47.9986463 132.0090912  77.5992279  48.6375549 133.0450026
  76.9566371  48.4869113 132.6214457  87.1768917  43.6985670 120.9336778
  86.7975726  42.9122808 120.9266067  86.5135162  44.2472527 120.7908422
  87.0227392  43.6630494 120.9117575  79.3445578  48.7298190 133.9401998
  79.2689249  48.0607001 134.4952787  79.2735437  49.4315979 134.4542665
  79.3226185  48.7343098 134.0978847  80.0015825  47.2499189 124.7725604
  80.7665716  46.9808833 124.4508269  79.8993915  46.7649200 125.4895667
  80.0997320  47.1388754 124.8305432  82.5234485  44.2811373 116.7525554
  83.2907471  44.3411498 116.3431406  82.0765794  43.7091814 116.2681872
  82.5707913  44.2047949 116.6203264  83.4212281  43.0866029 129.0378286
  82.7457283  42.8551261 129.5391673  83.4304657  42.4787212 128.4120391
  83.3230786  42.9624954 129.0194438  85.4229016  45.9431161 121.2688464
  85.5048853  46.7498147 120.9449915  85.9078758  45.9627120 121.9929237
  85.5066173  46.0651824 121.3275363  79.2325519  40.6215997 129.9358542
  78.8087768  40.8220496 129.1997560  79.0570374  39.7744845 130.0482842
  79.1436399  40.5264779 129.8432232  78.7337212  52.1366510 132.3979999
  79.2233143  51.4377299 132.2155664  78.1621445  51.8390380 132.9856057
  78.7221742  51.9892734 132.4581040  74.5207964  41.1168049 125.3686514
  74.6772583  41.0514851 126.2242507  74.8608557  41.8916601 125.1565194
  74.5941199  41.2217247 125.4641109  81.0587108  40.4925932 124.2379878
  81.6002654  39.9896313 124.7018498  81.3733667  40.4391127 123.4269363
  81.1851506  40.4105353 124.1863690  79.2273558  45.8843284 121.5219906
  79.2966378  45.0257822 121.6612906  80.0062013  46.1015165 121.1938930
  79.3526408  45.7896148 121.4937063  83.6181046  48.3080985 125.7356399
  83.2260837  48.0047700 125.0179265  83.7734118  49.1450075 125.5461353
  83.5834636  48.3864822 125.6012896  71.0942225  38.3002999 125.6847282
  71.4741190  38.7187544 125.0207549  70.5197590  38.8816455 125.9916125
  71.0653550  38.4480858 125.6324023  83.7820721  44.8730974 125.6762430
  83.4235375  45.0445617 126.4526462  83.2959431  45.3344179 125.1190428
  83.6579417  44.9669945 125.7087699  78.5709086  40.5530139 118.2162664
  78.8601611  41.3295022 118.4906238  78.6580885  40.0418871 118.9177163
  78.6263342  40.5922058 118.3605162  84.9425460  45.7634870 136.6229630
  85.5805180  45.2695065 136.2892086  84.2999551  45.6912270 136.0381857
  84.9419686  45.6793878 136.4871985  86.6682460  37.6124016 131.1895546
  86.2410068  37.5250364 130.4343646  86.0308513  37.7201791 131.7750390
  86.5112067  37.6156676 131.1640988  84.9979716  46.4554678 133.2634987
  85.7872095  46.1043743 133.3837069  85.1723314  47.2691066 133.0011621
  85.1399998  46.5240535 133.2422855  83.8513541  30.4664235 127.8251406
  84.0563134  30.3986543 128.6708403  83.5239965  31.2723056 127.7572583
  83.8328789  30.5750175 127.9411061  78.5489692  37.7944803 129.5660374
  78.2452829  37.2400791 130.1670781  77.8469113  37.9737013 129.0788408
  78.4005902  37.7389585 129.5830079  77.6055789  35.1045323 124.1305075
  77.8815523  34.3864235 123.7182643  78.2054458  35.7030243 123.9226181
  77.7349053  35.0865694 124.0385837  81.1066309  32.7758840 122.4051670
  81.5610056  32.9469401 123.1299515  81.5806355  32.1626951 122.0049446
  81.2434629  32.7109725 122.4525432  74.6281835  42.2607166 131.7354409
  74.0369768  42.9016664 131.7057424  75.3902858  42.6844783 131.7085708
  74.6530095  42.4183005 131.7269556  84.3871351  47.7116478 129.1686433
  84.1891040  48.2007292 128.4742645  83.7659062  47.9157719 129.7470567
  84.2658915  47.8133016 129.1509657  78.4479329  39.4801374 123.5096678
  79.1921374  39.8675651 123.7479628  78.5940026  38.6358800 123.6737165
  78.5789914  39.4131847 123.5690647  81.4357205  35.0526848 129.4090597
  80.9617159  34.5268610 129.9195908  81.8075341  34.5056321 128.8405459
  81.4207094  34.8942844 129.4005744  83.3640705  35.9463402 122.4716351
  82.8363723  36.0292146 121.7822060  83.8236413  36.6881274 122.4680995
  83.3542555  36.0684065 122.3691046  75.3573770  34.2165922 117.4957246
  75.0086574  34.8685647 117.9588795  74.8770216  34.2023035 116.7681117
  75.2344014  34.3108976 117.4568337  82.9177787  44.5166966 121.6026008
  83.6411986  44.9825079 121.4590581  82.4778378  44.5840576 120.8523605
  82.9593480  44.5950803 121.4710789  82.0863942  41.3764508 132.8526697
  81.4720936  40.8322559 133.1475332  82.6031227  40.8628745 132.3732513
  82.0719605  41.2200917 132.8250925  81.3260240  42.4468778 130.5870995
  80.8987848  41.8218497 130.1536431  81.3185184  42.1643700 131.4130003
  81.2619381  42.3121559 130.6450823  75.7297679  36.8424452 123.0083290
  75.8700640  37.3396917 123.7111932  76.2280212  36.1410747 123.1497504
  75.8238760  36.8126431 123.1334870  75.7597901  37.7091563 120.3375867
  76.3942981  38.3051988 120.2725329  75.8423512  37.4095021 121.1521737
  75.8654452  37.7532472 120.4478954  77.3376884  33.6405539 120.3121309
  77.6592725  33.1608621 119.6580572  77.6003828  34.4505185 120.1212121
  77.4242909  33.6895437 120.1876801  80.5673857  44.6624413 133.8320125
  80.0598948  45.2160260 134.2760756  80.2700503  44.7232703 133.0138900
  80.4478742  44.7530724 133.7768582  72.2650889  39.9059404 123.6065413
  72.7743118  40.5023912 123.9876719  72.7385161  39.6385378 122.9241833
  72.4094265  39.9545220 123.5619936  83.1781637  48.5787671 121.7624069
  82.4610947  48.4048533 121.2971306  83.8288375  48.3440243 121.2299555
  83.1683488  48.5183463 121.6153287  81.1730262  29.4992833 126.0835365
  80.5298580  29.3490479 126.6520504  80.8329669  29.2535178 125.3184470
  81.0275339  29.4404955 126.0538381  85.7629608  37.4552259 125.5065374
  85.0920798  37.9981962 125.3778440  86.4569359  37.9247115 125.2647069
  85.7658476  37.6050531 125.4520902  79.8116342  49.5948971 130.7377132
  79.5881996  48.8367801 131.1061159  79.3226185  49.6246993 130.0157572
  79.7059791  49.4871196 130.6853873  85.9257736  33.9108143 128.4155747
  86.2785346  33.4837866 129.0901546  85.0672537  33.8258987 128.5456824
  85.8507180  33.8352884 128.5350758  74.6241421  36.5415663 126.4738594
  73.9053410  36.9579795 126.7411457  74.9953783  37.1069902 125.9230232
  74.5733352  36.6864944 126.4321401  78.4594799  49.8149430 128.1914217
  78.0455198  49.1523560 127.8018059  79.1442173  49.9627288 127.6709911
  78.4993171  49.7390088 128.0570714  81.8260093  48.9739515 128.9437833
  81.4276376  49.0841785 128.1758654  81.2111313  49.1821581 129.5264393
  81.6758982  49.0213083 128.9169133  80.3987995  35.5813663 121.8111973
  79.8052834  35.9030659 121.2596540  80.4363273  34.7354758 121.6033079
  80.3162384  35.5037991 121.6994744  83.2745812  35.5393167 125.2413723
  83.0459505  35.5625869 124.3992082  83.5343888  34.7150634 125.3608734
  83.2792000  35.4209247 125.1338921  76.3290574  34.0769713 126.5367919
  76.8047940  34.4386793 125.9018100  75.8279174  34.7326181 126.8168062
  76.3255933  34.2263902 126.4844660  89.5601936  43.5491482 122.3280924
  89.9435542  44.2982838 122.5579021  88.7646049  43.7957301 122.0692913
  89.4995718  43.6961175 122.3238498  78.3717227  36.2210913 119.9041303
  78.7516192  36.2390542 119.1192418  77.6309823  36.6664902 119.7832150
  78.3186065  36.2892688 119.7704871  86.0002518  34.5293104 125.4916882
  85.9996744  34.3741761 126.3501158  85.7958698  35.3756091 125.4358267
  85.9702296  34.6313725 125.6104821  83.7243370  39.2090606 129.1453089
  84.2197035  38.4913601 129.1057109  82.9143146  38.9061404 129.0307576
  83.6787263  39.0588253 129.1226814  79.1701981  43.0588419 121.2950093
  78.3613304  42.7355093 121.2483403  79.6776890  42.3521642 121.2278342
  79.1251648  42.9069736 121.2780387  69.7992259  40.4860613 127.0197457
  68.9337778  40.4746303 126.9080229  69.8991075  40.2990835 127.8668597
  69.6866426  40.4566674 127.1286402  85.7895189  41.9594294 131.8330217
  86.2150260  41.4368716 131.2800642  85.4252109  42.5575131 131.3118840
  85.7981791  41.9704521 131.6739227  75.4249269  50.2558511 130.5927563
  75.7395828  51.0694900 130.6005345  75.8342682  49.8708730 131.2609722
  75.5317367  50.3187214 130.6931655  82.3773788  45.6728558 128.1631375
  82.8484966  46.3868821 128.3321360  82.7133967  45.0727308 128.6991244
  82.4968903  45.6900022 128.2663751  83.0147735  45.4646492 134.9259068
  82.4668681  44.8404376 134.6579133  83.4760763  45.6540764 134.2103147
  83.0014944  45.4005542 134.7809499  78.3636398  32.4472441 122.5868935
  79.1852092  32.6170754 122.3450629  77.9006049  32.6019702 121.8635232
  78.4167560  32.4954174 122.4440579  72.7662289  44.2031620 130.2406171
  73.3707146  44.1627454 129.6119992  72.5589601  45.0502772 130.2710227
  72.8251186  44.3219622 130.1522288  82.5806061  46.4697565 131.4568409
  83.4004435  46.3260531 131.7184704  82.3000138  47.0943764 131.9984847
  82.6602804  46.5407917 131.5756348  99.0519711  54.1262417 124.4211285
  99.0213716  54.9807053 124.5929554  99.6501060  53.8257709 124.9797429
  99.1356869  54.2078913 124.5286087  92.2519396  53.2138068 129.1764215
  91.3957292  53.3746566 129.2273332  92.2987050  52.3430132 129.1969277
  92.1318508  53.1088869 129.1870281  86.6360536  62.7500785 124.9401447
  85.8843435  62.3716324 124.7117492  87.0846547  62.7819219 124.1920257
  86.5910203  62.6986393 124.7958949  92.0885496  63.1726155 120.3686994
  91.7536864  63.8503077 119.9331216  92.6012366  62.7831466 119.7803866
  92.1151077  63.2150733 120.2173786  91.6289787  65.1240424 126.3098106
  92.0129166  65.6927322 125.7702881  91.5648928  64.3989934 125.8303922
  91.6763214  65.1015887 126.1591968  88.2145292  62.7619178 127.2064220
  88.3155655  61.9519532 127.5161347  87.6187037  62.6676124 126.5763898
  88.1417831  62.6284206 127.1590458  96.8736286  56.7014719 122.6929595
  96.7575812  57.4522405 123.1221733  97.6692172  56.4438672 122.9425682
  96.9740875  56.7749565 122.7933687  81.4110336  58.7839464 126.8316553
  81.1760521  57.9507117 126.7248822  81.5495977  59.0644130 126.0177754
  81.3965999  58.7022968 126.6958908  83.7100424  50.9525195 129.7300861
  83.0905455  50.3617842 129.5610876  83.6084287  51.5436630 129.0965184
  83.6038099  50.9529277 129.6105850  88.7566611  60.6908742 123.9798937
  89.0782452  61.2313949 123.3760245  89.4038708  60.1205513 124.1121227
  88.8992666  60.6867917 123.9105973  90.8068319  52.6924737 124.0633324
  91.5048484  52.8712864 124.5554787  91.1220652  52.1695076 123.4403713
  90.9563657  52.6418509 124.0435334  83.4369557  54.4977476 131.9744430
  83.3128254  55.0839922 132.6094249  84.0887841  54.0037672 132.2756705
  83.5143206  54.5116281 132.1130359  90.9956255  59.0795182 124.0513115
  91.4349890  58.4712282 124.4967888  90.8460918  58.7002555 123.2798580
  91.0377720  58.9333653 124.0032283  88.4627898  57.6739193 131.2531941
  89.1076900  57.1811637 130.9342889  88.7029675  57.8163980 132.0798019
  88.5938483  57.6216636 131.3281474  88.9795183  48.0617133 128.1454599
  88.6498513  48.5128277 127.4758297  88.3040185  47.9833297 128.6927605
  88.8305619  48.1168268 128.1277822  94.5965591  57.4322363 121.0043885
  94.5116886  58.2883330 121.1493454  95.0849974  57.1566687 121.6726044
  94.6554489  57.5179684 121.1245966  96.1871591  44.0502656 126.3904209
  95.8725032  44.7406135 126.8224632  95.6698532  43.9947438 125.6889710
  96.0636061  44.1437545 126.3501158  95.5284024  54.0507157 122.5041620
  94.9995496  54.2666791 123.1638926  96.0509044  54.7443295 122.4242589
  95.5272477  54.1850294 122.5897219  87.4183632  57.9470374 121.3049088
  86.8340848  58.4520405 121.7114952  87.0153727  57.7212761 120.5645680
  87.2722936  57.9878622 121.2554113  82.9727661  63.6625135 128.1072759
  82.4895239  64.3875625 128.0832343  83.7850979  63.9601265 128.2182917
  83.0218409  63.8127489 128.1200039  91.8760847  54.1936026 119.7818008
  92.1156850  54.4014010 118.9693352  92.1976688  53.3893535 119.8906953
  91.9598005  54.1050127 119.6778561  87.1851137  46.1229422 123.6277546
  87.9397105  46.4907739 123.3894597  87.0078672  46.4968976 124.3956726
  87.2705615  46.2327610 123.7062435  85.8271858  64.1781311 128.2593039
  86.5292437  63.6633300 128.3165796  85.7469341  64.5055462 129.0639914
  85.9195619  64.1495537 128.3865831  85.5408202  48.5299741 120.3255659
  85.3583775  48.7471621 119.4996652  86.4033815  48.6438753 120.3814274
  85.6412791  48.5789639 120.2110146  85.1522634  60.3687663 127.7678647
  85.9911533  60.6010596 127.8152409  85.1834403  59.4991974 127.6985683
  85.2804351  60.2744609 127.7643292  91.2207921  45.5326151 123.3604683
  91.9494081  45.3542106 122.9142839  91.3102814  46.3744231 123.5711861
  91.3414583  45.6310030 123.3258201  95.2016222  56.4679539 127.2636977
  95.9573737  56.9011053 127.3025886  95.3078546  55.8184308 127.8371613
  95.3286392  56.4357022 127.3535003  81.1812482  57.0088829 132.2226374
  80.9150897  56.1927946 132.3817365  81.1951046  57.0541984 131.3521890
  81.1437204  56.8945734 132.1179856  85.0870229  51.8073913 118.8378132
  84.3728406  51.5212093 119.2500565  85.5714197  52.1470539 119.4784520
  85.0529592  51.8155563 118.9933767  85.9311088  50.5467207 134.8693382
  85.2382885  50.0764187 135.1154114  86.5471415  50.3205512 135.4435089
  85.9195618  50.4434339 134.9902535 101.3740739  57.0133736 126.9059017
 102.0357173  56.4524404 126.8054926 100.7332151  56.5185767 127.2311709
 101.3769606  56.8570145 126.9391358  92.2617547  60.3103867 119.2139941
  92.6768695  59.9788891 118.5224436  91.4309476  60.0772769 119.0860077
  92.2005555  60.2275123 119.0930788  81.5905895  57.7947608 129.5038119
  81.4081469  57.7694494 128.6510411  82.3255564  58.2646546 129.5427027
  81.6719959  57.8608970 129.3836037  97.6605570  58.0299118 126.6471006
  97.8961159  58.1744317 125.8197857  97.8095133  58.7941526 127.0402520
  97.7171373  58.1638173 126.5834610  99.4896026  56.8700784 124.4840610
  99.8204243  57.4028424 123.8780705 100.0629114  56.9239672 125.1402561
  99.6229705  56.9570353 124.4918392  94.7027915  54.7165687 125.1664190
  94.7974770  55.4554981 125.6203816  94.0786759  54.2883162 125.5998755
  94.6236945  54.7627007 125.2972338  81.5576806  54.6741109 129.6537185
  82.1350308  54.5377560 130.2929431  80.8590867  54.2176893 129.9082770
  81.5397827  54.5863375 129.7859475  94.9550937  56.5614427 118.4001142
  94.8731099  56.6316614 119.2656129  95.5930657  57.1244171 118.2084883
  95.0370774  56.6553398 118.4991092  88.3144108  56.3275165 127.8675668
  88.0563352  55.4946899 127.8406968  88.3692591  56.5532778 127.0268169
  88.2843886  56.2372936 127.7395805  93.3945158  48.4303615 127.9679761
  92.6901485  47.9412801 128.1263680  93.4430132  48.4426090 127.0968205
  93.2975210  48.3593263 127.8619101  87.2878820  53.8812927 128.3540563
  86.7128411  54.0405095 128.9904524  86.9114496  53.2448336 127.8909014
  87.1481632  53.8110740 128.3795122  90.9552109  52.3536276 133.2132942
  90.5666541  51.9290494 132.5585133  90.2906807  52.6018426 133.7209968
  90.7999036  52.3274997 133.1920810 100.5975378  52.1111281 125.9880772
 100.3411943  51.2991222 125.7978654 101.4404692  52.1188848 125.7610959
 100.6841403  51.9923278 125.9265589  77.0335639  53.5253002 126.3685004
  77.1195891  53.1484870 127.1498534  77.6611436  53.1513447 125.8904962
  77.1392190  53.4138484 126.4130481  92.0591047  56.5834881 121.4109749
  92.8731686  56.8749774 121.2992520  91.9950188  55.9294743 120.8368042
  92.1693786  56.5300076 121.3098586  87.9298955  60.0556398 126.5382061
  88.5672902  59.8168146 127.0833854  88.3554027  60.2593557 125.8035221
  88.0875121  60.0507409 126.5099218  82.6211598  62.2944735 130.4216364
  82.6615743  62.5659586 129.5936144  83.1806122  62.8186643 130.8374152
  82.7094943  62.4120490 130.3608253  88.5701770  55.2758688 120.8756950
  88.9546923  55.0566395 121.6273495  88.3213391  56.1021634 121.0058026
  88.5903843  55.3656834 121.0058026  90.3120427  60.5328821 128.2175847
  90.3859435  60.3703993 129.0717697  91.1289933  60.7219011 127.9736329
  90.4436786  60.5365563 128.3073872  84.0726184  60.8786684 125.2470290
  83.2464301  61.1248421 125.1204569  84.1338175  60.7998765 126.1132348
  83.9600351  60.9031633 125.3559235  86.2902208  46.9455625 126.2065731
  85.4224633  47.0178224 126.2723340  86.5777412  47.7477704 126.3953706
  86.2041956  47.0749772 126.2440497  88.8525013  63.4963564 122.9489320
  89.1423311  63.1052545 122.2248547  89.5828494  63.6780269 123.3894596
  89.0031897  63.4657378 122.9072127  86.7930928  65.4730946 126.0149470
  86.5731224  65.1828301 126.8076137  86.5725450  64.8145902 125.4867382
  86.7278523  65.3330655 126.0538379  85.7047876  57.5604263 128.2805172
  85.4161124  56.9341734 128.8150899  86.5731224  57.5024550 128.3469852
  85.7908128  57.4591807 128.3696126  96.4925773  52.7039046 128.5987154
  96.1490539  51.9829382 128.9494403  96.5918816  52.4952898 127.7565512
  96.4567816  52.5663250 128.5258834  88.9598884  66.8460336 124.7980162
  89.6122942  66.3136779 125.0271188  88.2624493  66.4928989 125.1848036
  88.9529602  66.7149859 124.8892330  85.9080149  59.1999514 124.2047537
  86.6626117  59.5812553 124.4182999  85.3150762  59.6510658 124.6594233
  85.9316863  59.3228341 124.3030415  96.9538802  59.1664750 124.1411142
  97.5196835  59.8257960 124.0569685  96.3066706  59.5114449 124.6127544
  96.9417559  59.3146692 124.1983898  87.2278376  60.3708075 129.5787652
  86.7059129  60.5108367 130.2639517  87.6152396  59.6118740 129.7689769
  87.2082077  60.2793599 129.7088729  84.2169560  50.4213884 123.6482607
  83.9294355  50.0515155 122.9114554  84.9040028  50.8908739 123.3866312
  84.2758457  50.4360853 123.4997683  93.4245381  62.1103535 123.5648221
  93.1832056  61.3771395 123.1575286  93.6046713  62.6590392 122.9114554
  93.4153005  62.0825926 123.4078444  88.6544701  57.4012094 124.9769143
  88.4587484  58.0086829 124.3829446  88.8779047  56.7080038 124.4960817
  88.6579342  57.3889620 124.8185224  87.0523231  54.2866832 125.0950012
  87.7745883  54.4507990 124.6353817  86.5731224  55.0076497 124.9889351
  87.0886962  54.4165062 125.0115625  95.0116739  50.6230631 130.4746696
  94.1727839  50.6491910 130.2384960  95.0821106  51.2701367 131.0552043
  94.8985132  50.7226757 130.5255813  93.4586017  47.5216008 125.2074312
  94.1612370  47.3223756 124.7294271  93.1930206  46.7491950 125.5143156
  93.5232649  47.3778974 125.1819754  98.8874263  55.8298618 127.7607938
  98.8008237  55.9854044 128.6142717  98.4324743  56.4736693 127.3867343
  98.8077519  55.9474373 127.8315045  81.7897754  51.1995097 124.4967888
  81.8913891  52.0021258 124.8248863  82.5853641  50.9982432 124.1990968
  81.9225660  51.2880995 124.5003243  88.2214573  48.7851293 134.2605193
  88.0297770  48.8006428 135.1104616  89.0713169  48.9814968 134.2371848
  88.3190295  48.8165645 134.3828488  82.6061486  51.3142275 132.2389009
  82.4646978  50.4626215 132.3633517  82.8902050  51.3570935 131.4151215
  82.6269332  51.1942025 132.1356633  92.7600079  53.1509365 126.3833498
  92.5134793  53.0705116 127.2170287  93.0885202  52.3662833 126.1896025
  92.7721322  53.0235630 126.4781021  98.1501500  59.2170978 120.9336778
  97.7708309  58.4308116 120.9266067  97.4867746  59.7657835 120.7908422
  97.9959975  59.1815802 120.9117575  83.3751792  49.2272622 135.5566460
  82.8393981  48.6152981 135.8727227  83.4369556  49.8020758 136.2100126
  83.3047424  49.2219550 135.7001887  90.9748409  62.7684497 124.7725604
  91.7398300  62.4994141 124.4508269  90.8726498  62.2834508 125.4895667
  91.0729904  62.6574062 124.8305432  89.0101178  50.9708907 131.3118840
  88.2197253  50.7900367 131.6336176  89.4061801  50.1935859 131.2949135
  88.9518054  50.8296368 131.3571388  93.4967069  59.7996681 116.7525554
  94.2640054  59.8596806 116.3431406  93.0498378  59.2277122 116.2681872
  93.5440496  59.7233257 116.6203264  94.3944865  58.6051337 129.0378286
  93.7189866  58.3736569 129.5391673  94.4037241  57.9972520 128.4120391
  94.2963369  58.4810262 129.0194438  96.3961599  61.4616469 121.2688464
  96.4781437  62.2683455 120.9449915  96.8811341  61.4812428 121.9929237
  96.4798757  61.5837132 121.3275363  90.2058102  56.1401305 129.9358542
  89.7820352  56.3405804 129.1997560  90.0302958  55.2930153 130.0482842
  90.1168983  56.0450087 129.8432232  85.4940547  56.6353357 125.3686514
  85.6505167  56.5700159 126.2242507  85.8341141  57.4101909 125.1565194
  85.5673782  56.7402555 125.4641109  92.0319692  56.0111240 124.2379878
  92.5735237  55.5081621 124.7018498  92.3466251  55.9576435 123.4269363
  92.1584089  55.9290661 124.1863690  90.2006142  61.4028592 121.5219906
  90.2698962  60.5443130 121.6612906  90.9794597  61.6200472 121.1938930
  90.3258992  61.3081456 121.4937063  94.5913629  63.8266293 125.7356399
  94.1993421  63.5233008 125.0179265  94.7466702  64.6635383 125.5461353
  94.5567219  63.9050130 125.6012896  82.0674809  53.8188307 125.6847282
  82.4473774  54.2372852 125.0207549  81.4930174  54.4001763 125.9916125
  82.0386134  53.9666166 125.6324023  94.7553304  60.3916282 125.6762430
  94.3967959  60.5630925 126.4526462  94.2692015  60.8529487 125.1190428
  94.6312001  60.4855253 125.7087699  92.5723690  44.0147480 129.2789521
  91.7017248  43.9886201 129.2322830  92.8264031  43.8424672 128.4615367
  92.4817250  43.9857624 129.1509658  89.5441669  56.0715447 118.2162664
  89.8334194  56.8480330 118.4906238  89.6313468  55.5604179 118.9177163
  89.5995926  56.1107366 118.3605162  89.5972831  46.0253709 130.7362991
  89.0811319  45.3333900 130.8614570  89.0366759  46.6924486 130.6825590
  89.4379344  46.0216966 130.7469057  85.7105610  55.3848712 130.3162776
  84.8693617  55.2852586 130.5241670  85.9195618  56.1544192 130.6677097
  85.6170303  55.4840755 130.3990091  83.1881177  53.0068249 128.1447527
  82.7937875  53.0811260 127.3697636  82.6321294  53.3926195 128.6955888
  83.0483990  53.0750023 128.1115186  94.8246124  45.9849543 127.8251406
  95.0295718  45.9171851 128.6708403  94.4972548  46.7908364 127.7572583
  94.8061372  46.0935483 127.9411061  89.5222275  53.3130111 129.5660374
  89.2185413  52.7586099 130.1670781  88.8201696  53.4922321 129.0788408
  89.3738485  53.2574893 129.5830079  88.5788372  50.6230631 124.1305075
  88.8548107  49.9049543 123.7182643  89.1787042  51.2215551 123.9226181
  88.7081637  50.6051001 124.0385837  92.0798893  48.2944148 122.4051670
  92.5342639  48.4654708 123.1299515  92.5538939  47.6812259 122.0049446
  92.2167213  48.2295033 122.4525432  85.6014418  57.7792474 131.7354409
  85.0102352  58.4201972 131.7057424  86.3635442  58.2030091 131.7085708
  85.6262679  57.9368312 131.7269556  85.9975041  48.9394472 132.4022427
  86.4576523  49.0133401 133.1397550  86.0431148  49.7375726 132.0522248
  86.0725596  49.0688619 132.4595183  89.4211913  54.9986682 123.5096678
  90.1653958  55.3860959 123.7479628  89.5672609  54.1544108 123.6737165
  89.5522498  54.9317155 123.5690647  91.3391488  46.7936941 128.5428539
  90.4927533  46.9659749 128.4169889  91.3362621  45.9886285 128.8794367
  91.2138638  46.6997970 128.5739666  92.4089789  50.5712156 129.4090597
  91.9349743  50.0453918 129.9195908  92.7807925  50.0241629 128.8405459
  92.3939678  50.4128152 129.4005744  82.7862819  52.5683662 134.7774143
  83.6488432  52.4679372 134.6911473  82.4554602  51.9878372 134.2159715
  82.8648015  52.4675289 134.6819549  94.3373288  51.4648710 122.4716351
  93.8096307  51.5477454 121.7822060  94.7968997  52.2066582 122.4680995
  94.3275139  51.5869373 122.3691046  86.1464605  51.3926111 131.4384561
  85.5217675  51.4044503 130.8310514  85.8110200  51.8686287 132.0875801
  86.0050097  51.4644628 131.4441129  86.3306354  49.7351230 117.4957246
  85.9819158  50.3870955 117.9588795  85.8502799  49.7208343 116.7681117
  86.2076598  49.8294283 117.4568337  82.8590280  59.4526572 132.8788325
  82.3290205  58.7619010 132.9283300  83.1315374  59.4436757 132.0501034
  82.8215003  59.3493703 132.7635741  93.8910371  60.0352274 121.6026008
  94.6144570  60.5010387 121.4590581  93.4510962  60.1025884 120.8523605
  93.9326063  60.1136111 121.4710789  85.4155350  53.0019259 133.6559429
  85.5748837  52.2462583 134.0611151  85.2348244  53.5510199 134.3100167
  85.4120709  52.9713073 133.8122135  90.6278533  48.8422841 130.8013529
  90.6521020  48.3082953 130.1126309  90.8790006  48.3340150 131.4639120
  90.6688452  48.6883745 130.7978174  78.1386123  56.1254336 130.2356674
  78.0329572  56.0801180 129.3708758  77.3886343  56.4708116 130.5170958
  78.0121726  56.1695244 130.1494003  86.9079855  47.5693659 130.1819274
  86.9478227  48.0702866 130.8953981  86.0829520  47.6604053 129.9125197
  86.7919381  47.6575475 130.2469812  88.3294218  54.0854169 132.4793173
  87.4986148  54.2527987 132.2728421  88.2745736  53.7090120 133.2642058
  88.1983633  54.0543900 132.5641701  86.7030262  52.3609760 123.0083290
  86.8433223  52.8582225 123.7111932  87.2012795  51.6596055 123.1497504
  86.7971343  52.3311739 123.1334870  86.7330485  53.2276871 120.3375867
  87.3675564  53.8237296 120.2725329  86.8156095  52.9280329 121.1521737
  86.8387036  53.2717780 120.4478954  88.3109468  49.1590847 120.3121309
  88.6325309  48.6793929 119.6580572  88.5736411  49.9690493 120.1212121
  88.3975493  49.2080745 120.1876801  83.2383473  55.4244712 123.6065413
  83.7475702  56.0209220 123.9876719  83.7117745  55.1570686 122.9241833
  83.3826848  55.4730528 123.5619936  94.1514221  64.0972979 121.7624069
  93.4343530  63.9233841 121.2971306  94.8020958  63.8625551 121.2299555
  94.1416071  64.0368771 121.6153287  92.1462845  45.0178141 126.0835365
  91.5031163  44.8675787 126.6520504  91.8062252  44.7720486 125.3184470
  92.0007923  44.9590263 126.0538381  96.7362192  52.9737567 125.5065374
  96.0653382  53.5167270 125.3778440  97.4301942  53.4432423 125.2647069
  96.7391059  53.1235839 125.4520902  96.8990319  49.4293451 128.4155747
  97.2517929  49.0023174 129.0901546  96.0405121  49.3444295 128.5456824
  96.8239764  49.3538192 128.5350758  85.5974004  52.0600971 126.4738594
  84.8785993  52.4765103 126.7411457  85.9686367  52.6255209 125.9230232
  85.5465936  52.2050252 126.4321401  91.3720579  51.0998971 121.8111973
  90.7785418  51.4215967 121.2596540  91.4095856  50.2540066 121.6033079
  91.2894968  51.0223299 121.6994744  94.2478395  51.0578475 125.2413723
  94.0192088  51.0811177 124.3992082  94.5076471  50.2335942 125.3608734
  94.2524583  50.9394555 125.1338921  83.3763338  51.3550523 137.4941185
  83.2065929  52.0151898 136.9489392  82.9329288  51.5657085 138.2153675
  83.2862672  51.4836506 137.5202815  87.3023158  49.5955021 126.5367919
  87.7780524  49.9572101 125.9018100  86.8011757  50.2511489 126.8168062
  87.2988517  49.7449210 126.4844660 100.5334519  59.0676789 122.3280924
 100.9168125  59.8168146 122.5579021  99.7378633  59.3142609 122.0692913
 100.4728302  59.2146483 122.3238498  80.2765403  54.2597389 132.7529675
  79.7292122  53.5898035 132.8710544  81.0657781  53.8927237 132.8173143
  80.3117587  54.1062375 132.7798376  89.3449811  51.7396221 119.9041303
  89.7248776  51.7575850 119.1192418  88.6042407  52.1850210 119.7832150
  89.2918649  51.8077996 119.7704871  96.9735101  50.0478412 125.4916882
  96.9729328  49.8927069 126.3501158  96.7691281  50.8941399 125.4358267
  96.9434879  50.1499033 125.6104821  79.0352372  53.4718197 129.9075698
  78.8574133  53.0194806 130.6330614  78.7471395  54.2744358 130.0914176
  78.9665326  53.5240755 130.0419201  94.6975953  54.7275914 129.1453089
  95.1929619  54.0098909 129.1057109  93.8875729  54.4246712 129.0307576
  94.6519847  54.5773560 129.1226814  90.1434565  58.5773727 121.2950093
  89.3345888  58.2540401 121.2483403  90.6509474  57.8706949 121.2278342
  90.0984232  58.4255044 121.2780387  80.7724842  56.0045921 127.0197457
  79.9070362  55.9931611 126.9080229  80.8723658  55.8176143 127.8668597
  80.6599009  55.9751982 127.1286402  89.3368982  47.9657749 122.5868935
  90.1584676  48.1356062 122.3450629  88.8738633  48.1205010 121.8635232
  89.3900144  48.0139482 122.4440579  87.9264314  45.9600512 133.3667363
  88.4708726  45.6191638 133.9571705  87.9801249  46.8185973 133.5088648
  88.0153433  46.0355771 133.4749237  83.7394872  59.7216928 130.2406171
  84.3439730  59.6812762 129.6119992  83.5322185  60.5688080 130.2710227
  83.7983770  59.8404930 130.1522288  78.9746155  58.7051545 130.1105094
  78.8770433  57.8947817 130.4195151  79.7575024  58.6843338 129.7251363
  79.0762291  58.5818635 130.0991957  98.1583721  61.6414730 123.6277546
  98.9129689  62.0093047 123.3894597  97.9811255  62.0154284 124.3956726
  98.2438199  61.7512917 123.7062435  96.5140785  64.0485049 120.3255659
  96.3316358  64.2656929 119.4996652  97.3766398  64.1624061 120.3814274
  96.6145375  64.0974946 120.2110146 102.1940504  61.0511459 123.3604683
 102.9226665  60.8727414 122.9142839 102.2835397  61.8929539 123.5711861
 102.3147166  61.1495338 123.3258201  96.0602812  67.3259221 118.8378132
  95.3460989  67.0397401 119.2500565  96.5446781  67.6655847 119.4784520
  96.0262176  67.3340871 118.9933767  95.1902143  65.9399192 123.6482607
  94.9026939  65.5700462 122.9114554  95.8772611  66.4094047 123.3866312
  95.2491040  65.9546161 123.4997683  92.7630338  66.7180405 124.4967888
  92.8646474  67.5206566 124.8248863  93.5586225  66.5167740 124.1990968
  92.8958243  66.8066303 124.5003243 100.5174253  71.5900755 118.2162664
 100.8066778  72.3665638 118.4906238 100.6046052  71.0789487 118.9177163
 100.5728509  71.6292673 118.3605162  97.3038937  65.2536538 117.4957246
  96.9551741  65.9056263 117.9588795  96.8235383  65.2393651 116.7681117
  97.1809181  65.3479591 117.4568337  97.7063068  68.7462179 120.3375867
  98.3408148  69.3422604 120.2725329  97.7888679  68.4465637 121.1521737
  97.8119619  68.7903087 120.4478954  99.2842051  64.6776155 120.3121309
  99.6057892  64.1979237 119.6580572  99.5468995  65.4875801 120.1212121
  99.3708077  64.7266053 120.1876801 100.3182394  67.2581529 119.9041303
 100.6981359  67.2761158 119.1192418  99.5774991  67.7035518 119.7832150
 100.2651232  67.3263304 119.7704871 100.3101565  63.4843057 122.5868935
 101.1317260  63.6541370 122.3450629  99.8471216  63.6390318 121.8635232
 100.3632727  63.5324790 122.4440579  69.8371152   9.0733670 107.3027041
  69.5022521   9.7510592 106.8671263  70.3498023   8.6838982 106.7143913
  69.8636734   9.1158248 107.1513832  72.3451248   3.3329878 107.9383932
  72.2602543   4.1890845 108.0833500  72.8335631   3.0574202 108.6066091
  72.4040145   3.4187200 108.0586013  70.0103203   6.2111383 106.1479987
  70.4254352   5.8796406 105.4564483  69.1795133   5.9780285 106.0200124
  69.9491212   6.1282638 106.0270835  72.7036593   2.4621942 105.3341189
  72.6216756   2.5324129 106.1996176  73.3416314   3.0251686 105.1424930
  72.7856431   2.5560913 105.4331138  66.6010670   9.3971079 109.8829367
  66.8908968   9.0060061 109.1588594  67.3314150   9.5787784 110.3234642
  66.7517554   9.3664893 109.8412174  71.1731037   8.0111050 110.4988268
  70.9317713   7.2778911 110.0915333  71.3532370   8.5597907 109.8454601
  71.1638661   7.9833441 110.3418491  75.8987157   5.1178493 107.8676825
  75.5193966   4.3315631 107.8606114  75.2353403   5.6665350 107.7248469
  75.7445632   5.0823317 107.8457622  71.2452726   5.7004196 103.6865601
  72.0125711   5.7604321 103.2771452  70.7984035   5.1284638 103.2021919
  71.2926153   5.6240772 103.5543311  74.1447256   7.3623984 108.2028511
  74.2267093   8.1690971 107.8789962  74.6296998   7.3819944 108.9269284
  74.2284414   7.4844647 108.2615409  67.9491799   7.3036107 108.4559952
  68.0184619   6.4450645 108.5952953  68.7280254   7.5207988 108.1278977
  68.0744649   7.2088971 108.4277110  71.6396028   5.9359789 108.5366055
  72.3630227   6.4017902 108.3930628  71.1996619   6.0033399 107.7863652
  71.6811720   6.0143626 108.4050836  71.8999877   9.9980494 108.6964116
  71.1829187   9.8241356 108.2311353  72.5506615   9.7633066 108.1639602
  71.8901728   9.9376287 108.5493334  78.2820176   4.9684305 109.2620971
  78.6653782   5.7175661 109.4919068  77.4864289   5.2150124 109.0032960
  78.2213958   5.1153999 109.2578545  87.7737952  15.5455240 111.3551332
  87.7431956  16.3999876 111.5269601  88.3719300  15.2450532 111.9137475
  87.8575109  15.6271736 111.4626134  80.9737636  14.6330891 116.1104262
  80.1175532  14.7939389 116.1613379  81.0205290  13.7622955 116.1309323
  80.8536748  14.5281693 116.1210328  75.3578776  24.1693609 111.8741494
  74.6061676  23.7909147 111.6457539  75.8064788  24.2012042 111.1260304
  75.3128443  24.1179216 111.7298996  80.8103736  24.5918978 107.3027041
  80.4755104  25.2695900 106.8671263  81.3230606  24.2024289 106.7143913
  80.8369317  24.6343556 107.1513832  80.3508027  26.5433247 113.2438153
  80.7347407  27.1120146 112.7042928  80.2867169  25.8182757 112.7643969
  80.3981455  26.5208710 113.0932015  83.8189457  16.6922935 118.7535914
  84.3645417  17.3708021 118.8129884  83.7606334  16.5510396 117.8937495
  83.8905372  16.7714936 118.6347975  76.9363532  24.1812001 114.1404266
  77.0373895  23.3712355 114.4501394  76.3405278  24.0868947 113.5103945
  76.8636071  24.0477029 114.0930505  85.5954526  18.1207542 109.6269642
  85.4794052  18.8715228 110.0561780  86.3910413  17.8631495 109.8765729
  85.6959116  18.1942389 109.7273733  76.7764272  29.0989590 115.5419122
  77.4201727  29.5402754 115.9315281  77.1020527  28.2943016 115.4549381
  76.9196101  29.0454785 115.5864600  70.1328577  20.2032287 113.7656600
  69.8978761  19.3699940 113.6588869  70.2714217  20.4836953 112.9517801
  70.1184239  20.1215791 113.6298955  77.4784852  22.1101565 110.9138984
  77.8000693  22.6506772 110.3100292  78.1256948  21.5398336 111.0461274
  77.6210907  22.1060740 110.8446019  79.5286560  14.1117560 110.9973371
  80.2266724  14.2905687 111.4894834  79.8438892  13.5887899 110.3743760
  79.6781897  14.0611332 110.9775381  79.7174495  20.4988005 110.9853162
  80.1568131  19.8905105 111.4307935  79.5679158  20.1195378 110.2138627
  79.7595961  20.3526476 110.9372330  77.1846138  19.0932017 118.1871988
  77.8295141  18.6004460 117.8682936  77.4247915  19.2356803 119.0138066
  77.3156723  19.0409459 118.2621521  79.7232229  21.9386922 117.8378880
  80.0055472  21.1438328 117.6165636  80.4518390  22.4167510 117.8583941
  79.8721793  21.8921519 117.8081896  83.3183832  18.8515186 107.9383932
  83.2335127  19.7076153 108.0833500  83.8068215  18.5759510 108.6066091
  83.3772729  18.9372508 108.0586013  84.9089831   5.4695479 113.3244256
  84.5943272   6.1598958 113.7564678  84.3916773   5.4140262 112.6229757
  84.7854301   5.5630368 113.2841205  84.2502265  15.4699980 109.4381667
  83.7213736  15.6859614 110.0978973  84.7727285  16.1636119 109.3582636
  84.2490718  15.6043117 109.5237266  89.7050318  21.0446285 114.8114711
  88.8748021  21.2556928 114.9748128  89.6559570  20.2183339 114.5356995
  89.5757053  20.9535891 114.7952077  76.1401873  19.3663197 108.2389135
  75.5559088  19.8713228 108.6454999  75.7371968  19.1405584 107.4985727
  75.9941176  19.4071445 108.1894160  71.6945901  25.0817958 115.0412806
  71.2113480  25.8068448 115.0172390  72.5069220  25.3794088 115.1522964
  71.7436649  25.2320312 115.0540085  77.7660055  23.8750139 117.6462621
  77.2486997  23.5157554 117.0423929  78.4634447  23.3512313 117.6568687
  77.7925636  23.7447827 117.5592879  81.4223647  24.3244953 123.6078794
  81.5106993  24.1371093 124.4557004  81.8513360  23.6782382 123.2083640
  81.4985750  24.2007961 123.6750545  80.5979087  15.6128849 106.7158055
  80.8375091  15.8206833 105.9033398  80.9194928  14.8086358 106.8247000
  80.6816245  15.5242950 106.6118608  75.9069377   7.5422245 110.5617593
  76.6615345   7.9100562 110.3234643  75.7296912   7.9161799 111.3296773
  75.9923856   7.6520433 110.6402482  74.5490099  25.5974134 115.1933086
  75.2510678  25.0826123 115.2505843  74.4687582  25.9248285 115.9979961
  74.6413859  25.5688360 115.3205878  74.2626442   9.9492564 107.2595706
  74.0802015  10.1664445 106.4336699  75.1252055  10.0631577 107.3154321
  74.3631031   9.9982462 107.1450193  73.8740874  21.7880486 114.7018694
  74.7129773  22.0203419 114.7492456  73.9052643  20.9184797 114.6325729
  74.0022592  21.6937433 114.6983339  74.4993577  22.2081361 119.0032000
  75.0391802  22.0652492 119.6735372  73.8163523  22.6078112 119.3716026
  74.4785731  22.2461032 119.1566421  79.9426161   6.9518975 110.2944730
  80.6712322   6.7734929 109.8482886  80.0321054   7.7937054 110.5051908
  80.0632823   7.0502853 110.2598248  83.9234462  17.8872362 114.1977024
  84.6791977  18.3203876 114.2365933  84.0296786  17.2377132 114.7711660
  84.0504632  17.8549846 114.2875050  86.9614633  21.7145639 114.9479427
  86.5249865  21.7182382 115.7038398  86.6277548  22.3951138 114.5159004
  86.8477253  21.8158095 114.9960259  73.8088469  13.2266736 105.7718179
  73.0946646  12.9404916 106.1840612  74.2932438  13.5663362 106.4124567
  73.7747832  13.2348386 105.9273814  81.6914100  25.6664074 119.9189033
  80.8929346  25.4263574 120.1762901  82.1400111  25.7178467 120.6656081
  81.6388711  25.6386465 120.0673957  90.0958979  18.4326559 113.8399064
  90.7575413  17.8717228 113.7394973  89.4550391  17.9378590 114.1651755
  90.0987847  18.2762968 113.8731404  80.9835787  21.7296690 106.1479987
  81.3986935  21.3981714 105.4564483  80.1527717  21.4965593 106.0200124
  80.9223796  21.6467946 106.0270835  70.3124136  19.2140431 116.4378165
  70.1299709  19.1887317 115.5850458  71.0473805  19.6839369 116.4767074
  70.3938200  19.2801794 116.3176084  86.3823810  19.4491941 113.5811053
  86.6179399  19.5937140 112.7537904  86.5313374  20.2134349 113.9742567
  86.4389613  19.5830996 113.5174657  88.2114267  18.2893607 111.4180657
  88.5422484  18.8221248 110.8120752  88.7847355  18.3432495 112.0742608
  88.3447946  18.3763176 111.4258438  83.4246156  16.1358510 112.1004237
  83.5193010  16.8747804 112.5543862  82.8004999  15.7075986 112.5338801
  83.3455186  16.1819831 112.2312384  83.6769177  17.9807250 105.3341189
  83.5949340  18.0509437 106.1996176  84.3148898  18.5436994 105.1424930
  83.7589014  18.0746221 105.4331138  77.0362348  17.7467988 114.8015715
  76.7781593  16.9139723 114.7747015  77.0910831  17.9725601 113.9608216
  77.0062126  17.6565759 114.6735852  82.1163398   9.8496439 114.9019808
  81.4119725   9.3605624 115.0603727  82.1648373   9.8618913 114.0308252
  82.0193450   9.7786086 114.7959148  76.0097060  15.3005750 115.2880610
  75.4346652  15.4597919 115.9244571  75.6332737  14.6641159 114.8249061
  75.8699873  15.2303563 115.3135168  89.3193618  13.5304104 112.9220818
  89.0630183  12.7184046 112.7318701  90.1622932  13.5381671 112.6951006
  89.4059644  13.4116102 112.8605636  80.7809287  18.0027704 108.3449795
  81.5949926  18.2942597 108.2332567  80.7168429  17.3487567 107.7708088
  80.8912026  17.9492899 108.2438633  76.6517196  21.4749222 113.4722107
  77.2891142  21.2360969 114.0173901  77.0772267  21.6786381 112.7375268
  76.8093362  21.4700232 113.4439265  71.3429838  23.7137558 117.3556411
  71.3833983  23.9852409 116.5276191  71.9024362  24.2379466 117.7714199
  71.4313184  23.8313313 117.2948299  77.2920011  16.6951511 107.8096997
  77.6765163  16.4759218 108.5613542  77.0431631  17.5214457 107.9398073
  77.3122083  16.7849658 107.9398073  88.0255198  20.4698149 118.8207665
  87.7201015  21.2026206 119.1820981  87.3061414  20.0636079 118.5400452
  87.8742540  20.5179882 118.8320803  79.0338667  21.9521644 115.1515894
  79.1077676  21.7896816 116.0057744  79.8508174  22.1411834 114.9076375
  79.1655026  21.9558387 115.2413919  72.7944424  22.2979507 112.1810337
  71.9682542  22.5441244 112.0544616  72.8556415  22.2191588 113.0472395
  72.6818591  22.3224456 112.2899282  77.5743253  24.9156387 109.8829367
  77.8641552  24.5245369 109.1588594  78.3046734  25.0973092 110.3234642
  77.7250137  24.8850201 109.8412174  75.5149169  26.8923770 112.9489517
  75.2949464  26.6021124 113.7416184  75.2943691  26.2338725 112.4207429
  75.4496763  26.7523478 112.9878426  74.4266116  18.9797086 115.2145218
  74.1379365  18.3534557 115.7490946  75.2949464  18.9217374 115.2809899
  74.5126368  18.8784630 115.3036173  85.2144014  14.1231870 115.5327200
  84.8708780  13.4022205 115.8834450  85.3137056  13.9145721 114.6905559
  85.1786057  13.9856073 115.4598880  77.6817125  28.2653160 111.7320209
  78.3341183  27.7329602 111.9611235  76.9842733  27.9121812 112.1188083
  77.6747842  28.1342683 111.8232377  74.6298389  20.6192337 111.1387584
  75.3844357  21.0005376 111.3523046  74.0369002  21.0703481 111.5934280
  74.6535103  20.7421165 111.2370462  85.6757043  20.5857574 111.0751188
  86.2415075  21.2450784 110.9909731  85.0284946  20.9307272 111.5467591
  85.6635799  20.7339515 111.1323945  75.9496616  21.7900899 116.5127699
  75.4277369  21.9301190 117.1979564  76.3370636  21.0311563 116.7029816
  75.9300317  21.6986422 116.6428775  72.9387800  11.8406707 110.5822654
  72.6512596  11.4707978 109.8454601  73.6258268  12.3101563 110.3206359
  72.9976697  11.8553677 110.4337729  82.1463621  23.5296358 110.4988268
  81.9050297  22.7964219 110.0915333  82.3264954  24.0783215 109.8454601
  82.1371245  23.5018749 110.3418491  77.3762942  18.8204918 111.9109190
  77.1805724  19.4279652 111.3169493  77.5997287  18.1272862 111.4300864
  77.3797583  18.8082443 111.7525271  75.7741472  15.7059656 112.0290058
  76.4964123  15.8700814 111.5693864  75.2949464  16.4269320 111.9229398
  75.8105202  15.8357885 111.9455672  83.7334979  12.0423454 117.4086743
  82.8946080  12.0684733 117.1725007  83.8039346  12.6894190 117.9892090
  83.6203373  12.1419580 117.4595860  82.1804257   8.9408831 112.1414359
  82.8830610   8.7416580 111.6634317  81.9148446   8.1684774 112.4483203
  82.2450890   8.7971797 112.1159801  87.6092503  17.2491441 114.6947985
  87.5226478  17.4046867 115.5482764  87.1542983  17.8929517 114.3207390
  87.5295760  17.3667196 114.7655092  70.5115995  12.6187920 111.4307935
  70.6132131  13.4214081 111.7588910  71.3071881  12.4175256 111.1331015
  70.6443900  12.7073819 111.4343290  81.4818319  14.5702188 113.3173544
  81.2353033  14.4897939 114.1510333  81.8103442  13.7855656 113.1236072
  81.4939563  14.4428454 113.4121068  85.3766368  21.2785548 117.1060326
  85.2380727  21.9766593 117.6109068  84.5966366  21.1234204 116.7496508
  85.2409595  21.3585714 117.1286600  76.5143101  25.4961679 119.5957554
  76.6632665  24.9364595 118.9430959  77.2943103  25.5753680 119.9790073
  76.6517195  25.4247244 119.5554504  86.8719741  20.6363801 107.8676825
  86.4926549  19.8500939 107.8606114  86.2085986  21.1850658 107.7248469
  86.7178216  20.6008625 107.8457622  79.0396402  25.6676322 120.8742045
  78.9640073  24.9985132 121.4292833  78.9686261  26.3694110 121.3882711
  79.0177009  25.6721229 121.0318893  79.6966649  24.1877320 111.7065651
  80.4616540  23.9186964 111.3848315  79.5944739  23.7027331 112.4235714
  79.7948144  24.0766885 111.7645479  82.2185309  21.2189504 103.6865601
  82.9858295  21.2789629 103.2771452  81.7716618  20.6469946 103.2021919
  82.2658737  21.1426080 103.5543311  83.1163105  20.0244160 115.9718333
  82.4408107  19.7929392 116.4731720  83.1255481  19.4165343 115.3460438
  83.0181609  19.9003085 115.9534485  85.1179840  22.8809292 108.2028511
  85.1999677  23.6876279 107.8789962  85.6029582  22.9005252 108.9269284
  85.2016997  23.0029955 108.2615409  78.9276343  17.5594128 116.8698589
  78.5038592  17.7598627 116.1337607  78.7521198  16.7122976 116.9822889
  78.8387223  17.4642910 116.7772279  78.4288036  29.0744641 119.3320046
  78.9183967  28.3755431 119.1495711  77.8572269  28.7768511 119.9196103
  78.4172566  28.9270865 119.3921087  74.2158788  18.0546180 112.3026561
  74.3723407  17.9892983 113.1582553  74.5559381  18.8294732 112.0905241
  74.2892023  18.1595378 112.3981155  80.7537932  17.4304063 111.1719924
  81.2953478  16.9274444 111.6358545  81.0684491  17.3769258 110.3609410
  80.8802329  17.3483484 111.1203737  78.9224382  22.8221415 108.4559952
  78.9917202  21.9635953 108.5952953  79.7012837  23.0393296 108.1278977
  79.0477232  22.7274279 108.4277110  83.3131870  25.2459116 112.6696446
  82.9211661  24.9425831 111.9519312  83.4684942  26.0828206 112.4801400
  83.2785460  25.3242953 112.5352943  70.7893049  15.2381130 112.6187328
  71.1692014  15.6565675 111.9547596  70.2148414  15.8194586 112.9256172
  70.7604374  15.3858989 112.5664069  83.4771544  21.8109105 112.6102476
  83.1186199  21.9823748 113.3866509  82.9910255  22.2722311 112.0530475
  83.3530241  21.9048076 112.6427745  78.2659910  17.4908270 105.1502711
  78.5552435  18.2673153 105.4246285  78.3531709  16.9797002 105.8517210
  78.3214166  17.5300189 105.2945209  84.6376284  22.7013001 123.5569677
  85.2756004  22.2073197 123.2232133  83.9950375  22.6290401 122.9721904
  84.6370510  22.6172009 123.4212032  86.3633284  14.5502147 118.1235593
  85.9360892  14.4628496 117.3683692  85.7259337  14.6579922 118.7090437
  86.2062891  14.5534807 118.0981034  84.6930540  23.3932809 120.1975034
  85.4822919  23.0421874 120.3177116  84.8674138  24.2069198 119.9351668
  84.8350822  23.4618666 120.1762902  83.5464365   7.4042366 114.7591452
  83.7513958   7.3364674 115.6048450  83.2190789   8.2101187 114.6912630
  83.5279612   7.5128306 114.8751108  78.2440516  14.7322934 116.5000420
  77.9403653  14.1778922 117.1010828  77.5419936  14.9115144 116.0128455
  78.0956725  14.6767716 116.5170126  77.3006613  12.0423454 111.0645122
  77.5766347  11.3242366 110.6522690  77.9005282  12.6408374 110.8566228
  77.4299877  12.0243825 110.9725883  80.8017133   9.7136971 109.3391717
  81.2560880   9.8847532 110.0639562  81.2757179   9.1005082 108.9389493
  80.9385453   9.6487857 109.3865479  74.3232659  19.1985297 118.6694456
  73.7320592  19.8394795 118.6397471  75.0853682  19.6222915 118.6425755
  74.3480919  19.3561136 118.6609603  84.0822175  24.6494609 116.1026480
  83.8841864  25.1385423 115.4082692  83.4609886  24.8535850 116.6810614
  83.9609739  24.7511147 116.0849703  78.1430153  16.4179506 110.4436724
  78.8872198  16.8053782 110.6819674  78.2890849  15.5736931 110.6077212
  78.2740738  16.3509978 110.5030694  81.1308029  11.9904979 116.3430644
  80.6567983  11.4646741 116.8535955  81.5026165  11.4434452 115.7745505
  81.1157918  11.8320976 116.3345791  83.0591529  12.8841534 109.4056398
  82.5314547  12.9670278 108.7162106  83.5187237  13.6259405 109.4021042
  83.0493379  13.0062196 109.3031093  75.0524594  11.1544053 104.4297293
  74.7037398  11.8063778 104.8928842  74.5721040  11.1401166 103.7021164
  74.9294838  11.2487107 104.3908384  82.6128611  21.4545097 108.5366055
  83.3362810  21.9203210 108.3930628  82.1729202  21.5218707 107.7863652
  82.6544304  21.5328934 108.4050836  81.7814766  18.3142639 119.7866744
  81.1671759  17.7700690 120.0815379  82.2982051  17.8006876 119.3072560
  81.7670429  18.1579048 119.7590972  81.0211064  19.3846909 117.5211042
  80.5938672  18.7596628 117.0876478  81.0136008  19.1021831 118.3470049
  80.9570205  19.2499690 117.5790870  75.4248503  13.7802584 109.9423337
  75.5651464  14.2775048 110.6451979  75.9231035  13.0788878 110.0837551
  75.5189584  13.7504562 110.0674916  75.4548725  14.6469695 107.2715914
  76.0893805  15.2430120 107.2065376  75.5374336  14.3473152 108.0861784
  75.5605276  14.6910603 107.3819001  77.0327708  10.5783670 107.2461356
  77.3543549  10.0986753 106.5920618  77.2954652  11.3883316 107.0552168
  77.1193733  10.6273568 107.1216848  80.2624681  21.6002544 120.7660172
  79.7549772  22.1538391 121.2100803  79.9651327  21.6610834 119.9478947
  80.1429566  21.6908856 120.7108629  71.9601713  16.8437535 110.5405460
  72.4693942  17.4402043 110.9216766  72.4335985  16.5763509 109.8581880
  72.1045089  16.8923351 110.4959983  82.8732461  25.5165802 108.6964116
  82.1561771  25.3426664 108.2311353  83.5239199  25.2818374 108.1639602
  82.8634311  25.4561595 108.5493334  80.8681086   6.4370964 113.0175412
  80.2249404   6.2868610 113.5860551  80.5280493   6.1913309 112.2524517
  80.7226163   6.3783086 112.9878427  85.4580432  14.3930391 112.4405421
  84.7871622  14.9360093 112.3118486  86.1520182  14.8625246 112.1987116
  85.4609300  14.5428662 112.3860949  79.5067166  26.5327103 117.6717179
  79.2832820  25.7745932 118.0401205  79.0177009  26.5625124 116.9497619
  79.4010615  26.4249327 117.6193920  85.6208560  10.8486274 115.3495794
  85.9736170  10.4215997 116.0241593  84.7623361  10.7637118 115.4796870
  85.5458004  10.7731015 115.4690804  74.3192245  13.4793794 113.4078641
  73.6004234  13.8957926 113.6751504  74.6904607  14.0448033 112.8570279
  74.2684176  13.6243075 113.3661448  78.1545623  26.7527561 115.1254264
  77.7406021  26.0901691 114.7358105  78.8392997  26.9005419 114.6049958
  78.1943995  26.6768219 114.9910761  81.5210917  25.9117646 115.8777880
  81.1227200  26.0219916 115.1098701  80.9062137  26.1199712 116.4604440
  81.3709806  25.9591214 115.8509180  80.0938819  12.5191794 108.7452020
  79.5003658  12.8408790 108.1936587  80.1314097  11.6732889 108.5373126
  80.0113208  12.4416122 108.6334791  82.9696636  12.4771298 112.1753770
  82.7410329  12.5004000 111.3332128  83.2294712  11.6528765 112.2948781
  82.9742824  12.3587378 112.0678968  76.0241398  11.0147845 113.4707966
  76.4998764  11.3764924 112.8358147  75.5229998  11.6704312 113.7508109
  76.0206757  11.1642033 113.4184707  89.2552760  20.4869613 109.2620971
  89.6386365  21.2360969 109.4919068  88.4596873  20.7335432 109.0032960
  89.1946542  20.6339307 109.2578545  78.0668051  13.1589044 106.8381350
  78.4467016  13.1768674 106.0532465  77.3260647  13.6043033 106.7172197
  78.0136889  13.2270819 106.7044918  85.6953342  11.4671236 112.4256929
  85.6947568  11.3119892 113.2841205  85.4909522  12.3134223 112.3698314
  85.6653120  11.5691856 112.5444868  83.4194194  16.1468737 116.0793135
  83.9147859  15.4291732 116.0397156  82.6093970  15.8439535 115.9647622
  83.3738087  15.9966384 116.0566861  78.8652805  19.9966551 108.2290140
  78.0564128  19.6733224 108.1823449  79.3727714  19.2899773 108.1618389
  78.8202472  19.8447867 108.2120434  69.4943083  17.4238744 113.9537504
  68.6288602  17.4124434 113.8420275  69.5941899  17.2368967 114.8008643
  69.3817250  17.3944805 114.0626449  85.4846013  18.8972425 118.7670264
  85.9101084  18.3746847 118.2140689  85.1202933  19.4953262 118.2458887
  85.4932615  18.9082652 118.6079274  75.1200093  27.1936642 117.5267610
  75.4346651  28.0073031 117.5345391  75.5293506  26.8086861 118.1949769
  75.2268190  27.2565345 117.6271701  82.0724612  22.6106689 115.0971422
  82.5435790  23.3246952 115.2661407  82.4084791  22.0105439 115.6331291
  82.1919727  22.6278153 115.2003798  82.7098558  22.4024623 121.8599114
  82.1619504  21.7782507 121.5919180  83.1711587  22.5918895 121.1443194
  82.6965768  22.3383674 121.7149545  78.0587222   9.3850573 109.5208981
  78.8802916   9.5548885 109.2790676  77.5956873   9.5397834 108.7975279
  78.1118384   9.4332306 109.3780626  72.4613113  21.1409751 117.1746218
  73.0657970  21.1005585 116.5460039  72.2540425  21.9880903 117.2050274
  72.5202010  21.2597753 117.0862335  82.2756885  23.4075696 118.3908456
  83.0955259  23.2638662 118.6524751  81.9950962  24.0321895 118.9324893
  82.3553628  23.4786048 118.5096395  98.7470535  31.0640548 111.3551332
  98.7164540  31.9185184 111.5269601  99.3451884  30.7635840 111.9137475
  98.8307693  31.1457044 111.4626134  91.9470220  30.1516199 116.1104262
  91.0908116  30.3124697 116.1613379  91.9937874  29.2808263 116.1309323
  91.8269331  30.0467001 116.1210328  86.3311360  39.6878917 111.8741494
  85.5794259  39.3094455 111.6457539  86.7797371  39.7197350 111.1260304
  86.2861027  39.6364524 111.7298996  91.7836320  40.1104286 107.3027041
  91.4487688  40.7881208 106.8671263  92.2963190  39.7209597 106.7143913
  91.8101901  40.1528864 107.1513832  91.3240611  42.0618555 113.2438153
  91.7079990  42.6305453 112.7042928  91.2599752  41.3368065 112.7643969
  91.3714038  42.0394018 113.0932015  94.7922041  32.2108243 118.7535914
  95.3378001  32.8893329 118.8129884  94.7338917  32.0695704 117.8937495
  94.8637955  32.2900244 118.6347975  87.9096116  39.6997309 114.1404266
  88.0106479  38.8897663 114.4501394  87.3137861  39.6054255 113.5103945
  87.8368655  39.5662337 114.0930505  96.5687110  33.6392850 109.6269642
  96.4526636  34.3900536 110.0561780  97.3642996  33.3816803 109.8765729
  96.6691699  33.7127697 109.7273733  87.7496855  44.6174898 115.5419122
  88.3934311  45.0588062 115.9315281  88.0753111  43.8128324 115.4549381
  87.8928684  44.5640093 115.5864600  81.1061160  35.7217595 113.7656600
  80.8711345  34.8885248 113.6588869  81.2446801  36.0022261 112.9517801
  81.0916823  35.6401099 113.6298955  83.4051248  27.8903326 116.6640908
  82.7856279  27.2995973 116.4950923  83.3035111  28.4814761 116.0305231
  83.2988923  27.8907408 116.5445897  88.4517435  37.6286873 110.9138984
  88.7733276  38.1692080 110.3100292  89.0989532  37.0583644 111.0461274
  88.5943490  37.6246048 110.8446019  90.5019143  29.6302868 110.9973371
  91.1999308  29.8090995 111.4894834  90.8171476  29.1073207 110.3743760
  90.6514480  29.5796640 110.9775381  83.1320381  31.4355608 118.9084477
  83.0079078  32.0218053 119.5434296  83.7838665  30.9415803 119.2096752
  83.2094030  31.4494412 119.0470406  90.6907079  36.0173313 110.9853162
  91.1300714  35.4090413 111.4307935  90.5411742  35.6380686 110.2138627
  90.7328544  35.8711784 110.9372330  88.1578722  34.6117325 118.1871988
  88.8027724  34.1189768 117.8682936  88.3980499  34.7542111 119.0138066
  88.2889307  34.5594767 118.2621521  90.6964813  37.4572230 117.8378880
  90.9788056  36.6623636 117.6165636  91.4250973  37.9352818 117.8583941
  90.8454377  37.4106827 117.8081896  88.6746007  24.9995264 115.0794645
  88.3449337  25.4506408 114.4098344  87.9991009  24.9211428 115.6267652
  88.5256443  25.0546400 115.0617869  94.2916415  34.3700494 107.9383932
  94.2067710  35.2261461 108.0833500  94.7800798  34.0944818 108.6066091
  94.3505312  34.4557815 108.0586013  95.8822415  20.9880787 113.3244256
  95.5675856  21.6784266 113.7564678  95.3649356  20.9325570 112.6229757
  95.7586885  21.0815676 113.2841205  95.2234848  30.9885288 109.4381667
  94.6946320  31.2044922 110.0978973  95.7459868  31.6821427 109.3582636
  95.2223301  31.1228425 109.5237266 100.6782901  36.5631593 114.8114711
  99.8480604  36.7742236 114.9748128 100.6292154  35.7368647 114.5356995
 100.5489637  36.4721199 114.7952077  87.1134456  34.8848505 108.2389135
  86.5291671  35.3898536 108.6454999  86.7104551  34.6590892 107.4985727
  86.9673760  34.9256753 108.1894160  82.6678485  40.6003266 115.0412806
  82.1846063  41.3253756 115.0172390  83.4801803  40.8979396 115.1522964
  82.7169233  40.7505620 115.0540085  88.7392639  39.3935447 117.6462621
  88.2219581  39.0342862 117.0423929  89.4367030  38.8697621 117.6568687
  88.7658220  39.2633135 117.5592879  92.3956231  39.8430261 123.6078794
  92.4839577  39.6556401 124.4557004  92.8245943  39.1967690 123.2083640
  92.4718333  39.7193269 123.6750545  89.9626691  39.1261421 122.5896456
  89.3997525  38.7134031 123.1136117  90.7247714  39.0514326 123.0089599
  89.9921139  39.0538821 122.7289456  91.5711671  31.1314157 106.7158055
  91.8107674  31.3392141 105.9033398  91.8927512  30.3271666 106.8247000
  91.6548829  31.0428258 106.6118608  86.8801961  23.0607553 110.5617593
  87.6347929  23.4285870 110.3234643  86.7029496  23.4347107 111.3296773
  86.9656439  23.1705741 110.6402482  85.5222682  41.1159442 115.1933086
  86.2243261  40.6011431 115.2505843  85.4420165  41.4433593 115.9979961
  85.6146443  41.0873668 115.3205878  86.5701589  31.3535029 124.3213501
  86.7422092  31.2440924 125.1698783  87.1070946  31.9989434 124.0844693
  86.6746593  31.4327031 124.4118598  85.2359026  25.4677872 107.2595706
  85.0534599  25.6849753 106.4336699  86.0984639  25.5816884 107.3154321
  85.3363615  25.5167770 107.1450193  84.8473458  37.3065794 114.7018694
  85.6862357  37.5388727 114.7492456  84.8785227  36.4370105 114.6325729
  84.9755175  37.2122740 114.6983339  85.4726161  37.7266669 119.0032000
  86.0124386  37.5837800 119.6735372  84.7896107  38.1263420 119.3716026
  85.4518314  37.7646340 119.1566421  90.9158745  22.4704282 110.2944730
  91.6444905  22.2920237 109.8482886  91.0053638  23.3122362 110.5051908
  91.0365407  22.5688161 110.2598248  94.8967045  33.4057670 114.1977024
  95.6524560  33.8389184 114.2365933  95.0029370  32.7562440 114.7711660
  95.0237216  33.3735154 114.2875050  97.9347217  37.2330947 114.9479427
  97.4982448  37.2367689 115.7038398  97.6010132  37.9136446 114.5159004
  97.8209837  37.3343403 114.9960259  92.5076290  39.2739280 126.2722577
  93.2916707  39.3870128 126.6378319  92.3072885  38.4480417 126.4681263
  92.5942316  39.1685999 126.3556963  80.8763306  33.9466960 119.1566421
  80.6101721  33.1306077 119.3157411  80.8901870  33.9920116 118.2861937
  80.8388028  33.8323865 119.0519903  84.7821053  28.7452044 105.7718179
  84.0679230  28.4590224 106.1840612  85.2665021  29.0848670 106.4124567
  84.7480416  28.7533694 105.9273814  85.6261912  27.4845338 121.8033429
  84.9333709  27.0142318 122.0494160  86.2422239  27.2583643 122.3775136
  85.6146442  27.3812470 121.9242581  92.6646683  41.1849382 119.9189033
  91.8661929  40.9448882 120.1762901  93.1132695  41.2363775 120.6656081
  92.6121295  41.1571773 120.0673957 101.0691563  33.9511867 113.8399064
 101.7307997  33.3902535 113.7394973 100.4282975  33.4563898 114.1651755
 101.0720430  33.7948276 113.8731404  91.9568371  37.2481998 106.1479987
  92.3719519  36.9167022 105.4564483  91.1260300  37.0150901 106.0200124
  91.8956379  37.1653254 106.0270835  81.2856719  34.7325739 116.4378165
  81.1032293  34.7072625 115.5850458  82.0206388  35.2024677 116.4767074
  81.3670783  34.7987102 116.3176084  97.3556393  34.9677249 113.5811053
  97.5911983  35.1122448 112.7537904  97.5045957  35.7319657 113.9742567
  97.4122197  35.1016304 113.5174657  84.3502471  31.4510742 122.9460274
  85.0742443  31.4363773 123.4325169  84.4518607  32.1606098 122.4482242
  84.4720680  31.5535445 122.9439061  99.1846850  33.8078915 111.4180657
  99.5155067  34.3406555 110.8120752  99.7579938  33.8617803 112.0742608
  99.3180529  33.8948484 111.4258438  94.3978739  31.6543818 112.1004237
  94.4925594  32.3933112 112.5543862  93.7737583  31.2261293 112.5338801
  94.3187769  31.7005139 112.2312384  92.6531213  34.8330031 122.7494518
  93.2270075  34.1957275 122.9043082  92.5746017  34.8334113 121.8804175
  92.7264448  34.7395142 122.6440929  81.2527630  31.6119240 116.5877232
  81.8301132  31.4755691 117.2269477  80.5541691  31.1555024 116.8422816
  81.2348651  31.5241506 116.7199522  94.6501761  33.4992558 105.3341189
  94.5681923  33.5694745 106.1996176  95.2881481  34.0622302 105.1424930
  94.7321598  33.5931529 105.4331138  88.0094932  33.2653296 114.8015715
  87.7514176  32.4325031 114.7747015  88.0643415  33.4910909 113.9608216
  87.9794710  33.1751067 114.6735852  93.0895982  25.3681746 114.9019808
  92.3852309  24.8790932 115.0603727  93.1380956  25.3804221 114.0308252
  92.9926034  25.2971394 114.7959148  86.9829644  30.8191058 115.2880610
  86.4079235  30.9783227 115.9244571  86.6065320  30.1826467 114.8249061
  86.8432456  30.7488871 115.3135168  90.6502933  29.2914408 120.1472988
  90.2617365  28.8668625 119.4925180  89.9857631  29.5396557 120.6550015
  90.4949860  29.2653129 120.1260856 100.2926202  29.0489412 112.9220818
 100.0362767  28.2369354 112.7318701 101.1355516  29.0566979 112.6951006
 100.3792227  28.9301410 112.8605636  76.7286463  30.4631133 113.3025051
  76.8146715  30.0863001 114.0838581  77.3562260  30.0891579 112.8245009
  76.8343014  30.3516615 113.3470528  91.7541871  33.5213012 108.3449795
  92.5682510  33.8127905 108.2332567  91.6901012  32.8672874 107.7708088
  91.8644610  33.4678207 108.2438633  87.6249779  36.9934530 113.4722107
  88.2623726  36.7546277 114.0173901  88.0504851  37.1971688 112.7375268
  87.7825945  36.9885540 113.4439265  82.3162421  39.2322866 117.3556411
  82.3566567  39.5037717 116.5276191  82.8756946  39.7564774 117.7714199
  82.4045767  39.3498621 117.2948299  88.2652594  32.2136819 107.8096997
  88.6497747  31.9944526 108.5613542  88.0164214  33.0399765 107.9398073
  88.2854667  32.3034966 107.9398073  98.9987782  35.9883457 118.8207665
  98.6933599  36.7211514 119.1820981  98.2793997  35.5821386 118.5400452
  98.8475124  36.0365190 118.8320803  90.0071251  37.4706952 115.1515894
  90.0810259  37.3082124 116.0057744  90.8240757  37.6597142 114.9076375
  90.1387610  37.4743695 115.2413919  83.7677008  37.8164815 112.1810337
  82.9415125  38.0626552 112.0544616  83.8288999  37.7376896 113.0472395
  83.6551175  37.8409764 112.2899282  85.9853031  23.8833756 113.1405777
  85.1175457  23.9556355 113.2063387  86.2728236  24.6855835 113.3293752
  85.8992780  24.0127903 113.1780544  88.5475837  40.4341695 109.8829367
  88.8374135  40.0430677 109.1588594  89.2779318  40.6158400 110.3234642
  88.6982721  40.4035509 109.8412174  89.1370582  35.2359441 120.9682498
  88.6382276  35.9475209 121.0467386  89.9470806  35.5560108 120.9300660
  89.1826689  35.3886290 120.9739066  86.4881752  42.4109078 112.9489517
  86.2682048  42.1206432 113.7416184  86.2676274  41.7524033 112.4207429
  86.4229347  42.2708786 112.9878426  85.3998700  34.4982394 115.2145218
  85.1111948  33.8719865 115.7490946  86.2682048  34.4402682 115.2809899
  85.4858951  34.3969938 115.3036173  96.1876597  29.6417178 115.5327200
  95.8441363  28.9207513 115.8834450  96.2869640  29.4331029 114.6905559
  96.1518640  29.5041381 115.4598880  88.6549708  43.7838468 111.7320209
  89.3073766  43.2514910 111.9611235  87.9575317  43.4307120 112.1188083
  88.6480426  43.6527991 111.8232377  85.6030973  36.1377645 111.1387584
  86.3576941  36.5190684 111.3523046  85.0101586  36.5888789 111.5934280
  85.6267687  36.2606473 111.2370462  96.6489626  36.1042882 111.0751188
  97.2147659  36.7636091 110.9909731  96.0017530  36.4492580 111.5467591
  96.6368383  36.2524823 111.1323945  86.9229200  37.3086207 116.5127699
  86.4009953  37.4486498 117.1979564  87.3103220  36.5496871 116.7029816
  86.9032900  37.2171730 116.6428775  83.9120384  27.3592015 110.5822654
  83.6245179  26.9893286 109.8454601  84.5990852  27.8286871 110.3206359
  83.9709281  27.3738985 110.4337729  93.1196205  39.0481666 110.4988268
  92.8782880  38.3149526 110.0915333  93.2997537  39.5968523 109.8454601
  93.1103828  39.0204057 110.3418491  88.3495525  34.3390226 111.9109190
  88.1538308  34.9464960 111.3169493  88.5729871  33.6458170 111.4300864
  88.3530166  34.3267751 111.7525271  86.7474055  31.2244964 112.0290058
  87.4696707  31.3886122 111.5693864  86.2682048  31.9454628 111.9229398
  86.7837786  31.3543193 111.9455672  94.7067563  27.5608762 117.4086743
  93.8678663  27.5870041 117.1725007  94.7771930  28.2079498 117.9892090
  94.5935956  27.6604888 117.4595860  84.3981672  33.6303036 121.1344198
  84.9102769  33.9087289 120.4852958  84.1118014  34.3692330 121.5007011
  84.4316535  33.7805390 121.0934076  93.1536841  24.4594139 112.1414359
  93.8563194  24.2601888 111.6634317  92.8881030  23.6870082 112.4483203
  93.2183473  24.3157105 112.1159801  98.5825087  32.7676749 114.6947985
  98.4959061  32.9232175 115.5482764  98.1275566  33.4114825 114.3207390
  98.5028343  32.8852504 114.7655092  81.4848578  28.1373228 111.4307935
  81.5864715  28.9399389 111.7588910  82.2804465  27.9360564 111.1331015
  81.6176484  28.2259127 111.4343290  87.9165397  25.7229425 121.1945240
  87.7248594  25.7384559 122.0444663  88.7663993  25.9193099 121.1711895
  88.0141119  25.7543776 121.3168535  82.3012310  28.2520406 119.1729056
  82.1597802  27.4004347 119.2973564  82.5852874  28.2949067 118.3491262
  82.3220156  28.1320156 119.0696680  92.4550903  30.0887496 113.3173544
  92.2085617  30.0083247 114.1510333  92.7836026  29.3040964 113.1236072
  92.4672146  29.9613762 113.4121068  96.3498951  36.7970856 117.1060326
  96.2113311  37.4951901 117.6109068  95.5698949  36.6419512 116.7496508
  96.2142178  36.8771022 117.1286600  88.4147930  32.8244215 122.7296528
  88.5591306  33.4045423 122.0939638  88.7623578  33.2020511 123.4346382
  88.4875391  32.9664919 122.7395523  90.5867847  32.0234383 120.5121659
  89.8391161  32.2165398 120.1069937  90.7409372  31.1979603 120.2745780
  90.4990275  31.9299495 120.4167065  87.4875685  41.0146987 119.5957554
  87.6365249  40.4549902 118.9430959  88.2675687  41.0938988 119.9790073
  87.6249779  40.9432552 119.5554504  97.8452324  36.1549109 107.8676825
  97.4659133  35.3686247 107.8606114  97.1818570  36.7035966 107.7248469
  97.6910799  36.1193933 107.8457622  90.0128986  41.1861629 120.8742045
  89.9372657  40.5170440 121.4292833  89.9418845  41.8879418 121.3882711
  89.9909592  41.1906537 121.0318893  83.0702616  26.1650754 122.4906507
  82.5344805  25.5531112 122.8067274  83.1320380  26.7398890 123.1440173
  82.9998248  26.1597681 122.6341933  90.6699232  39.7062628 111.7065651
  91.4349124  39.4372272 111.3848315  90.5677322  39.2212639 112.4235714
  90.7680728  39.5952193 111.7645479  88.7052002  27.9087038 118.2458887
  87.9148077  27.7278498 118.5676223  89.1012625  27.1313990 118.2289181
  88.6468878  27.7674499 118.2911435  93.1917893  36.7374812 103.6865601
  93.9590878  36.7974937 103.2771452  92.7449202  36.1655254 103.2021919
  93.2391320  36.6611388 103.5543311  94.0895689  35.5429468 115.9718333
  93.4140690  35.3114700 116.4731720  94.0988065  34.9350651 115.3460438
  93.9914193  35.4188393 115.9534485  91.2189832  30.3847297 122.7282386
  91.1548974  31.2457253 122.6002523  91.3587020  30.0679290 121.9277937
  91.2305303  30.4647464 122.5910599  96.0912423  38.3994600 108.2028511
  96.1732260  39.2061587 107.8789962  96.5762165  38.4190560 108.9269284
  96.1749581  38.5215263 108.2615409  89.9008926  33.0779436 116.8698589
  89.4771175  33.2783935 116.1337607  89.7253782  32.2308284 116.9822889
  89.8119807  32.9828218 116.7772279  89.4020620  44.5929949 119.3320046
  89.8916550  43.8940738 119.1495711  88.8304852  44.2953819 119.9196103
  89.3905150  44.4456173 119.3921087  85.1891371  33.5731488 112.3026561
  85.3455991  33.5078290 113.1582553  85.5291964  34.3480040 112.0905241
  85.2624606  33.6780686 112.3981155  91.7270516  32.9489371 111.1719924
  92.2686061  32.4459752 111.6358545  92.0417075  32.8954566 110.3609410
  91.8534913  32.8668792 111.1203737  89.8956966  38.3406723 108.4559952
  89.9649786  37.4821261 108.5952953  90.6745421  38.5578604 108.1278977
  90.0209816  38.2459587 108.4277110  94.2864453  40.7644424 112.6696446
  93.8944245  40.4611139 111.9519312  94.4417525  41.6013514 112.4801400
  94.2518043  40.8428261 112.5352943  81.7625633  30.7566438 112.6187328
  82.1424598  31.1750983 111.9547596  81.1880998  31.3379894 112.9256172
  81.7336958  30.9044297 112.5664069  94.4504128  37.3294413 112.6102476
  94.0918783  37.5009056 113.3866509  93.9642839  37.7907619 112.0530475
  94.3262825  37.4233384 112.6427745  92.2674514  20.9525611 116.2129568
  91.3968072  20.9264333 116.1662877  92.5214855  20.7802804 115.3955413
  92.1768074  20.9235755 116.0849704  89.2392493  33.0093578 105.1502711
  89.5285018  33.7858461 105.4246285  89.3264292  32.4982310 105.8517210
  89.2946750  33.0485497 105.2945209  89.2923654  22.9631840 117.6703038
  88.7762143  22.2712031 117.7954617  88.7317583  23.6302617 117.6165637
  89.1330168  22.9595097 117.6809104  95.6108867  38.2198309 123.5569677
  96.2488588  37.7258505 123.2232133  94.9682959  38.1475709 122.9721904
  95.6103094  38.1357317 123.4212032  97.3365867  30.0687455 118.1235593
  96.9093476  29.9813803 117.3683692  96.6991920  30.1765230 118.7090437
  97.1795475  30.0720115 118.0981034  95.6663124  38.9118117 120.1975034
  96.4555502  38.5607182 120.3177116  95.8406722  39.7254506 119.9351668
  95.8083406  38.9803974 120.1762902  85.4056434  32.3226843 117.2502823
  84.5644441  32.2230717 117.4581717  85.6146442  33.0922323 117.6017144
  85.3121127  32.4218886 117.3330138  82.8832001  29.9446380 115.0787574
  82.4888699  30.0189392 114.3037683  82.3272118  30.3304326 115.6295935
  82.7434814  30.0128154 115.0455233  94.5196948  22.9227674 114.7591452
  94.7246542  22.8549982 115.6048450  94.1923372  23.7286495 114.6912630
  94.5012196  23.0313614 114.8751108  89.2173099  30.2508242 116.5000420
  88.9136237  29.6964230 117.1010828  88.5152520  30.4300452 116.0128455
  89.0689309  30.1953024 116.5170126  88.2739196  27.5608762 111.0645122
  88.5498931  26.8427674 110.6522690  88.8737866  28.1593682 110.8566228
  88.4032461  27.5429133 110.9725883  87.2791450  37.4657963 121.2072518
  87.1711805  37.4760025 122.0734576  87.4887232  38.2912743 121.0177472
  87.2941561  37.5899038 121.3076610  91.7749717  25.2322279 109.3391717
  92.2293463  25.4032840 110.0639562  92.2489763  24.6190390 108.9389493
  91.9118037  25.1673164 109.3865479  85.2965242  34.7170605 118.6694456
  84.7053176  35.3580103 118.6397471  86.0586266  35.1408222 118.6425755
  85.3213503  34.8746444 118.6609603  85.6925865  25.8772603 119.3362473
  86.1527347  25.9511532 120.0737597  85.7381972  26.6753857 118.9862295
  85.7676420  26.0066750 119.3935230  95.0554759  40.1679917 116.1026480
  94.8574447  40.6570731 115.4082692  94.4342470  40.3721158 116.6810614
  94.9342323  40.2696455 116.0849703  89.1162737  31.9364814 110.4436724
  89.8604782  32.3239090 110.6819674  89.2623433  31.0922239 110.6077212
  89.2473322  31.8695286 110.5030694  91.0342312  23.7315073 115.4768586
  90.1878357  23.9037880 115.3509936  91.0313445  22.9264416 115.8134414
  90.9089462  23.6376101 115.5079713  92.1040613  27.5090287 116.3430644
  91.6300567  26.9832049 116.8535955  92.4758749  26.9619760 115.7745505
  92.0890502  27.3506284 116.3345791  82.4813643  29.5061794 121.7114190
  83.3439256  29.4057503 121.6251519  82.1505426  28.9256503 121.1499762
  82.5598839  29.4053420 121.6159595  94.0324112  28.4026842 109.4056398
  93.5047131  28.4855585 108.7162106  94.4919821  29.1444713 109.4021042
  94.0225963  28.5247504 109.3031093  85.8415429  28.3304243 118.3724608
  85.2168499  28.3422635 117.7650560  85.5061024  28.8064418 119.0215848
  85.7000921  28.4022760 118.3781176  86.0257178  26.6729361 104.4297293
  85.6769982  27.3249086 104.8928842  85.5453623  26.6586474 103.7021164
  85.9027421  26.7672415 104.3908384  82.5541104  36.3904703 119.8128372
  82.0241029  35.6997142 119.8623347  82.8266198  36.3814888 118.9841081
  82.5165827  36.2871835 119.6975788  93.5861195  36.9730405 108.5366055
  94.3095394  37.4388518 108.3930628  93.1461786  37.0404015 107.7863652
  93.6276887  37.0514242 108.4050836  92.7547350  33.8327947 119.7866744
  92.1404343  33.2885998 120.0815379  93.2714635  33.3192184 119.3072560
  92.7403012  33.6764356 119.7590972  91.9943647  34.9032217 117.5211042
  91.5671255  34.2781936 117.0876478  91.9868591  34.6207139 118.3470049
  91.9302788  34.7684998 117.5790870  85.1106174  29.9397390 120.5899476
  85.2699661  29.1840715 120.9951198  84.9299068  30.4888330 121.2440214
  85.1071533  29.9091204 120.7462182  90.3229357  25.7800972 117.7353576
  90.3471844  25.2461084 117.0466356  90.5740830  25.2718281 118.3979167
  90.3639275  25.6261876 117.7318221  77.8336947  33.0632467 117.1696720
  77.7280396  33.0179311 116.3048804  77.0837167  33.4086247 117.4511005
  77.7072550  33.1073375 117.0834050  86.6030679  24.5071790 117.1159321
  86.6429051  25.0080997 117.8294028  85.7780344  24.5982184 116.8465244
  86.4870205  24.5953606 117.1809859  88.7860292  34.0732530 125.2179615
  87.9355922  34.2104244 125.3537260  88.9488420  33.3396308 125.6627317
  88.6844155  33.9846631 125.3035214  88.0245042  31.0232300 119.4133220
  87.1936972  31.1906118 119.2068468  87.9696560  30.6468251 120.1982105
  87.8934457  30.9922031 119.4981748  86.3981086  29.2987892 109.9423337
  86.5384047  29.7960356 110.6451979  86.8963619  28.5974186 110.0837551
  86.4922167  29.2689870 110.0674916  86.4281309  30.1655003 107.2715914
  87.0626388  30.7615428 107.2065376  86.5106919  29.8658460 108.0861784
  86.5337860  30.2095911 107.3819001  88.0060291  26.0968978 107.2461356
  88.3276133  25.6172060 106.5920618  88.2687235  26.9068624 107.0552168
  88.0926317  26.1458876 107.1216848  91.2357264  37.1187852 120.7660172
  90.7282355  37.6723699 121.2100803  90.9383910  37.1796142 119.9478947
  91.1162149  37.2094163 120.7108629  82.9334297  32.3622843 110.5405460
  83.4426526  32.9587351 110.9216766  83.4068569  32.0948817 109.8581880
  83.0777672  32.4108659 110.4959983  93.8465045  41.0351110 108.6964116
  93.1294354  40.8611972 108.2311353  94.4971782  40.8003682 108.1639602
  93.8366895  40.9746902 108.5493334  91.8413669  21.9556272 113.0175412
  91.1981987  21.8053918 113.5860551  91.5013076  21.7098617 112.2524517
  91.6958747  21.8968394 112.9878427  96.4313016  29.9115699 112.4405421
  95.7604206  30.4545401 112.3118486  97.1252766  30.3810554 112.1987116
  96.4341883  30.0613970 112.3860949  90.4799750  42.0512411 117.6717179
  90.2565404  41.2931240 118.0401205  89.9909593  42.0810432 116.9497619
  90.3743199  41.9434635 117.6193920  96.5941143  26.3671582 115.3495794
  96.9468753  25.9401305 116.0241593  95.7355945  26.2822426 115.4796870
  96.5190588  26.2916323 115.4690804  85.2924828  28.9979102 113.4078641
  84.5736817  29.4143234 113.6751504  85.6637191  29.5633341 112.8570279
  85.2416760  29.1428383 113.3661448  89.1278206  42.2712869 115.1254264
  88.7138605  41.6086999 114.7358105  89.8125581  42.4190727 114.6049958
  89.1676578  42.1953527 114.9910761  92.4943501  41.4302954 115.8777880
  92.0959784  41.5405224 115.1098701  91.8794720  41.6385020 116.4604440
  92.3442390  41.4776522 115.8509180  91.0671403  28.0377102 108.7452020
  90.4736242  28.3594098 108.1936587  91.1046680  27.1918197 108.5373126
  90.9845792  27.9601430 108.6334791  93.9429219  27.9956606 112.1753770
  93.7142912  28.0189308 111.3332128  94.2027295  27.1714073 112.2948781
  93.9475407  27.8772686 112.0678968  88.2248448  29.8491079 121.7778870
  87.7127351  29.2412262 122.1363902  88.0527944  30.5647672 122.2452846
  88.1238085  29.8654379 121.8995094  83.0714162  28.2928655 124.4281232
  82.9016753  28.9530029 123.8829439  82.6280112  28.5035216 125.1493721
  82.9813496  28.4214637 124.4542862  86.9973982  26.5333153 113.4707966
  87.4731348  26.8950232 112.8358147  86.4962581  27.1889620 113.7508109
  86.9939341  26.6827341 113.4184707 100.2285343  36.0054921 109.2620971
 100.6118949  36.7546277 109.4919068  99.4329457  36.2520740 109.0032960
 100.1679125  36.1524614 109.2578545  79.9716227  31.1975520 119.6869722
  79.4242946  30.5276166 119.8050590  80.7608605  30.8305368 119.7513189
  80.0068411  31.0440507 119.7138423  89.0400635  28.6774352 106.8381350
  89.4199600  28.6953982 106.0532465  88.2993231  29.1228341 106.7172197
  88.9869473  28.7456127 106.7044918  96.6685925  26.9856544 112.4256929
  96.6680152  26.8305200 113.2841205  96.4642105  27.8319531 112.3698314
  96.6385703  27.0877164 112.5444868  78.7303196  30.4096328 116.8415745
  78.5524957  29.9572937 117.5670661  78.4422218  31.2122489 117.0254223
  78.6616149  30.4618886 116.9759248  94.3926777  31.6654045 116.0793135
  94.8880443  30.9477040 116.0397156  93.5826553  31.3624843 115.9647622
  94.3470671  31.5151692 116.0566861  89.8385389  35.5151859 108.2290140
  89.0296712  35.1918532 108.1823449  90.3460298  34.8085081 108.1618389
  89.7935056  35.3633175 108.2120434  80.4675666  32.9424052 113.9537504
  79.6021186  32.9309742 113.8420275  80.5674482  32.7554275 114.8008643
  80.3549833  32.9130113 114.0626449  96.4578596  34.4157733 118.7670264
  96.8833668  33.8932155 118.2140689  96.0935516  35.0138570 118.2458887
  96.4665199  34.4267960 118.6079274  86.0932676  42.7121950 117.5267610
  86.4079235  43.5258339 117.5345391  86.5026089  42.3272169 118.1949769
  86.2000774  42.7750653 117.6271701  93.0457196  38.1291997 115.0971422
  93.5168374  38.8432260 115.2661407  93.3817374  37.5290747 115.6331291
  93.1652311  38.1463461 115.2003798  93.6831142  37.9209931 121.8599114
  93.1352088  37.2967815 121.5919180  94.1444171  38.1104203 121.1443194
  93.6698352  37.8568981 121.7149545  89.0319806  24.9035881 109.5208981
  89.8535500  25.0734193 109.2790676  88.5689456  25.0583142 108.7975279
  89.0850968  24.9517614 109.3780626  87.6215137  22.8978643 120.3007410
  88.1659550  22.5569770 120.8911752  87.6752073  23.7564104 120.4428695
  87.7104257  22.9733902 120.4089284  83.4345696  36.6595059 117.1746218
  84.0390554  36.6190893 116.5460039  83.2273009  37.5066211 117.2050274
  83.4934594  36.7783061 117.0862335  93.2489468  38.9261004 118.3908456
  94.0687842  38.7823970 118.6524751  92.9683546  39.5507203 118.9324893
  93.3286212  38.9971356 118.5096395  78.6696979  35.6429676 117.0445141
  78.5721257  34.8325948 117.3535198  79.4525848  35.6221470 116.6591409
  78.7713115  35.5196766 117.0332004 109.7203119  46.5825856 111.3551332
 109.6897123  47.4370492 111.5269601 110.3184467  46.2821148 111.9137475
 109.8040277  46.6642352 111.4626134 102.9202804  45.6701507 116.1104262
 102.0640699  45.8310005 116.1613379 102.9670457  44.7993571 116.1309323
 102.8001915  45.5652309 116.1210328  97.3043943  55.2064225 111.8741494
  96.5526843  54.8279763 111.6457539  97.7529955  55.2382658 111.1260304
  97.2593610  55.1549832 111.7298996 102.7568903  55.6289594 107.3027041
 102.4220272  56.3066516 106.8671263 103.2695774  55.2394905 106.7143913
 102.7834484  55.6714172 107.1513832 102.2973194  57.5803863 113.2438153
 102.6812574  58.1490761 112.7042928 102.2332336  56.8553373 112.7643969
 102.3446622  57.5579326 113.0932015 105.7654625  47.7293551 118.7535914
 106.3110585  48.4078637 118.8129884 105.7071501  47.5881011 117.8937495
 105.8370539  47.8085552 118.6347975  98.8828699  55.2182617 114.1404266
  98.9839062  54.4082971 114.4501394  98.2870445  55.1239563 113.5103945
  98.8101238  55.0847645 114.0930505 107.5419693  49.1578158 109.6269642
 107.4259219  49.9085844 110.0561780 108.3375580  48.9002111 109.8765729
 107.6424283  49.2313005 109.7273733  98.7229439  60.1360206 115.5419122
  99.3666895  60.5773370 115.9315281  99.0485695  59.3313632 115.4549381
  98.8661268  60.0825401 115.5864600  92.0793744  51.2402903 113.7656600
  91.8443928  50.4070556 113.6588869  92.2179384  51.5207569 112.9517801
  92.0649406  51.1586407 113.6298955  94.3783831  43.4088634 116.6640908
  93.7588863  42.8181281 116.4950923  94.2767695  44.0000069 116.0305231
  94.2721507  43.4092716 116.5445897  99.4250019  53.1472181 110.9138984
  99.7465860  53.6877388 110.3100292 100.0722115  52.5768952 111.0461274
  99.5676074  53.1431356 110.8446019 101.4751727  45.1488176 110.9973371
 102.1731892  45.3276303 111.4894834 101.7904059  44.6258515 110.3743760
 101.6247064  45.0981948 110.9775381  94.1052964  46.9540916 118.9084477
  93.9811661  47.5403361 119.5434296  94.7571249  46.4601111 119.2096752
  94.1826614  46.9679720 119.0470406 101.6639662  51.5358621 110.9853162
 102.1033298  50.9275721 111.4307935 101.5144325  51.1565994 110.2138627
 101.7061128  51.3897092 110.9372330  99.1311305  50.1302633 118.1871988
  99.7760308  49.6375076 117.8682936  99.3713082  50.2727419 119.0138066
  99.2621890  50.0780075 118.2621521 101.6697397  52.9757538 117.8378880
 101.9520639  52.1808944 117.6165636 102.3983557  53.4538126 117.8583941
 101.8186960  52.9292135 117.8081896  99.6478590  40.5180572 115.0794645
  99.3181920  40.9691716 114.4098344  98.9723592  40.4396736 115.6267652
  99.4989027  40.5731708 115.0617869 105.2648999  49.8885802 107.9383932
 105.1800294  50.7446769 108.0833500 105.7533382  49.6130126 108.6066091
 105.3237896  49.9743123 108.0586013 106.8554998  36.5066095 113.3244256
 106.5408439  37.1969574 113.7564678 106.3381940  36.4510877 112.6229757
 106.7319469  36.6000984 113.2841205 106.1967432  46.5070596 109.4381667
 105.6678903  46.7230230 110.0978973 106.7192452  47.2006735 109.3582636
 106.1955885  46.6413733 109.5237266 111.6515485  52.0816901 114.8114711
 110.8213188  52.2927544 114.9748128 111.6024737  51.2553955 114.5356995
 111.5222220  51.9906507 114.7952077  98.0867040  50.4033813 108.2389135
  97.5024255  50.9083844 108.6454999  97.6837135  50.1776200 107.4985727
  97.9406344  50.4442061 108.1894160  93.6411068  56.1188574 115.0412806
  93.1578647  56.8439064 115.0172390  94.4534387  56.4164704 115.1522964
  93.6901816  56.2690928 115.0540085  99.7125222  54.9120755 117.6462621
  99.1952164  54.5528170 117.0423929 100.4099614  54.3882929 117.6568687
  99.7390804  54.7818443 117.5592879 103.3688814  55.3615569 123.6078794
 103.4572160  55.1741709 124.4557004 103.7978527  54.7152998 123.2083640
 103.4450917  55.2378577 123.6750545 100.9359274  54.6446729 122.5896456
 100.3730109  54.2319339 123.1136117 101.6980298  54.5699634 123.0089599
 100.9653723  54.5724129 122.7289456 102.5444254  46.6499465 106.7158055
 102.7840258  46.8577449 105.9033398 102.8660095  45.8456974 106.8247000
 102.6281412  46.5613566 106.6118608  97.8534544  38.5792861 110.5617593
  98.6080513  38.9471178 110.3234643  97.6762079  38.9532415 111.3296773
  97.9389023  38.6891049 110.6402482  96.4955266  56.6344750 115.1933086
  97.1975845  56.1196739 115.2505843  96.4152749  56.9618901 115.9979961
  96.5879026  56.6058976 115.3205878  97.5434172  46.8720337 124.3213501
  97.7154676  46.7626232 125.1698783  98.0803530  47.5174742 124.0844693
  97.6479176  46.9512339 124.4118598  96.2091609  40.9863180 107.2595706
  96.0267182  41.2035061 106.4336699  97.0717222  41.1002192 107.3154321
  96.3096199  41.0353078 107.1450193  95.8206041  52.8251102 114.7018694
  96.6594941  53.0574035 114.7492456  95.8517810  51.9555413 114.6325729
  95.9487759  52.7308048 114.6983339  96.4458744  53.2451977 119.0032000
  96.9856969  53.1023108 119.6735372  95.7628690  53.6448728 119.3716026
  96.4250898  53.2831648 119.1566421 101.8891328  37.9889590 110.2944730
 102.6177489  37.8105545 109.8482886 101.9786221  38.8307670 110.5051908
 102.0097990  38.0873469 110.2598248 105.8699629  48.9242978 114.1977024
 106.6257144  49.3574492 114.2365933 105.9761953  48.2747747 114.7711660
 105.9969800  48.8920462 114.2875050 108.9079800  52.7516255 114.9479427
 108.4715032  52.7552997 115.7038398 108.5742716  53.4321754 114.5159004
 108.7942420  52.8528711 114.9960259 103.4808874  54.7924588 126.2722577
 104.2649290  54.9055436 126.6378319 103.2805468  53.9665725 126.4681263
 103.5674899  54.6871307 126.3556963  91.8495889  49.4652268 119.1566421
  91.5834304  48.6491385 119.3157411  91.8634453  49.5105423 118.2861937
  91.8120612  49.3509173 119.0519903  95.7553636  44.2637352 105.7718179
  95.0411813  43.9775532 106.1840612  96.2397605  44.6033978 106.4124567
  95.7212999  44.2719002 105.9273814  96.5994496  43.0030646 121.8033429
  95.9066292  42.5327626 122.0494160  97.2154823  42.7768951 122.3775136
  96.5879026  42.8997778 121.9242581 103.6379267  56.7034690 119.9189033
 102.8394513  56.4634190 120.1762901 104.0865279  56.7549083 120.6656081
 103.5853878  56.6757081 120.0673957 112.0424146  49.4697175 113.8399064
 112.7040580  48.9087843 113.7394973 111.4015558  48.9749206 114.1651755
 112.0453014  49.3133584 113.8731404 102.9300954  52.7667306 106.1479987
 103.3452103  52.4352330 105.4564483 102.0992884  52.5336209 106.0200124
 102.8688963  52.6838562 106.0270835  92.2589303  50.2511047 116.4378165
  92.0764876  50.2257933 115.5850458  92.9938972  50.7209985 116.4767074
  92.3403367  50.3172410 116.3176084 108.3288977  50.4862557 113.5811053
 108.5644566  50.6307756 112.7537904 108.4778541  51.2504965 113.9742567
 108.3854780  50.6201612 113.5174657  95.3235055  46.9696050 122.9460274
  96.0475027  46.9549081 123.4325169  95.4251191  47.6791405 122.4482242
  95.4453264  47.0720753 122.9439061 110.1579434  49.3264223 111.4180657
 110.4887651  49.8591863 110.8120752 110.7312522  49.3803111 112.0742608
 110.2913113  49.4133792 111.4258438 105.3711323  47.1729126 112.1004237
 105.4658177  47.9118420 112.5543862 104.7470166  46.7446601 112.5338801
 105.2920353  47.2190447 112.2312384 103.6263797  50.3515339 122.7494518
 104.2002658  49.7142583 122.9043082 103.5478600  50.3519421 121.8804175
 103.6997032  50.2580450 122.6440929  92.2260213  47.1304548 116.5877232
  92.8033716  46.9940999 117.2269477  91.5274275  46.6740332 116.8422816
  92.2081235  47.0426814 116.7199522 105.6234344  49.0177866 105.3341189
 105.5414507  49.0880053 106.1996176 106.2614065  49.5807610 105.1424930
 105.7054182  49.1116837 105.4331138  98.9827515  48.7838604 114.8015715
  98.7246760  47.9510339 114.7747015  99.0375998  49.0096217 113.9608216
  98.9527293  48.6936375 114.6735852 104.0628566  40.8867054 114.9019808
 103.3584892  40.3976240 115.0603727 104.1113540  40.8989529 114.0308252
 103.9658617  40.8156702 114.7959148  97.9562228  46.3376366 115.2880610
  97.3811819  46.4968535 115.9244571  97.5797904  45.7011775 114.8249061
  97.8165040  46.2674179 115.3135168 101.6235516  44.8099715 120.1472988
 101.2349949  44.3853933 119.4925180 100.9590215  45.0581865 120.6550015
 101.4682444  44.7838437 120.1260856 111.2658785  44.5674720 112.9220818
 111.0095350  43.7554662 112.7318701 112.1088099  44.5752287 112.6951006
 111.3524811  44.4486718 112.8605636  87.7019046  45.9816441 113.3025051
  87.7879298  45.6048309 114.0838581  88.3294844  45.6076887 112.8245009
  87.8075597  45.8701923 113.3470528 102.7274454  49.0398320 108.3449795
 103.5415093  49.3313213 108.2332567 102.6633596  48.3858182 107.7708088
 102.8377193  48.9863515 108.2438633  98.5982363  52.5119837 113.4722107
  99.2356310  52.2731585 114.0173901  99.0237434  52.7156996 112.7375268
  98.7558529  52.5070848 113.4439265  93.2895005  54.7508174 117.3556411
  93.3299150  55.0223025 116.5276191  93.8489529  55.2750082 117.7714199
  93.3778351  54.8683929 117.2948299  99.2385178  47.7322127 107.8096997
  99.6230330  47.5129834 108.5613542  98.9896798  48.5585073 107.9398073
  99.2587250  47.8220273 107.9398073 109.9720365  51.5068765 118.8207665
 109.6666182  52.2396822 119.1820981 109.2526581  51.1006694 118.5400452
 109.8207708  51.5550498 118.8320803 100.9803835  52.9892260 115.1515894
 101.0542843  52.8267432 116.0057744 101.7973341  53.1782450 114.9076375
 101.1120193  52.9929002 115.2413919  94.7409591  53.3350123 112.1810337
  93.9147709  53.5811860 112.0544616  94.8021583  53.2562204 113.0472395
  94.6283758  53.3595072 112.2899282  96.9585615  39.4019064 113.1405777
  96.0908041  39.4741663 113.2063387  97.2460819  40.2041143 113.3293752
  96.8725363  39.5313211 113.1780544  99.5208420  55.9527003 109.8829367
  99.8106719  55.5615984 109.1588594 100.2511901  56.1343708 110.3234642
  99.6715305  55.9220817 109.8412174 100.1103166  50.7544749 120.9682498
  99.6114859  51.4660517 121.0467386 100.9203390  51.0745416 120.9300660
 100.1559272  50.9071598 120.9739066  97.4614336  57.9294386 112.9489517
  97.2414631  57.6391740 113.7416184  97.2408858  57.2709341 112.4207429
  97.3961930  57.7894094 112.9878426  96.3731283  50.0167702 115.2145218
  96.0844532  49.3905173 115.7490946  97.2414631  49.9587990 115.2809899
  96.4591535  49.9155246 115.3036173 107.1609181  45.1602485 115.5327200
 106.8173947  44.4392821 115.8834450 107.2602223  44.9516337 114.6905559
 107.1251224  45.0226689 115.4598880  99.6282292  59.3023776 111.7320209
 100.2806350  58.7700218 111.9611235  98.9307900  58.9492428 112.1188083
  99.6213010  59.1713298 111.8232377  96.5763556  51.6562953 111.1387584
  97.3309524  52.0375992 111.3523046  95.9834169  52.1074097 111.5934280
  96.6000270  51.7791781 111.2370462 107.6222210  51.6228190 111.0751188
 108.1880243  52.2821399 110.9909731 106.9750113  51.9677888 111.5467591
 107.6100966  51.7710131 111.1323945  97.8961783  52.8271514 116.5127699
  97.3742537  52.9671806 117.1979564  98.2835803  52.0682179 116.7029816
  97.8765484  52.7357038 116.6428775  94.8852967  42.8777323 110.5822654
  94.5977763  42.5078594 109.8454601  95.5723435  43.3472179 110.3206359
  94.9441864  42.8924293 110.4337729 104.0928788  54.5666974 110.4988268
 103.8515464  53.8334834 110.0915333 104.2730121  55.1153831 109.8454601
 104.0836412  54.5389365 110.3418491  99.3228109  49.8575534 111.9109190
  99.1270891  50.4650268 111.3169493  99.5462454  49.1643478 111.4300864
  99.3262750  49.8453059 111.7525271  97.7206639  46.7430271 112.0290058
  98.4429291  46.9071430 111.5693864  97.2414632  47.4639936 111.9229398
  97.7570369  46.8728501 111.9455672 105.6800146  43.0794070 117.4086743
 104.8411247  43.1055349 117.1725007 105.7504514  43.7264806 117.9892090
 105.5668540  43.1790196 117.4595860  95.3714255  49.1488344 121.1344198
  95.8835352  49.4272597 120.4852958  95.0850598  49.8877638 121.5007011
  95.4049119  49.2990698 121.0934076 104.1269425  39.9779447 112.1414359
 104.8295777  39.7787196 111.6634317 103.8613613  39.2055390 112.4483203
 104.1916057  39.8342413 112.1159801 109.5557670  48.2862057 114.6947985
 109.4691645  48.4417483 115.5482764 109.1008150  48.9300133 114.3207390
 109.4760927  48.4037812 114.7655092  92.4581162  43.6558536 111.4307935
  92.5597298  44.4584697 111.7588910  93.2537048  43.4545872 111.1331015
  92.5909067  43.7444434 111.4343290  98.8897981  41.2414732 121.1945240
  98.6981178  41.2569867 122.0444663  99.7396577  41.4378407 121.1711895
  98.9873703  41.2729084 121.3168535  93.2744894  43.7705714 119.1729056
  93.1330386  42.9189655 119.2973564  93.5585457  43.8134375 118.3491262
  93.2952740  43.6505464 119.0696680 103.4283486  45.6072804 113.3173544
 103.1818200  45.5268555 114.1510333 103.7568609  44.8226272 113.1236072
 103.4404730  45.4799069 113.4121068 107.3231535  52.3156163 117.1060326
 107.1845894  53.0137209 117.6109068 106.5431533  52.1604820 116.7496508
 107.1874762  52.3956330 117.1286600  99.3880513  48.3429523 122.7296528
  99.5323889  48.9230731 122.0939638  99.7356162  48.7205819 123.4346382
  99.4607975  48.4850227 122.7395523 101.5600431  47.5419691 120.5121659
 100.8123745  47.7350705 120.1069937 101.7141956  46.7164911 120.2745780
 101.4722858  47.4484802 120.4167065  98.4608268  56.5332294 119.5957554
  98.6097832  55.9735210 118.9430959  99.2408271  56.6124296 119.9790073
  98.5982362  56.4617860 119.5554504 108.8184908  51.6734417 107.8676825
 108.4391717  50.8871555 107.8606114 108.1551153  52.2221274 107.7248469
 108.6643383  51.6379241 107.8457622 100.9861569  56.7046937 120.8742045
 100.9105240  56.0355748 121.4292833 100.9151428  57.4064726 121.3882711
 100.9642176  56.7091845 121.0318893  94.0435199  41.6836062 122.4906507
  93.5077389  41.0716420 122.8067274  94.1052964  42.2584197 123.1440173
  93.9730832  41.6782989 122.6341933 101.6431816  55.2247936 111.7065651
 102.4081707  54.9557580 111.3848315 101.5409906  54.7397947 112.4235714
 101.7413312  55.1137501 111.7645479  99.6784586  43.4272346 118.2458887
  98.8880661  43.2463806 118.5676223 100.0745209  42.6499298 118.2289181
  99.6201462  43.2859807 118.2911435 104.1650477  52.2560120 103.6865601
 104.9323462  52.3160245 103.2771452 103.7181786  51.6840561 103.2021919
 104.2123904  52.1796696 103.5543311 105.0628272  51.0614776 115.9718333
 104.3873274  50.8300008 116.4731720 105.0720648  50.4535959 115.3460438
 104.9646777  50.9373701 115.9534485 102.1922416  45.9032605 122.7282386
 102.1281557  46.7642561 122.6002523 102.3319604  45.5864598 121.9277937
 102.2037886  45.9832771 122.5910599 107.0645007  53.9179908 108.2028511
 107.1464844  54.7246894 107.8789962 107.5494749  53.9375867 108.9269284
 107.1482165  54.0400571 108.2615409 100.8741510  48.5964744 116.8698589
 100.4503759  48.7969243 116.1337607 100.6986365  47.7493592 116.9822889
 100.7852391  48.5013526 116.7772279 100.3753203  60.1115257 119.3320046
 100.8649134  59.4126046 119.1495711  99.8037436  59.8139127 119.9196103
 100.3637733  59.9641481 119.3921087  96.1623955  49.0916796 112.3026561
  96.3188574  49.0263598 113.1582553  96.5024548  49.8665348 112.0905241
  96.2357190  49.1965994 112.3981155 102.7003100  48.4674679 111.1719924
 103.2418645  47.9645060 111.6358545 103.0149659  48.4139874 110.3609410
 102.8267497  48.3854100 111.1203737 100.8689549  53.8592031 108.4559952
 100.9382370  53.0006569 108.5952953 101.6478004  54.0763912 108.1278977
 100.9942399  53.7644895 108.4277110 105.2597037  56.2829732 112.6696446
 104.8676829  55.9796447 111.9519312 105.4150109  57.1198822 112.4801400
 105.2250627  56.3613569 112.5352943  92.7358216  46.2751746 112.6187328
  93.1157181  46.6936291 111.9547596  92.1613581  46.8565202 112.9256172
  92.7069541  46.4229605 112.5664069 105.4236712  52.8479721 112.6102476
 105.0651366  53.0194364 113.3866509 104.9375422  53.3092926 112.0530475
 105.2995409  52.9418692 112.6427745 103.2407098  36.4710919 116.2129568
 102.3700656  36.4449640 116.1662877 103.4947439  36.2988112 115.3955413
 103.1500658  36.4421063 116.0849704 100.2125077  48.5278886 105.1502711
 100.5017602  49.3043769 105.4246285 100.2996876  48.0167618 105.8517210
 100.2679333  48.5670805 105.2945209 100.2656238  38.4817148 117.6703038
  99.7494727  37.7897339 117.7954617  99.7050167  39.1487925 117.6165637
 100.1062751  38.4780405 117.6809104 106.5841451  53.7383617 123.5569677
 107.2221171  53.2443812 123.2232133 105.9415543  53.6661017 122.9721904
 106.5835677  53.6542625 123.4212032 108.3098451  45.5872763 118.1235593
 107.8826059  45.4999111 117.3683692 107.6724504  45.6950538 118.7090437
 108.1528058  45.5905423 118.0981034 106.6395708  54.4303425 120.1975034
 107.4288086  54.0792490 120.3177116 106.8139305  55.2439813 119.9351668
 106.7815989  54.4989282 120.1762902  96.3789018  47.8412151 117.2502823
  95.5377025  47.7416025 117.4581717  96.5879026  48.6107631 117.6017144
  96.2853711  47.9404194 117.3330138  93.8564585  45.4631688 115.0787574
  93.4621283  45.5374700 114.3037683  93.3004702  45.8489634 115.6295935
  93.7167397  45.5313462 115.0455233 105.4929532  38.4412982 114.7591452
 105.6979125  38.3735290 115.6048450 105.1655956  39.2471803 114.6912630
 105.4744780  38.5498922 114.8751108 100.1905683  45.7693550 116.5000420
  99.8868820  45.2149538 117.1010828  99.4885104  45.9485760 116.0128455
 100.0421893  45.7138332 116.5170126  99.2471780  43.0794070 111.0645122
  99.5231514  42.3612982 110.6522690  99.8470449  43.6778990 110.8566228
  99.3765045  43.0614441 110.9725883  98.2524034  52.9843271 121.2072518
  98.1444389  52.9945333 122.0734576  98.4619815  53.8098051 121.0177472
  98.2674145  53.1084346 121.3076610 102.7482300  40.7507587 109.3391717
 103.2026047  40.9218148 110.0639562 103.2222346  40.1375698 108.9389493
 102.8850621  40.6858472 109.3865479  96.2697826  50.2355913 118.6694456
  95.6785759  50.8765411 118.6397471  97.0318849  50.6593530 118.6425755
  96.2946086  50.3931752 118.6609603  96.6658449  41.3957911 119.3362473
  97.1259930  41.4696840 120.0737597  96.7114555  42.1939165 118.9862295
  96.7409004  41.5252058 119.3935230 106.0287342  55.6865225 116.1026480
 105.8307031  56.1756039 115.4082692 105.4075053  55.8906466 116.6810614
 105.9074907  55.7881763 116.0849703 100.0895320  47.4550122 110.4436724
 100.8337365  47.8424398 110.6819674 100.2356017  46.6107547 110.6077212
 100.2205906  47.3880594 110.5030694 102.0074896  39.2500380 115.4768586
 101.1610941  39.4223188 115.3509936 102.0046028  38.4449724 115.8134414
 101.8822046  39.1561409 115.5079713 103.0773196  43.0275595 116.3430644
 102.6033151  42.5017357 116.8535955 103.4491332  42.4805068 115.7745505
 103.0623085  42.8691591 116.3345791  93.4546226  45.0247102 121.7114190
  94.3171839  44.9242811 121.6251519  93.1238009  44.4441811 121.1499762
  93.5331423  44.9238728 121.6159595 105.0056696  43.9212149 109.4056398
 104.4779715  44.0040893 108.7162106 105.4652404  44.6630021 109.4021042
 104.9958546  44.0432812 109.3031093  96.8148012  43.8489551 118.3724608
  96.1901083  43.8607943 117.7650560  96.4793607  44.3249726 119.0215848
  96.6733504  43.9208068 118.3781176  96.9989761  42.1914669 104.4297293
  96.6502565  42.8434394 104.8928842  96.5186207  42.1771782 103.7021164
  96.8760005  42.2857723 104.3908384  93.5273688  51.9090011 119.8128372
  92.9973612  51.2182450 119.8623347  93.7998781  51.9000196 118.9841081
  93.4898410  51.8057142 119.6975788 104.5593778  52.4915713 108.5366055
 105.2827977  52.9573826 108.3930628 104.1194369  52.5589323 107.7863652
 104.6009471  52.5699550 108.4050836 103.7279934  49.3513255 119.7866744
 103.1136927  48.8071306 120.0815379 104.2447218  48.8377492 119.3072560
 103.7135596  49.1949664 119.7590972 102.9676231  50.4217525 117.5211042
 102.5403839  49.7967244 117.0876478 102.9601175  50.1392447 118.3470049
 102.9035372  50.2870306 117.5790870  96.0838758  45.4582698 120.5899476
  96.2432244  44.7026022 120.9951198  95.9031651  46.0073638 121.2440214
  96.0804117  45.4276512 120.7462182 101.2961940  41.2986280 117.7353576
 101.3204428  40.7646392 117.0466356 101.5473414  40.7903589 118.3979167
 101.3371859  41.1447184 117.7318221  88.8069530  48.5817775 117.1696720
  88.7012979  48.5364619 116.3048804  88.0569750  48.9271555 117.4511005
  88.6805133  48.6258683 117.0834050  97.5763263  40.0257098 117.1159321
  97.6161634  40.5266305 117.8294028  96.7512927  40.1167492 116.8465244
  97.4602789  40.1138914 117.1809859  99.7592875  49.5917838 125.2179615
  98.9088506  49.7289552 125.3537260  99.9221003  48.8581616 125.6627317
  99.6576739  49.5031939 125.3035214  98.9977626  46.5417608 119.4133220
  98.1669556  46.7091426 119.2068468  98.9429143  46.1653559 120.1982105
  98.8667041  46.5107339 119.4981748  97.3713670  44.8173199 109.9423337
  97.5116631  45.3145664 110.6451979  97.8696203  44.1159494 110.0837551
  97.4654751  44.7875178 110.0674916  97.4013892  45.6840310 107.2715914
  98.0358972  46.2800736 107.2065376  97.4839503  45.3843768 108.0861784
  97.5070443  45.7281219 107.3819001  98.9792875  41.6154286 107.2461356
  99.3008716  41.1357368 106.5920618  99.2419819  42.4253932 107.0552168
  99.0658900  41.6644184 107.1216848 102.2089848  52.6373160 120.7660172
 101.7014939  53.1909007 121.2100803 101.9116494  52.6981450 119.9478947
 102.0894733  52.7279471 120.7108629  93.9066880  47.8808151 110.5405460
  94.4159109  48.4772659 110.9216766  94.3801152  47.6134125 109.8581880
  94.0510256  47.9293967 110.4959983 104.8197628  56.5536418 108.6964116
 104.1026938  56.3797280 108.2311353 105.4704366  56.3188990 108.1639602
 104.8099479  56.4932210 108.5493334 102.8146253  37.4741580 113.0175412
 102.1714571  37.3239226 113.5860551 102.4745660  37.2283925 112.2524517
 102.6691330  37.4153702 112.9878427 107.4045599  45.4301006 112.4405421
 106.7336789  45.9730709 112.3118486 108.0985350  45.8995862 112.1987116
 107.4074467  45.5799278 112.3860949 101.4532333  57.5697718 117.6717179
 101.2297988  56.8116548 118.0401205 100.9642176  57.5995740 116.9497619
 101.3475782  57.4619943 117.6193920 107.5673727  41.8856890 115.3495794
 107.9201337  41.4586613 116.0241593 106.7088528  41.8007734 115.4796870
 107.4923171  41.8101631 115.4690804  96.2657412  44.5164410 113.4078641
  95.5469401  44.9328542 113.6751504  96.6369774  45.0818649 112.8570279
  96.2149344  44.6613691 113.3661448 100.1010790  57.7898177 115.1254264
  99.6871189  57.1272307 114.7358105 100.7858164  57.9376035 114.6049958
 100.1409162  57.7138835 114.9910761 103.4676084  56.9488262 115.8777880
 103.0692367  57.0590532 115.1098701 102.8527304  57.1570328 116.4604440
 103.3174973  56.9961830 115.8509180 102.0403986  43.5562410 108.7452020
 101.4468825  43.8779406 108.1936587 102.0779264  42.7103505 108.5373126
 101.9578375  43.4786738 108.6334791 104.9161803  43.5141914 112.1753770
 104.6875496  43.5374616 111.3332128 105.1759879  42.6899381 112.2948781
 104.9207991  43.3957994 112.0678968  99.1981031  45.3676387 121.7778870
  98.6859934  44.7597570 122.1363902  99.0260527  46.0832980 122.2452846
  99.0970668  45.3839687 121.8995094  94.0446746  43.8113963 124.4281232
  93.8749336  44.4715337 123.8829439  93.6012696  44.0220524 125.1493721
  93.9546079  43.9399945 124.4542862  97.9706565  42.0518460 113.4707966
  98.4463932  42.4135540 112.8358147  97.4695165  42.7074928 113.7508109
  97.9671924  42.2012649 113.4184707 111.2017927  51.5240229 109.2620971
 111.5851533  52.2731585 109.4919068 110.4062040  51.7706048 109.0032960
 111.1411709  51.6709922 109.2578545  90.9448810  46.7160828 119.6869722
  90.3975530  46.0461474 119.8050590  91.7341189  46.3490676 119.7513189
  90.9800994  46.5625815 119.7138423 100.0133218  44.1959660 106.8381350
 100.3932183  44.2139289 106.0532465  99.2725814  44.6413649 106.7172197
  99.9602056  44.2641435 106.7044918 107.6418509  42.5041851 112.4256929
 107.6412735  42.3490508 113.2841205 107.4374689  43.3504839 112.3698314
 107.6118287  42.6062472 112.5444868  89.7035780  45.9281636 116.8415745
  89.5257541  45.4758245 117.5670661  89.4154802  46.7307797 117.0254223
  89.6348733  45.9804194 116.9759248 105.3659361  47.1839353 116.0793135
 105.8613026  46.4662348 116.0397156 104.5559137  46.8810151 115.9647622
 105.3203254  47.0337000 116.0566861 100.8117973  51.0337167 108.2290140
 100.0029295  50.7103840 108.1823449 101.3192881  50.3270389 108.1618389
 100.7667639  50.8818483 108.2120434  91.4408250  48.4609360 113.9537504
  90.5753769  48.4495050 113.8420275  91.5407066  48.2739583 114.8008643
  91.3282417  48.4315421 114.0626449 107.4311180  49.9343041 118.7670264
 107.8566251  49.4117463 118.2140689 107.0668100  50.5323878 118.2458887
 107.4397782  49.9453268 118.6079274  97.0665260  58.2307258 117.5267610
  97.3811819  59.0443647 117.5345391  97.4758673  57.8457477 118.1949769
  97.1733358  58.2935961 117.6271701 104.0189779  53.6477305 115.0971422
 104.4900957  54.3617568 115.2661407 104.3549958  53.0476055 115.6331291
 104.1384894  53.6648769 115.2003798 104.6563726  53.4395239 121.8599114
 104.1084672  52.8153123 121.5919180 105.1176754  53.6289511 121.1443194
 104.6430935  53.3754289 121.7149545 100.0052389  40.4221188 109.5208981
 100.8268083  40.5919501 109.2790676  99.5422040  40.5768449 108.7975279
 100.0583551  40.4702921 109.3780626  98.5947721  38.4163951 120.3007410
  99.1392134  38.0755077 120.8911752  98.6484657  39.2749412 120.4428695
  98.6836840  38.4919210 120.4089284  94.4078280  52.1780367 117.1746218
  95.0123137  52.1376201 116.5460039  94.2005592  53.0251519 117.2050274
  94.4667177  52.2968369 117.0862335 104.2222052  54.4446312 118.3908456
 105.0420426  54.3009278 118.6524751 103.9416130  55.0692511 118.9324893
 104.3018795  54.5156664 118.5096395  89.6429562  51.1614984 117.0445141
  89.5453840  50.3511256 117.3535198  90.4258432  51.1406778 116.6591409
  89.7445699  51.0382074 117.0332004 120.6935702  62.1011164 111.3551332
 120.6629707  62.9555800 111.5269601 121.2917051  61.8006456 111.9137475
 120.7772860  62.1827660 111.4626134 113.8935387  61.1886815 116.1104262
 113.0373283  61.3495313 116.1613379 113.9403041  60.3178879 116.1309323
 113.7734499  61.0837616 116.1210328 108.2776527  70.7249532 111.8741494
 107.5259426  70.3465071 111.6457539 108.7262539  70.7567966 111.1260304
 108.2326194  70.6735140 111.7298996 113.7301487  71.1474902 107.3027041
 113.3952855  71.8251824 106.8671263 114.2428357  70.7580213 106.7143913
 113.7567068  71.1899480 107.1513832 113.2705778  73.0989171 113.2438153
 113.6545157  73.6676069 112.7042928 113.2064919  72.3738681 112.7643969
 113.3179205  73.0764634 113.0932015 109.8561283  70.7367925 114.1404266
 109.9571646  69.9268279 114.4501394 109.2603028  70.6424871 113.5103945
 109.7833822  70.6032953 114.0930505 118.5152277  64.6763466 109.6269642
 118.3991803  65.4271152 110.0561780 119.3108164  64.4187419 109.8765729
 118.6156866  64.7498313 109.7273733 103.0526327  66.7588211 113.7656600
 102.8176512  65.9255864 113.6588869 103.1911968  67.0392877 112.9517801
 103.0381990  66.6771715 113.6298955 105.3516415  58.9273942 116.6640908
 104.7321446  58.3366589 116.4950923 105.2500278  59.5185377 116.0305231
 105.2454090  58.9278024 116.5445897 110.3982602  68.6657489 110.9138984
 110.7198443  69.2062696 110.3100292 111.0454699  68.0954260 111.0461274
 110.5408658  68.6616664 110.8446019 112.4484310  60.6673484 110.9973371
 113.1464475  60.8461611 111.4894834 112.7636643  60.1443823 110.3743760
 112.5979648  60.6167256 110.9775381 105.0785548  62.4726223 118.9084477
 104.9544245  63.0588669 119.5434296 105.7303832  61.9786419 119.2096752
 105.1559197  62.4865028 119.0470406 112.6372246  67.0543929 110.9853162
 113.0765881  66.4461029 111.4307935 112.4876909  66.6751302 110.2138627
 112.6793711  66.9082400 110.9372330 110.6211174  56.0365880 115.0794645
 110.2914504  56.4877024 114.4098344 109.9456176  55.9582044 115.6267652
 110.4721610  56.0917015 115.0617869 116.2381582  65.4071110 107.9383932
 116.1532877  66.2632077 108.0833500 116.7265966  65.1315434 108.6066091
 116.2970480  65.4928431 108.0586013 117.8287582  52.0251403 113.3244256
 117.5141023  52.7154882 113.7564678 117.3114523  51.9696185 112.6229757
 117.7052052  52.1186292 113.2841205 117.1700016  62.0255904 109.4381667
 116.6411487  62.2415538 110.0978973 117.6925036  62.7192043 109.3582636
 117.1688469  62.1599041 109.5237266 109.0599623  65.9219121 108.2389135
 108.4756839  66.4269152 108.6454999 108.6569719  65.6961508 107.4985727
 108.9138927  65.9627369 108.1894160 104.6143652  71.6373882 115.0412806
 104.1311230  72.3624372 115.0172390 105.4266970  71.9350012 115.1522964
 104.6634400  71.7876236 115.0540085 113.5176838  62.1684773 106.7158055
 113.7572841  62.3762757 105.9033398 113.8392679  61.3642282 106.8247000
 113.6013996  62.0798874 106.6118608 108.8267128  54.0978169 110.5617593
 109.5813096  54.4656486 110.3234643 108.6494663  54.4717723 111.3296773
 108.9121606  54.2076357 110.6402482 107.4687849  72.1530058 115.1933086
 108.1708429  71.6382047 115.2505843 107.3885332  72.4804209 115.9979961
 107.5611610  72.1244284 115.3205878 107.1824193  56.5048488 107.2595706
 106.9999766  56.7220368 106.4336699 108.0449806  56.6187500 107.3154321
 107.2828782  56.5538386 107.1450193 106.7938625  68.3436410 114.7018694
 107.6327524  68.5759343 114.7492456 106.8250394  67.4740721 114.6325729
 106.9220342  68.2493356 114.6983339 112.8623912  53.5074898 110.2944730
 113.5910072  53.3290853 109.8482886 112.9518805  54.3492978 110.5051908
 112.9830574  53.6058777 110.2598248 116.8432213  64.4428286 114.1977024
 117.5989728  64.8759800 114.2365933 116.9494537  63.7933055 114.7711660
 116.9702383  64.4105770 114.2875050 102.8228473  64.9837576 119.1566421
 102.5566888  64.1676693 119.3157411 102.8367037  65.0290731 118.2861937
 102.7853195  64.8694481 119.0519903 106.7286220  59.7822660 105.7718179
 106.0144397  59.4960840 106.1840612 107.2130188  60.1219286 106.4124567
 106.6945583  59.7904310 105.9273814 107.5727079  58.5215954 121.8033429
 106.8798876  58.0512934 122.0494160 108.1887406  58.2954259 122.3775136
 107.5611609  58.4183086 121.9242581 123.0156730  64.9882483 113.8399064
 123.6773164  64.4273151 113.7394973 122.3748142  64.4934514 114.1651755
 123.0185597  64.8318892 113.8731404 113.9033538  68.2852614 106.1479987
 114.3184686  67.9537638 105.4564483 113.0725467  68.0521516 106.0200124
 113.8421546  68.2023870 106.0270835 103.2321886  65.7696355 116.4378165
 103.0497460  65.7443241 115.5850458 103.9671555  66.2395293 116.4767074
 103.3135950  65.8357717 116.3176084 119.3021561  66.0047865 113.5811053
 119.5377150  66.1493064 112.7537904 119.4511124  66.7690273 113.9742567
 119.3587364  66.1386920 113.5174657 121.1312017  64.8449531 111.4180657
 121.4620234  65.3777171 110.8120752 121.7045105  64.8988419 112.0742608
 121.2645696  64.9319100 111.4258438 116.3443906  62.6914434 112.1004237
 116.4390761  63.4303728 112.5543862 115.7202750  62.2631909 112.5338801
 116.2652937  62.7375754 112.2312384 103.1992797  62.6489856 116.5877232
 103.7766299  62.5126307 117.2269477 102.5006858  62.1925640 116.8422816
 103.1813818  62.5612122 116.7199522 116.5966928  64.5363174 105.3341189
 116.5147090  64.6065361 106.1996176 117.2346648  65.0992918 105.1424930
 116.6786765  64.6302145 105.4331138 109.9560099  64.3023912 114.8015715
 109.6979343  63.4695646 114.7747015 110.0108582  64.5281525 113.9608216
 109.9259877  64.2121683 114.6735852 115.0361149  56.4052362 114.9019808
 114.3317476  55.9161548 115.0603727 115.0846123  56.4174837 114.0308252
 114.9391201  56.3342010 114.7959148 108.9294811  61.8561674 115.2880610
 108.3544402  62.0153842 115.9244571 108.5530487  61.2197083 114.8249061
 108.7897623  61.7859487 115.3135168 112.5968100  60.3285023 120.1472988
 112.2082532  59.9039241 119.4925180 111.9322798  60.5767173 120.6550015
 112.4415028  60.3023744 120.1260856 122.2391369  60.0860028 112.9220818
 121.9827934  59.2739970 112.7318701 123.0820683  60.0937595 112.6951006
 122.3257394  59.9672026 112.8605636  98.6751630  61.5001749 113.3025051
  98.7611882  61.1233617 114.0838581  99.3027427  61.1262194 112.8245009
  98.7808181  61.3887231 113.3470528 113.7007038  64.5583628 108.3449795
 114.5147677  64.8498521 108.2332567 113.6366179  63.9043490 107.7708088
 113.8109777  64.5048823 108.2438633 109.5714946  68.0305145 113.4722107
 110.2088893  67.7916893 114.0173901 109.9970018  68.2342304 112.7375268
 109.7291113  68.0256156 113.4439265 104.2627589  70.2693482 117.3556411
 104.3031734  70.5408333 116.5276191 104.8222113  70.7935390 117.7714199
 104.3510935  70.3869237 117.2948299 110.2117761  63.2507435 107.8096997
 110.5962914  63.0315142 108.5613542 109.9629382  64.0770381 107.9398073
 110.2319834  63.3405581 107.9398073 111.9536418  68.5077568 115.1515894
 112.0275426  68.3452740 116.0057744 112.7705925  68.6967758 114.9076375
 112.0852777  68.5114310 115.2413919 105.7142175  68.8535431 112.1810337
 104.8880293  69.0997168 112.0544616 105.7754166  68.7747512 113.0472395
 105.6016342  68.8780380 112.2899282 107.9318199  54.9204372 113.1405777
 107.0640624  54.9926971 113.2063387 108.2193403  55.7226451 113.3293752
 107.8457947  55.0498519 113.1780544 110.4941004  71.4712311 109.8829367
 110.7839302  71.0801292 109.1588594 111.2244485  71.6529016 110.3234642
 110.6447888  71.4406125 109.8412174 108.4346920  73.4479694 112.9489517
 108.2147215  73.1577048 113.7416184 108.2141442  72.7894649 112.4207429
 108.3694514  73.3079402 112.9878426 107.3463867  65.5353010 115.2145218
 107.0577115  64.9090481 115.7490946 108.2147215  65.4773297 115.2809899
 107.4324119  65.4340554 115.3036173 118.1341764  60.6787793 115.5327200
 117.7906530  59.9578129 115.8834450 118.2334807  60.4701645 114.6905559
 118.0983807  60.5411997 115.4598880 110.6014875  74.8209083 111.7320209
 111.2538933  74.2885526 111.9611235 109.9040484  74.4677736 112.1188083
 110.5945593  74.6898606 111.8232377 107.5496140  67.1748261 111.1387584
 108.3042108  67.5561300 111.3523046 106.9566753  67.6259405 111.5934280
 107.5732854  67.2977088 111.2370462 118.5954794  67.1413497 111.0751188
 119.1612826  67.8006707 110.9909731 117.9482697  67.4863196 111.5467591
 118.5833550  67.2895439 111.1323945 108.8694367  68.3456822 116.5127699
 108.3475120  68.4857114 117.1979564 109.2568387  67.5867487 116.7029816
 108.8498068  68.2542346 116.6428775 105.8585551  58.3962631 110.5822654
 105.5710346  58.0263902 109.8454601 106.5456019  58.8657486 110.3206359
 105.9174448  58.4109601 110.4337729 115.0661372  70.0852282 110.4988268
 114.8248048  69.3520142 110.0915333 115.2462705  70.6339139 109.8454601
 115.0568996  70.0574673 110.3418491 110.2960692  65.3760841 111.9109190
 110.1003475  65.9835576 111.3169493 110.5195038  64.6828785 111.4300864
 110.2995333  65.3638367 111.7525271 108.6939222  62.2615579 112.0290058
 109.4161874  62.4256737 111.5693864 108.2147215  62.9825244 111.9229398
 108.7302953  62.3913809 111.9455672 116.6532730  58.5979378 117.4086743
 115.8143831  58.6240657 117.1725007 116.7237097  59.2450114 117.9892090
 116.5401123  58.6975504 117.4595860 115.1002008  55.4964755 112.1414359
 115.8028361  55.2972503 111.6634317 114.8346197  54.7240698 112.4483203
 115.1648640  55.3527721 112.1159801 120.5290254  63.8047365 114.6947985
 120.4424228  63.9602791 115.5482764 120.0740734  64.4485440 114.3207390
 120.4493510  63.9223120 114.7655092 103.4313745  59.1743844 111.4307935
 103.5329882  59.9770005 111.7588910 104.2269632  58.9731180 111.1331015
 103.5641651  59.2629742 111.4343290 109.8630564  56.7600040 121.1945240
 109.6713761  56.7755175 122.0444663 110.7129160  56.9563715 121.1711895
 109.9606286  56.7914392 121.3168535 104.2477477  59.2891022 119.1729056
 104.1062969  58.4374962 119.2973564 104.5318041  59.3319682 118.3491262
 104.2685324  59.1690772 119.0696680 114.4016070  61.1258112 113.3173544
 114.1550784  61.0453863 114.1510333 114.7301193  60.3411580 113.1236072
 114.4137313  60.9984377 113.4121068 119.7917491  67.1919725 107.8676825
 119.4124300  66.4056863 107.8606114 119.1283737  67.7406582 107.7248469
 119.6375966  67.1564549 107.8457622 105.0167783  57.2021369 122.4906507
 104.4809972  56.5901728 122.8067274 105.0785547  57.7769505 123.1440173
 104.9463415  57.1968297 122.6341933 112.6164400  70.7433244 111.7065651
 113.3814291  70.4742888 111.3848315 112.5142490  70.2583255 112.4235714
 112.7145895  70.6322809 111.7645479 110.6517169  58.9457654 118.2458887
 109.8613244  58.7649114 118.5676223 111.0477792  58.1684606 118.2289181
 110.5934046  58.8045115 118.2911435 115.1383060  67.7745428 103.6865601
 115.9056045  67.8345553 103.2771452 114.6914369  67.2025869 103.2021919
 115.1856487  67.6982004 103.5543311 118.0377590  69.4365216 108.2028511
 118.1197428  70.2432202 107.8789962 118.5227332  69.4561175 108.9269284
 118.1214748  69.5585879 108.2615409 111.8474094  64.1150052 116.8698589
 111.4236343  64.3154551 116.1337607 111.6718949  63.2678900 116.9822889
 111.7584974  64.0198834 116.7772279 107.1356539  64.6102104 112.3026561
 107.2921158  64.5448906 113.1582553 107.4757132  65.3850656 112.0905241
 107.2089773  64.7151302 112.3981155 113.6735683  63.9859987 111.1719924
 114.2151229  63.4830368 111.6358545 113.9882242  63.9325182 110.3609410
 113.8000080  63.9039408 111.1203737 111.8422133  69.3777339 108.4559952
 111.9114953  68.5191877 108.5952953 112.6210588  69.5949220 108.1278977
 111.9674983  69.2830203 108.4277110 103.7090800  61.7937054 112.6187328
 104.0889765  62.2121599 111.9547596 103.1346165  62.3750510 112.9256172
 103.6802125  61.9414913 112.5664069 116.3969295  68.3665029 112.6102476
 116.0383950  68.5379672 113.3866509 115.9108006  68.8278234 112.0530475
 116.2727992  68.4604000 112.6427745 114.2139681  51.9896227 116.2129568
 113.3433239  51.9634948 116.1662877 114.4680022  51.8173419 115.3955413
 114.1233241  51.9606371 116.0849704 111.1857661  64.0464194 105.1502711
 111.4750185  64.8229077 105.4246285 111.2729459  63.5352926 105.8517210
 111.2411917  64.0856113 105.2945209 111.2388822  54.0002456 117.6703038
 110.7227310  53.3082647 117.7954617 110.6782751  54.6673233 117.6165637
 111.0795335  53.9965713 117.6809104 107.3521602  63.3597459 117.2502823
 106.5109608  63.2601333 117.4581717 107.5611610  64.1292939 117.6017144
 107.2586294  63.4589502 117.3330138 104.8297169  60.9816996 115.0787574
 104.4353866  61.0560008 114.3037683 104.2737285  61.3674942 115.6295935
 104.6899981  61.0498770 115.0455233 116.4662115  53.9598290 114.7591452
 116.6711709  53.8920598 115.6048450 116.1388539  54.7657111 114.6912630
 116.4477363  54.0684230 114.8751108 111.1638266  61.2878858 116.5000420
 110.8601404  60.7334846 117.1010828 110.4617687  61.4671068 116.0128455
 111.0154476  61.2323640 116.5170126 110.2204364  58.5979378 111.0645122
 110.4964098  57.8798290 110.6522690 110.8203033  59.1964298 110.8566228
 110.3497628  58.5799748 110.9725883 113.7214884  56.2692895 109.3391717
 114.1758631  56.4403456 110.0639562 114.1954930  55.6561006 108.9389493
 113.8583204  56.2043780 109.3865479 107.2430409  65.7541221 118.6694456
 106.6518343  66.3950719 118.6397471 108.0051433  66.1778838 118.6425755
 107.2678670  65.9117059 118.6609603 107.6391032  56.9143219 119.3362473
 108.0992514  56.9882148 120.0737597 107.6847139  57.7124473 118.9862295
 107.7141588  57.0437366 119.3935230 111.0627904  62.9735429 110.4436724
 111.8069949  63.3609706 110.6819674 111.2088600  62.1292855 110.6077212
 111.1938489  62.9065902 110.5030694 112.9807479  54.7685688 115.4768586
 112.1343525  54.9408496 115.3509936 112.9778612  53.9635032 115.8134414
 112.8554629  54.6746717 115.5079713 114.0505780  58.5460903 116.3430644
 113.5765734  58.0202665 116.8535955 114.4223916  57.9990376 115.7745505
 114.0355669  58.3876899 116.3345791 104.4278810  60.5432409 121.7114190
 105.2904423  60.4428119 121.6251519 104.0970593  59.9627119 121.1499762
 104.5064006  60.4424036 121.6159595 115.9789280  59.4397457 109.4056398
 115.4512298  59.5226201 108.7162106 116.4384988  60.1815329 109.4021042
 115.9691130  59.5618120 109.3031093 107.7880596  59.3674858 118.3724608
 107.1633666  59.3793250 117.7650560 107.4526191  59.8435034 119.0215848
 107.6466088  59.4393375 118.3781176 107.9722345  57.7099977 104.4297293
 107.6235149  58.3619702 104.8928842 107.4918790  57.6957090 103.7021164
 107.8492589  57.8043031 104.3908384 104.5006272  67.4275319 119.8128372
 103.9706196  66.7367757 119.8623347 104.7731365  67.4185504 118.9841081
 104.4630994  67.3242450 119.6975788 115.5326362  68.0101021 108.5366055
 116.2560561  68.4759134 108.3930628 115.0926953  68.0774631 107.7863652
 115.5742054  68.0884858 108.4050836 107.0571341  60.9768006 120.5899476
 107.2164828  60.2211330 120.9951198 106.8764235  61.5258946 121.2440214
 107.0536700  60.9461820 120.7462182 112.2694524  56.8171588 117.7353576
 112.2937011  56.2831700 117.0466356 112.5205998  56.3088897 118.3979167
 112.3104443  56.6632492 117.7318221  99.7802114  64.1003083 117.1696720
  99.6745563  64.0549927 116.3048804  99.0302334  64.4456863 117.4511005
  99.6537717  64.1443991 117.0834050 108.5495846  55.5442406 117.1159321
 108.5894218  56.0451613 117.8294028 107.7245511  55.6352800 116.8465244
 108.4335372  55.6324222 117.1809859 109.9710210  62.0602916 119.4133220
 109.1402139  62.2276734 119.2068468 109.9161727  61.6838867 120.1982105
 109.8399624  62.0292647 119.4981748 108.3446253  60.3358507 109.9423337
 108.4849214  60.8330972 110.6451979 108.8428786  59.6344802 110.0837551
 108.4387334  60.3060486 110.0674916 108.3746476  61.2025618 107.2715914
 109.0091555  61.7986043 107.2065376 108.4572087  60.9029076 108.0861784
 108.4803027  61.2466527 107.3819001 109.9525459  57.1339594 107.2461356
 110.2741300  56.6542676 106.5920618 110.2152402  57.9439240 107.0552168
 110.0391484  57.1829492 107.1216848 104.8799464  63.3993459 110.5405460
 105.3891693  63.9957967 110.9216766 105.3533736  63.1319433 109.8581880
 105.0242839  63.4479275 110.4959983 115.7930212  72.0721726 108.6964116
 115.0759521  71.8982588 108.2311353 116.4436949  71.8374298 108.1639602
 115.7832062  72.0117518 108.5493334 113.7878836  52.9926888 113.0175412
 113.1447154  52.8424534 113.5860551 113.4478243  52.7469233 112.2524517
 113.6423914  52.9339010 112.9878427 118.3778183  60.9486314 112.4405421
 117.7069373  61.4916017 112.3118486 119.0717933  61.4181170 112.1987116
 118.3807050  61.0984586 112.3860949 118.5406310  57.4042198 115.3495794
 118.8933920  56.9771921 116.0241593 117.6821112  57.3193042 115.4796870
 118.4655755  57.3286939 115.4690804 107.2389995  60.0349718 113.4078641
 106.5201985  60.4513850 113.6751504 107.6102358  60.6003956 112.8570279
 107.1881927  60.1798999 113.3661448 113.0136570  59.0747718 108.7452020
 112.4201409  59.3964714 108.1936587 113.0511847  58.2288813 108.5373126
 112.9310959  58.9972046 108.6334791 115.8894386  59.0327222 112.1753770
 115.6608079  59.0559924 111.3332128 116.1492463  58.2084689 112.2948781
 115.8940574  58.9143302 112.0678968 108.9439149  57.5703768 113.4707966
 109.4196515  57.9320848 112.8358147 108.4427748  58.2260236 113.7508109
 108.9404508  57.7197957 113.4184707 122.1750510  67.0425536 109.2620971
 122.5584116  67.7916893 109.4919068 121.3794624  67.2891356 109.0032960
 122.1144293  67.1895230 109.2578545 101.9181394  62.2346136 119.6869722
 101.3708113  61.5646782 119.8050590 102.7073772  61.8675984 119.7513189
 101.9533578  62.0811122 119.7138423 110.9865802  59.7144968 106.8381350
 111.3664767  59.7324597 106.0532465 110.2458398  60.1598957 106.7172197
 110.9334640  59.7826743 106.7044918 118.6151093  58.0227159 112.4256929
 118.6145319  57.8675816 113.2841205 118.4107273  58.8690146 112.3698314
 118.5850870  58.1247780 112.5444868 100.6768363  61.4466944 116.8415745
 100.4990125  60.9943553 117.5670661 100.3887386  62.2493105 117.0254223
 100.6081317  61.4989502 116.9759248 116.3391945  62.7024661 116.0793135
 116.8345610  61.9847656 116.0397156 115.5291720  62.3995459 115.9647622
 116.2935838  62.5522307 116.0566861 111.7850556  66.5522474 108.2290140
 110.9761879  66.2289148 108.1823449 112.2925465  65.8455697 108.1618389
 111.7400223  66.4003791 108.2120434 102.4140833  63.9794668 113.9537504
 101.5486353  63.9680358 113.8420275 102.5139649  63.7924890 114.8008643
 102.3015000  63.9500729 114.0626449 110.9784973  55.9406496 109.5208981
 111.8000667  56.1104809 109.2790676 110.5154624  56.0953757 108.7975279
 111.0316135  55.9888229 109.3780626 109.5680305  53.9349259 120.3007410
 110.1124718  53.5940385 120.8911752 109.6217240  54.7934720 120.4428695
 109.6569424  54.0104518 120.4089284 105.3810863  67.6965675 117.1746218
 105.9855721  67.6561509 116.5460039 105.1738176  68.5436827 117.2050274
 105.4399761  67.8153677 117.0862335 100.6162146  66.6800292 117.0445141
 100.5186424  65.8696564 117.3535198 101.3991015  66.6592086 116.6591409
 100.7178282  66.5567382 117.0332004 119.7999712  69.6163477 110.5617593
 120.5545680  69.9841794 110.3234643 119.6227246  69.9903031 111.3296773
 119.8854190  69.7261664 110.6402482 118.1556776  72.0233796 107.2595706
 117.9732350  72.2405676 106.4336699 119.0182389  72.1372808 107.3154321
 118.2561366  72.0723693 107.1450193 123.8356495  69.0260206 110.2944730
 124.5642656  68.8476161 109.8482886 123.9251388  69.8678286 110.5051908
 123.9563158  69.1244085 110.2598248 117.7018803  75.3007968 105.7718179
 116.9876980  75.0146148 106.1840612 118.1862772  75.6404594 106.4124567
 117.6678167  75.3089618 105.9273814 116.8318134  73.9147939 110.5822654
 116.5442930  73.5449209 109.8454601 117.5188603  74.3842794 110.3206359
 116.8907032  73.9294908 110.4337729 122.1590244  79.5649502 105.1502711
 122.4482769  80.3414385 105.4246285 122.2462043  79.0538234 105.8517210
 122.2144500  79.6041420 105.2945209 118.9454928  73.2285285 104.4297293
 118.5967733  73.8805010 104.8928842 118.4651374  73.2142398 103.7021164
 118.8225172  73.3228338 104.3908384 119.3479059  76.7210926 107.2715914
 119.9824139  77.3171351 107.2065376 119.4304670  76.4214384 108.0861784
 119.4535610  76.7651834 107.3819001 120.9258042  72.6524902 107.2461356
 121.2473883  72.1727984 106.5920618 121.1884986  73.4624548 107.0552168
 121.0124068  72.7014800 107.1216848 121.9598386  75.2330276 106.8381350
 122.3397350  75.2509905 106.0532465 121.2190982  75.6784265 106.7172197
 121.9067223  75.3012051 106.7044918 121.9517556  71.4591804 109.5208981
 122.7733251  71.6290117 109.2790676 121.4887207  71.6139065 108.7975279
 122.0048719  71.5073537 109.3780626  75.0529600   1.1071740  98.8081541
  74.3012500   0.7287278  98.5797586  75.5015612   1.1390173  98.0600351
  75.0079267   1.0557347  98.6639043  80.0458851   3.4811378 100.1778199
  80.4298231   4.0498277  99.6382975  79.9817992   2.7560888  99.6984015
  80.0932278   3.4586841 100.0272062  76.4715096   6.0367721 102.4759169
  77.1152551   6.4780885 102.8655328  76.7971351   5.2321147 102.3889428
  76.6146925   5.9832916 102.5204647  71.3896725   2.0196089 101.9752853
  70.9064303   2.7446579 101.9512437  72.2020043   2.3172219 102.0863011
  71.4387473   2.1698443 101.9880132  74.2440923   2.5352265 102.1273133
  74.9461502   2.0204254 102.1845889  74.1638406   2.8626417 102.9320008
  74.3364683   2.5066491 102.2545925  71.0380662   0.6515689 104.2896458
  71.0784807   0.9230540 103.4616238  71.5975186   1.1757597 104.7054246
  71.1264008   0.7691444 104.2288346  75.2099993   3.8301901  99.8829564
  74.9900288   3.5399256 100.6756231  74.9894515   3.1716856  99.3547476
  75.1447587   3.6901609  99.9218472  77.3767948   5.2031291  98.6660256
  78.0292006   4.6707733  98.8951282  76.6793557   4.8499943  99.0528130
  77.3698666   5.0720814  98.7572424  76.2093925   2.4339810 106.5297601
  76.3583489   1.8742726 105.8771006  76.9893927   2.5131812 106.9130120
  76.3468019   2.3625375 106.4894550  78.1238860   6.0122772 106.2660093
  78.6134791   5.3133562 106.0835757  77.5523092   5.7146642 106.8536150
  78.1123390   5.8648996 106.3261134  79.2017990   3.4705234 104.6057226
  78.9783644   2.7124063 104.9741252  78.7127833   3.5003255 103.8837666
  79.0961439   3.3627458 104.5533967  77.8496447   3.6905692 102.0594311
  77.4356845   3.0279822 101.6698152  78.5343821   3.8383551 101.5390005
  77.8894819   3.6146350 101.9250808  74.8150916   4.1314774 104.4607657
  75.1297475   4.9451162 104.4685438  75.2244330   3.7464992 105.1289816
  74.9219014   4.1943476 104.5611748  86.0262184  16.6257048  98.8081541
  85.2745083  16.2472586  98.5797586  86.4748195  16.6575481  98.0600351
  85.9811850  16.5742655  98.6639043  91.4787144  17.0482417  94.2367088
  91.1438512  17.7259339  93.8011310  91.9914014  16.6587729  93.6483959
  91.5052725  17.0906995  94.0853879  91.0191435  18.9996686 100.1778199
  91.4030814  19.5683585  99.6382975  90.9550576  18.2746196  99.6984015
  91.0664862  18.9772149 100.0272062  94.4872865   9.1486374 105.6875961
  95.0328825   9.8271460 105.7469930  94.4289741   9.0073835 104.8277542
  94.5588779   9.2278376 105.5688021  87.6046940  16.6375440 101.0744313
  87.7057303  15.8275794 101.3841441  87.0088685  16.5432386 100.4443992
  87.5319478  16.5040468 101.0270552  96.2637934  10.5770981  96.5609689
  96.1477460  11.3278667  96.9901827  97.0593820  10.3194934  96.8105776
  96.3642523  10.6505828  96.6613780  87.4447679  21.5553029 102.4759169
  88.0885135  21.9966193 102.8655328  87.7703935  20.7506455 102.3889428
  87.5879508  21.5018224 102.5204647  80.8011984  12.6595726 100.6996647
  80.5662169  11.8263379 100.5928916  80.9397625  12.9400392  99.8857848
  80.7867647  12.5779230 100.5639002  83.1002072   4.8281457 103.5980955
  82.4807103   4.2374104 103.4290969  82.9985935   5.4192892 102.9645278
  82.9939747   4.8285540 103.4785944  88.1468259  14.5665004  97.8479031
  88.4684100  15.1070211  97.2440339  88.7940356  13.9961775  97.9801321
  88.2894314  14.5624179  97.7786066  82.8271205   8.3733739 105.8424524
  82.7029901   8.9596184 106.4774342  83.4789489   7.8793935 106.1436798
  82.9044854   8.3872543 105.9810453  90.3857903  12.9551444  97.9193209
  90.8251538  12.3468544  98.3647982  90.2362565  12.5758817  97.1478674
  90.4279368  12.8089915  97.8712376  87.8529546  11.5495456 105.1212035
  88.4978548  11.0567899 104.8022983  88.0931323  11.6920242 105.9478113
  87.9840131  11.4972898 105.1961568  90.3915637  14.3950362 104.7718927
  90.6738880  13.6001767 104.5505683  91.1201797  14.8730949 104.7923988
  90.5405201  14.3484959 104.7421942  93.9867239  11.3078625  94.8723978
  93.9018534  12.1639592  95.0173547  94.4751622  11.0322949  95.5406137
  94.0456136  11.3935947  94.9926060  94.9185672   7.9263419  96.3721713
  94.3897144   8.1423053  97.0319020  95.4410692   8.6199558  96.2922683
  94.9174125   8.0606556  96.4577313 100.3733725  13.5009724 101.7454758
  99.5431428  13.7120367 101.9088175 100.3242978  12.6746778 101.4697042
 100.2440461  13.4099330 101.7292123  86.8085280  11.8226636  95.1729181
  86.2242495  12.3276668  95.5795045  86.4055375  11.5969023  94.4325773
  86.6624584  11.8634884  95.1234207  82.3629309  17.5381397 101.9752853
  81.8796887  18.2631887 101.9512437  83.1752627  17.8357527 102.0863011
  82.4120057  17.6883751 101.9880132  88.4343463  16.3313578 104.5802667
  87.9170404  15.9720993 103.9763976  89.1317854  15.8075752 104.5908734
  88.4609044  16.2011266 104.4932926  92.0907055  16.7808392 110.5418841
  92.1790401  16.5934532 111.3897051  92.5196767  16.1345822 110.1423687
  92.1669157  16.6571400 110.6090592  89.6577515  16.0639552 109.5236503
  89.0948349  15.6512162 110.0476164  90.4198538  15.9892458 109.9429646
  89.6871963  15.9916953 109.6629503  91.2662495   8.0692288  93.6498102
  91.5058498   8.2770272  92.8373445  91.5878336   7.2649797  93.7587047
  91.3499652   7.9806389  93.5458655  85.2173506  18.0537573 102.1273133
  85.9194085  17.5389562 102.1845889  85.1370989  18.3811725 102.9320008
  85.3097267  18.0251799 102.2545925  86.2652413   8.2913160 111.2553548
  86.4372916   8.1819055 112.1038829  86.8021770   8.9367566 111.0184740
  86.3697417   8.3705162 111.3458645  84.5424281  14.2443925 101.6358741
  85.3813181  14.4766858 101.6832502  84.5736051  13.3748237 101.5665776
  84.6705999  14.1500872 101.6323386  85.1676984  14.6644800 105.9372046
  85.7075209  14.5215931 106.6075419  84.4846931  15.0641551 106.3056073
  85.1469138  14.7024471 106.0906468  94.5917869  10.3435801 101.1317071
  95.3475384  10.7767315 101.1705980  94.6980194   9.6940571 101.7051707
  94.7188040  10.3113285 101.2215096  97.6298040  14.1709078 101.8819474
  97.1933272  14.1745821 102.6378445  97.2960956  14.8514577 101.4499051
  97.5160660  14.2721534 101.9300306  92.2027114  16.2117411 113.2062624
  92.9867531  16.3248259 113.5718366  92.0023709  15.3858548 113.4021310
  92.2893140  16.1064130 113.2897010  80.5714130  10.8845091 106.0906468
  80.3052545  10.0684208 106.2497458  80.5852694  10.9298247 105.2201983
  80.5338852  10.7701996 105.9859950  84.4771877   5.6830176  92.7058226
  83.7630054   5.3968355  93.1180659  84.9615845   6.0226801  93.3464614
  84.4431240   5.6911825  92.8613861  92.3597507  18.1227513 106.8529080
  91.5612753  17.8827013 107.1102948  92.8083519  18.1741906 107.5996127
  92.3072119  18.0949904 107.0014004 100.7642387  10.8889998 100.7739111
 101.4258821  10.3280667 100.6735019 100.1233799  10.3942029 101.0991802
 100.7671254  10.7326407 100.8071451  91.6519194  14.1860130  93.0820034
  92.0670343  13.8545153  92.3904530  90.8211124  13.9529032  92.9540171
  91.5907203  14.1031386  92.9610882  80.9807543  11.6703871 103.3718212
  80.7983116  11.6450757 102.5190504  81.7157212  12.1402808 103.4107121
  81.0621607  11.7365233 103.2516131  97.0507217  11.9055381 100.5151100
  97.2862807  12.0500579  99.6877950  97.1996781  12.6697789 100.9082613
  97.1073021  12.0394435 100.4514704  84.0453295   8.3888873 109.8800321
  84.7693267   8.3741904 110.3665216  84.1469431   9.0984229 109.3822289
  84.1671504   8.4913577 109.8779108  98.8797674  10.7457046  98.3520704
  99.2105891  11.2784687  97.7460798  99.4530762  10.7995934  99.0082655
  99.0131353  10.8326615  98.3598485  94.0929563   8.5921949  99.0344284
  94.1876418   9.3311243  99.4883909  93.4688407   8.1639425  99.4678848
  94.0138593   8.6383270  99.1652431  92.3482037  11.7708162 109.6834565
  92.9220899  11.1335406 109.8383128  92.2696841  11.7712244 108.8144222
  92.4215272  11.6773273 109.5780975  80.9478454   8.5497371 103.5217279
  81.5251956   8.4133822 104.1609524  80.2492515   8.0933155 103.7762863
  80.9299475   8.4619637 103.6539568  94.3452585  10.4370689  92.2681236
  94.2632747  10.5072876  93.1336223  94.9832305  11.0000433  92.0764976
  94.4272422  10.5309660  92.3671185  87.7045756  10.2031427 101.7355762
  87.4465000   9.3703162 101.7087061  87.7594239  10.4289040 100.8948262
  87.6745534  10.1129198 101.6075899  86.6780468   7.7569189 102.2220657
  86.1030059   7.9161358 102.8584618  86.3016144   7.1204599 101.7589107
  86.5383280   7.6867002 102.2475215  76.4237287   7.4009264 100.2365097
  76.5097539   7.0241132 101.0178627  77.0513084   7.0269710  99.7585056
  76.5293838   7.2894746 100.2810575  91.4492695  10.4591143  95.2789842
  92.2633334  10.7506036  95.1672613  91.3851836   9.8051006  94.7048135
  91.5595434  10.4056338  95.1778679  87.3200603  13.9312661 100.4062154
  87.9574550  13.6924408 100.9513948  87.7455675  14.1349820  99.6715315
  87.4776769  13.9263671 100.3779312  82.0113245  16.1700997 104.2896458
  82.0517391  16.4415848 103.4616238  82.5707770  16.6942905 104.7054246
  82.0996591  16.2876752 104.2288346  87.9603418   9.1514950  94.7437044
  88.3448571   8.9322657  95.4953589  87.7115038   9.9777896  94.8738120
  87.9805491   9.2413097  94.8738120  98.6938606  12.9261588 105.7547712
  98.3884423  13.6589645 106.1161028  97.9744821  12.5199518 105.4740498
  98.5425948  12.9743321 105.7660849  89.7022075  14.4085083 102.0855940
  89.7761083  14.2460255 102.9397790  90.5191581  14.5975273 101.8416422
  89.8338434  14.4121826 102.1753966  83.4627832  14.7542946  99.1150384
  82.6365949  15.0004683  98.9884663  83.5239823  14.6755027  99.9812442
  83.3501999  14.7787895  99.2239328  88.2426661  17.3719826  96.8169414
  88.5324959  16.9808808  96.0928640  88.9730142  17.5536531  97.2574689
  88.3933545  17.3413640  96.7752221  88.8321406  12.1737572 107.9022544
  88.3333100  12.8853340 107.9807433  89.6421630  12.4938239 107.8640707
  88.8777513  12.3264421 107.9079113  86.1832576  19.3487209  99.8829564
  85.9632872  19.0584564 100.6756231  85.9627098  18.6902164  99.3547476
  86.1180170  19.2086917  99.9218472  85.0949524  11.4360525 102.1485265
  84.8062772  10.8097997 102.6830993  85.9632872  11.3780813 102.2149946
  85.1809775  11.3348070 102.2376220  88.3500532  20.7216599  98.6660256
  89.0024590  20.1893041  98.8951282  87.6526141  20.3685251  99.0528130
  88.3431250  20.5906122  98.7572424  85.2981797  13.0755776  98.0727630
  86.0527765  13.4568815  98.2863093  84.7052410  13.5266920  98.5274327
  85.3218510  13.1984604  98.1710509  96.3440450  13.0421013  98.0091235
  96.9098483  13.7014223  97.9249778  95.6968354  13.3870711  98.4807637
  96.3319207  13.1902954  98.0663992  86.6180023  14.2464338 103.4467746
  86.0960777  14.3864629 104.1319610  87.0054044  13.4875002 103.6369863
  86.5983724  14.1549862 103.5768822  83.6071208   4.2970146  97.5162700
  83.3196003   3.9271417  96.7794648  84.2941676   4.7665002  97.2546405
  83.6660105   4.3117116  97.3677776  92.8147028  15.9859797  97.4328314
  92.5733704  15.2527658  97.0255379  92.9948361  16.5346654  96.7794648
  92.8054652  15.9582188  97.2758537  88.0446349  11.2768357  98.8449237
  87.8489132  11.8843091  98.2509540  88.2680695  10.5836301  98.3640911
  88.0480990  11.2645882  98.6865318  86.4424879   8.1623095  98.9630105
  87.1647531   8.3264253  98.5033911  85.9632872   8.8832759  98.8569445
  86.4788610   8.2921324  98.8795719  84.0932496  10.5681167 108.0684245
  84.6053593  10.8465420 107.4193005  83.8068838  11.3070461 108.4347058
  84.1267359  10.7183521 108.0274123  98.2775911   9.7054880 101.6288032
  98.1909885   9.8610306 102.4822811  97.8226390  10.3492956 101.2547437
  98.1979167   9.8230635 101.6995139  81.1799402   5.0751359  98.3647981
  81.2815539   5.8777520  98.6928957  81.9755289   4.8738695  98.0671062
  81.3127308   5.1637258  98.3683337  81.9963134   5.1898537 106.1069103
  81.8548626   4.3382478 106.2313611  82.2803698   5.2327198 105.2831309
  82.0170980   5.0698287 106.0036727  96.0449775  13.7348987 104.0400373
  95.9064135  14.4330032 104.5449115  95.2649773  13.5797643 103.6836554
  95.9093002  13.8149153 104.0626647  88.1098754   9.7622346 109.6636574
  88.2542130  10.3423554 109.0279684  88.4574402  10.1398643 110.3686429
  88.1826215   9.9043050 109.6735569  90.2818671   8.9612514 107.4461706
  89.5341985   9.1543529 107.0409984  90.4360196   8.1357734 107.2085827
  90.1941099   8.8677626 107.3507112  87.1826509  17.9525118 106.5297601
  87.3316073  17.3928034 105.8771006  87.9626511  18.0317119 106.9130120
  87.3200602  17.8810683 106.4894550  97.5403148  13.0927240  94.8016872
  97.1609957  12.3064378  94.7946161  96.8769394  13.6414097  94.6588516
  97.3861623  13.0572064  94.7797669  89.7079809  18.1239761 107.8082092
  89.6323481  17.4548571 108.3632880  89.6369669  18.8257549 108.3222758
  89.6860416  18.1284668 107.9658940  90.3650056  16.6440759  98.6405698
  91.1299948  16.3750403  98.3188362  90.2628146  16.1590770  99.3575761
  90.4631552  16.5330324  98.6985526  92.8868717  13.6752943  90.6205647
  93.6541702  13.7353068  90.2111499  92.4400026  13.1033385  90.1361966
  92.9342144  13.5989519  90.4883358  93.7846512  12.4807599 102.9058380
  93.1091514  12.2492831 103.4071767  93.7938889  11.8728782 102.2800485
  93.6865017  12.3566524 102.8874532  90.9140656   7.3225428 109.6622433
  90.8499798   8.1835385 109.5342569  91.0537844   7.0057421 108.8617984
  90.9256126   7.4025595 109.5250646  95.7863247  15.3372731  95.1368558
  95.8683084  16.1439718  94.8130009  96.2712989  15.3568691  95.8609331
  95.8700405  15.4593394  95.1955456  89.5959750  10.0157567 103.8038636
  89.1721999  10.2162066 103.0677654  89.4204606   9.1686415 103.9162935
  89.5070631   9.9206349 103.7112326  89.0971444  21.5308080 106.2660093
  89.5867374  20.8318870 106.0835757  88.5255676  21.2331950 106.8536150
  89.0855974  21.3834304 106.3261134  84.8842195  10.5109619  99.2366608
  85.0406814  10.4456422 100.0922600  85.2242788  11.2858171  99.0245288
  84.9575430  10.6158817  99.3321202  91.4221340   9.8867502  98.1059971
  91.9636885   9.3837884  98.5698592  91.7367899   9.8332697  97.2949457
  91.5485737   9.8046923  98.0543783  89.5907790  15.2784854  95.3899999
  89.6600610  14.4199392  95.5293000  90.3696245  15.4956735  95.0619024
  89.7160640  15.1837718  95.3617157  93.9815277  17.7022555  99.6036493
  93.5895069  17.3989270  98.8859359  94.1368349  18.5391645  99.4141446
  93.9468867  17.7806392  99.4692990  81.4576457   7.6944569  99.5527375
  81.8375422   8.1129114  98.8887643  80.8831822   8.2758025  99.8596219
  81.4287782   7.8422428  99.5004116  94.1454952  14.2672544  99.5442523
  93.7869607  14.4387187 100.3206556  93.6593663  14.7285750  98.9870522
  94.0213649  14.3611515  99.5767792  88.9343317   9.9471709  92.0842758
  89.2235842  10.7236592  92.3586332  89.0215116   9.4360441  92.7857257
  88.9897574   9.9863628  92.2285255  95.3059691  15.1576440 110.4909724
  95.9439412  14.6636636 110.1572180  94.6633783  15.0853841 109.9061951
  95.3053918  15.0735449 110.3552079  95.3613948  15.8496248 107.1315081
  96.1506326  15.4985313 107.2517162  95.5357546  16.6632637 106.8691715
  95.5034230  15.9182105 107.1102949  85.1007258   9.2604974 104.1842870
  84.2595265   9.1608848 104.3921764  85.3097266  10.0300454 104.5357190
  85.0071951   9.3597017 104.2670185  82.5782825   6.8824511 102.0127620
  82.1839523   6.9567523 101.2377730  82.0222942   7.2682457 102.5635982
  82.4385638   6.9506286 101.9795280  88.9123923   7.1886373 103.4340467
  88.6087061   6.6342362 104.0350875  88.2103344   7.3678583 102.9468501
  88.7640133   7.1331156 103.4510173  86.9742274  14.4036094 108.1412565
  86.8662629  14.4138156 109.0074623  87.1838056  15.2290874 107.9517519
  86.9892385  14.5277169 108.2416657  84.9916066  11.6548736 105.6034503
  84.4003999  12.2958235 105.5737518  85.7537090  12.0786354 105.5765802
  85.0164327  11.8124575 105.5949650  94.7505582  17.1058048 103.0366527
  94.5525271  17.5948862 102.3422738  94.1293293  17.3099289 103.6150660
  94.6293147  17.2074586 103.0189750  88.8113561   8.8742945  97.3776771
  89.5555606   9.2617221  97.6159721  88.9574257   8.0300370  97.5417259
  88.9424146   8.8073418  97.4370741  82.1764467   6.4439925 108.6454236
  83.0390080   6.3435634 108.5591566  81.8456250   5.8634634 108.0839809
  82.2549663   6.3431552 108.5499642  85.5366253   5.2682374 105.3064655
  84.9119323   5.2800766 104.6990607  85.2011848   5.7442549 105.9555895
  85.3951745   5.3400891 105.3121223  82.2491928  13.3282834 106.7468419
  81.7191853  12.6375273 106.7963394  82.5217022  13.3193019 105.9181127
  82.2116651  13.2249966 106.6315835  93.2812019  13.9108536  95.4706101
  94.0046218  14.3766649  95.3270675  92.8412610  13.9782146  94.7203698
  93.3227711  13.9892373  95.3390883  92.4498174  10.7706078 106.7206790
  91.8355167  10.2264129 107.0155426  92.9665459  10.2570315 106.2412607
  92.4353836  10.6142488 106.6931019  91.6894471  11.8410349 104.4551089
  91.2622079  11.2160067 104.0216525  91.6819415  11.5585270 105.2810096
  91.6253612  11.7063129 104.5130917  84.8056998   6.8775522 107.5239523
  84.9650485   6.1218846 107.9291245  84.6249892   7.4266461 108.1780261
  84.8022357   6.8469335 107.6802229  77.5287771  10.0010598 104.1036767
  77.4231220   9.9557442 103.2388851  76.7787991  10.3464379 104.3851052
  77.4023373  10.0451506 104.0174097  88.4811116  11.0110661 112.1519662
  87.6306746  11.1482376 112.2877307  88.6439244  10.2774440 112.5967364
  88.3794979  10.9224762 112.2375261  87.7195866   7.9610431 106.3473266
  86.8887796   8.1284249 106.1408515  87.6647384   7.5846382 107.1322152
  87.5885281   7.9300162 106.4321795  86.0931910   6.2366023  96.8763384
  86.2334871   6.7338487  97.5792025  86.5914443   5.5352317  97.0177598
  86.1872991   6.2068001  97.0014963  86.1232133   7.1033134  94.2055961
  86.7577212   7.6993559  94.1405423  86.2057743   6.8036591  95.0201831
  86.2288684   7.1474042  94.3159048  90.9308088  14.0565983 107.7000219
  90.4233179  14.6101830 108.1440850  90.6334734  14.1174273 106.8818994
  90.8112973  14.1472295 107.6448676  82.6285120   9.3000974  97.4745507
  83.1377350   9.8965482  97.8556813  83.1019393   9.0326948  96.7921927
  82.7728496   9.3486790  97.4300030  93.5415869  17.9729241  95.6304163
  92.8245178  17.7990103  95.1651400  94.1922606  17.7381813  95.0979649
  93.5317719  17.9125034  95.4833380  90.1750573  18.9890542 104.6057226
  89.9516228  18.2309371 104.9741252  89.6860417  19.0188563 103.8837666
  90.0694022  18.8812766 104.5533967  84.9875652   5.9357233 100.3418687
  84.2687641   6.3521366 100.6091551  85.3588014   6.5011472  99.7910326
  84.9367584   6.0806514 100.3001494  88.8229030  19.2091000 102.0594311
  88.4089429  18.5465130 101.6698152  89.5076405  19.3568859 101.5390005
  88.8627402  19.1331658 101.9250808  92.1894325  18.3681085 102.8117927
  91.7910608  18.4783355 102.0438747  91.5745544  18.5763151 103.3944487
  92.0393214  18.4154653 102.7849226  87.9199272   6.7869210 108.7118917
  87.4078175   6.1790393 109.0703949  87.7478768   7.5025803 109.1792893
  87.8188909   6.8032510 108.8335141  82.7664986   5.2306786 111.3621279
  82.5967577   5.8908161 110.8169486  82.3230936   5.4413347 112.0833768
  82.6764320   5.3592768 111.3882909  99.9236167  12.9433052  96.1961018
 100.3069773  13.6924408  96.4259115  99.1280281  13.1898871  95.9373007
  99.8629949  13.0902746  96.1918591  79.6667051   8.1353651 106.6209769
  79.1193770   7.4654297 106.7390637  80.4559429   7.7683499 106.6853236
  79.7019234   7.9818638 106.6478469  78.4254020   7.3474459 103.7755792
  78.2475781   6.8951068 104.5010708  78.1373042   8.1500621 103.9594270
  78.3566973   7.3997017 103.9099295  94.0877601   8.6032177 103.0133182
  94.5831267   7.8855172 102.9737203  93.2777377   8.3002974 102.8987669
  94.0421495   8.4529823 102.9906908  89.5336213  12.4529990  95.1630187
  88.7247536  12.1296663  95.1163496  90.0411122  11.7463212  95.0958435
  89.4885880  12.3011306  95.1460481  80.1626490   9.8802183 100.8877551
  79.2972010   9.8687873 100.7760322  80.2625306   9.6932406 101.7348690
  80.0500657   9.8508244 100.9966495  96.1529420  11.3535864 105.7010311
  96.5784492  10.8310286 105.1480736  95.7886340  11.9516701 105.1798934
  96.1616023  11.3646091 105.5419321  85.7883500  19.6500082 104.4607657
  86.1030059  20.4636470 104.4685438  86.1976913  19.2650300 105.1289816
  85.8951598  19.7128784 104.5611748  92.7408020  15.0670128 102.0311469
  93.2119198  15.7810391 102.2001454  93.0768198  14.4668878 102.5671338
  92.8603135  15.0841593 102.1343844  93.3781966  14.8588062 108.7939161
  92.8302912  14.2345946 108.5259226  93.8394995  15.0482334 108.0783241
  93.3649175  14.7947113 108.6489592  83.1296520  13.5973190 104.1086265
  83.7341378  13.5569024 103.4800086  82.9223833  14.4444342 104.1390321
  83.1885417  13.7161192 104.0202381  92.9440292  15.8639135 105.3248502
  93.7638666  15.7202101 105.5864798  92.6634370  16.4885334 105.8664940
  93.0237036  15.9349487 105.4436442  78.3647802  12.5807808 103.9785188
  78.2672080  11.7704079 104.2875245  79.1476672  12.5599601 103.5931456
  78.4663939  12.4574898 103.9672051 109.4153943  23.5203987  98.2891379
 109.3847947  24.3748624  98.4609648 110.0135291  23.2199279  98.8477522
 109.4991101  23.6020483  98.3966181 102.6153628  22.6079638 103.0444309
 101.7591523  22.7688136 103.0953426 102.6621281  21.7371702 103.0649370
 102.4952739  22.5030440 103.0550375  96.9994767  32.1442356  98.8081541
  96.2477667  31.7657894  98.5797586  97.4480779  32.1760789  98.0600351
  96.9544434  32.0927963  98.6639043 102.4519727  32.5667725  94.2367088
 102.1171096  33.2444647  93.8011310 102.9646598  32.1773036  93.6483959
 102.4785308  32.6092303  94.0853879 101.9924018  34.5181994 100.1778199
 102.3763398  35.0868893  99.6382975 101.9283160  33.7931504  99.6984015
 102.0397446  34.4957457 100.0272062 105.4605449  24.6671682 105.6875961
 106.0061409  25.3456768 105.7469930 105.4022325  24.5259143 104.8277542
 105.5321363  24.7463683 105.5688021  98.5779523  32.1560748 101.0744313
  98.6789886  31.3461102 101.3841441  97.9821269  32.0617694 100.4443992
  98.5052062  32.0225776 101.0270552 107.2370517  26.0956289  96.5609689
 107.1210043  26.8463975  96.9901827 108.0326404  25.8380242  96.8105776
 107.3375107  26.1691136  96.6613780  98.4180263  37.0738337 102.4759169
  99.0617718  37.5151501 102.8655328  98.7436519  36.2691763 102.3889428
  98.5612092  37.0203532 102.5204647  91.7744568  28.1781034 100.6996647
  91.5394752  27.3448687 100.5928916  91.9130208  28.4585700  99.8857848
  91.7600230  28.0964538 100.5639002  94.0734655  20.3466765 103.5980955
  93.4539687  19.7559412 103.4290969  93.9718519  20.9378200 102.9645278
  93.9672331  20.3470848 103.4785944  99.1200843  30.0850312  97.8479031
  99.4416684  30.6255519  97.2440339  99.7672939  29.5147083  97.9801321
  99.2626898  30.0809487  97.7786066 101.1702551  22.0866307  97.9313418
 101.8682715  22.2654434  98.4234881 101.4854883  21.5636646  97.3083807
 101.3197888  22.0360079  97.9115428  93.8003788  23.8919047 105.8424524
  93.6762485  24.4781492 106.4774342  94.4522073  23.3979242 106.1436798
  93.8777438  23.9057851 105.9810453 101.3590486  28.4736752  97.9193209
 101.7984122  27.8653852  98.3647982 101.2095149  28.0944125  97.1478674
 101.4011952  28.3275223  97.8712376  98.8262129  27.0680764 105.1212035
  99.4711132  26.5753207 104.8022983  99.0663906  27.2105550 105.9478113
  98.9572714  27.0158206 105.1961568 101.3648221  29.9135670 104.7718927
 101.6471463  29.1187075 104.5505683 102.0934381  30.3916257 104.7923988
 101.5137784  29.8670266 104.7421942  99.3429414  17.4558703 102.0134692
  99.0132744  17.9069847 101.3438391  98.6674416  17.3774867 102.5607699
  99.1939851  17.5109839 101.9957916 104.9599823  26.8263933  94.8723978
 104.8751118  27.6824900  95.0173547 105.4484206  26.5508257  95.5406137
 105.0188720  26.9121255  94.9926060 106.5505822  13.4444226 100.2584303
 106.2359263  14.1347705 100.6904725 106.0332764  13.3889009  99.5569804
 106.4270293  13.5379115 100.2181252 105.8918256  23.4448727  96.3721713
 105.3629727  23.6608361  97.0319020 106.4143276  24.1384866  96.2922683
 105.8906709  23.5791864  96.4577313 111.3466309  29.0195032 101.7454758
 110.5164012  29.2305675 101.9088175 111.2975561  28.1932086 101.4697042
 111.2173044  28.9284638 101.7292123  97.7817864  27.3411944  95.1729181
  97.1975079  27.8461975  95.5795045  97.3787959  27.1154331  94.4325773
  97.6357168  27.3820192  95.1234207  93.3361892  33.0566705 101.9752853
  92.8529471  33.7817195 101.9512437  94.1485211  33.3542835 102.0863011
  93.3852640  33.2069059 101.9880132  99.4076046  31.8498886 104.5802667
  98.8902988  31.4906301 103.9763976 100.1050438  31.3261060 104.5908734
  99.4341628  31.7196574 104.4932926 103.0639638  32.2993700 110.5418841
 103.1522984  32.1119840 111.3897051 103.4929351  31.6531130 110.1423687
 103.1401741  32.1756708 110.6090592 100.6310098  31.5824860 109.5236503
 100.0680933  31.1697470 110.0476164 101.3931122  31.5077766 109.9429646
 100.6604547  31.5102260 109.6629503 102.2395078  23.5877596  93.6498102
 102.4791082  23.7955580  92.8373445 102.5610919  22.7835105  93.7587047
 102.3232236  23.4991697  93.5458655  97.5485368  15.5170992  97.4957640
  98.3031336  15.8849309  97.2574690  97.3712903  15.8910546  98.2636820
  97.6339847  15.6269180  97.5742529  96.1906090  33.5722881 102.1273133
  96.8926669  33.0574870 102.1845889  96.1103573  33.8997032 102.9320008
  96.2829850  33.5437107 102.2545925  97.2384996  23.8098468 111.2553548
  97.4105500  23.7004363 112.1038829  97.7754354  24.4552873 111.0184740
  97.3430000  23.8890470 111.3458645  95.9042433  17.9241311  94.1935753
  95.7218006  18.1413192  93.3676746  96.7668046  18.0380324  94.2494367
  96.0047023  17.9731209  94.0790240  95.5156865  29.7629233 101.6358741
  96.3545764  29.9952166 101.6832502  95.5468634  28.8933545 101.5665776
  95.6438583  29.6686180 101.6323386  96.1409568  30.1830108 105.9372046
  96.6807793  30.0401239 106.6075419  95.4579514  30.5826859 106.3056073
  96.1201722  30.2209779 106.0906468 101.5842152  14.9267722  97.2284777
 102.3128313  14.7483677  96.7822933 101.6737045  15.7685801  97.4391955
 101.7048814  15.0251600  97.1938294 105.5650453  25.8621109 101.1317071
 106.3207968  26.2952623 101.1705980 105.6712777  25.2125879 101.7051707
 105.6920624  25.8298593 101.2215096 108.6030624  29.6894386 101.8819474
 108.1665856  29.6931129 102.6378445 108.2693540  30.3699885 101.4499051
 108.4893244  29.7906842 101.9300306 103.1759698  31.7302719 113.2062624
 103.9600114  31.8433567 113.5718366 102.9756292  30.9043856 113.4021310
 103.2625723  31.6249438 113.2897010  91.5446713  26.4030399 106.0906468
  91.2785128  25.5869516 106.2497458  91.5585277  26.4483555 105.2201983
  91.5071435  26.2887304 105.9859950  95.4504460  21.2015484  92.7058226
  94.7362637  20.9153663  93.1180659  95.9348429  21.5412109  93.3464614
  95.4163823  21.2097133  92.8613861  96.2945320  19.9408777 108.7373476
  95.6017116  19.4705757 108.9834207  96.9105647  19.7147082 109.3115183
  96.2829849  19.8375909 108.8582628 103.3330091  33.6412821 106.8529080
 102.5345337  33.4012321 107.1102948 103.7816103  33.6927214 107.5996127
 103.2804702  33.6135212 107.0014004 111.7374970  26.4075306 100.7739111
 112.3991404  25.8465975 100.6735019 111.0966382  25.9127337 101.0991802
 111.7403838  26.2511715 100.8071451 102.6251778  29.7045437  93.0820034
 103.0402927  29.3730461  92.3904530 101.7943708  29.4714340  92.9540171
 102.5639787  29.6216693  92.9610882  91.9540127  27.1889179 103.3718212
  91.7715700  27.1636065 102.5190504  92.6889796  27.6588116 103.4107121
  92.0354191  27.2550541 103.2516131 108.0239801  27.4240688 100.5151100
 108.2595390  27.5685887  99.6877950 108.1729365  28.1883097 100.9082613
 108.0805604  27.5579743 100.4514704  95.0185878  23.9074181 109.8800321
  95.7425851  23.8927212 110.3665216  95.1202015  24.6169537 109.3822289
  95.1404088  24.0098885 109.8779108 109.8530258  26.2642354  98.3520704
 110.1838475  26.7969995  97.7460798 110.4263346  26.3181242  99.0082655
 109.9863937  26.3511923  98.3598485 105.0662147  24.1107257  99.0344284
 105.1609001  24.8496551  99.4883909 104.4420990  23.6824733  99.4678848
 104.9871177  24.1568578  99.1652431 103.3214621  27.2893470 109.6834565
 103.8953482  26.6520714 109.8383128 103.2429424  27.2897552 108.8144222
 103.3947856  27.1958581 109.5780975  91.9211037  24.0682679 103.5217279
  92.4984540  23.9319130 104.1609524  91.2225099  23.6118463 103.7762863
  91.9032059  23.9804945 103.6539568 105.3185168  25.9555997  92.2681236
 105.2365331  26.0258184  93.1336223 105.9564889  26.5185741  92.0764976
 105.4005006  26.0494968  92.3671185  98.6778339  25.7216735 101.7355762
  98.4197584  24.8888470 101.7087061  98.7326822  25.9474348 100.8948262
  98.6478117  25.6314506 101.6075899 103.7579389  17.8245186 101.8359855
 103.0535716  17.3354371 101.9943774 103.8064364  17.8367660 100.9648299
 103.6609441  17.7534834 101.7299194  97.6513051  23.2754497 102.2220657
  97.0762643  23.4346666 102.8584618  97.2748728  22.6389906 101.7589107
  97.5115864  23.2052310 102.2475215 101.3186340  21.7477847 107.0813035
 100.9300773  21.3232064 106.4265226 100.6541038  21.9959996 107.5890062
 101.1633268  21.7216568 107.0600903 110.9609609  21.5052851  99.8560865
 110.7046174  20.6932793  99.6658748 111.8038923  21.5130418  99.6291053
 111.0475635  21.3864849  99.7945682  87.3969870  22.9194572 100.2365097
  87.4830122  22.5426440 101.0178627  88.0245668  22.5455018  99.7585056
  87.5026421  22.8080054 100.2810575 102.4225278  25.9776451  95.2789842
 103.2365917  26.2691344  95.1672613 102.3584420  25.3236314  94.7048135
 102.5328017  25.9241646  95.1778679  98.2933187  29.4497969 100.4062154
  98.9307134  29.2109716 100.9513948  98.7188258  29.6535128  99.6715315
  98.4509353  29.4448979 100.3779312  92.9845829  31.6886305 104.2896458
  93.0249974  31.9601156 103.4616238  93.5440353  32.2128213 104.7054246
  93.0729175  31.8062060 104.2288346  98.9336002  24.6700258  94.7437044
  99.3181154  24.4507965  95.4953589  98.6847622  25.4963204  94.8738120
  98.9538074  24.7598405  94.8738120 109.6671189  28.4446896 105.7547712
 109.3617006  29.1774953 106.1161028 108.9477405  28.0384826 105.4740498
 109.5158531  28.4928629 105.7660849 100.6754659  29.9270391 102.0855940
 100.7493667  29.7645563 102.9397790 101.4924165  30.1160581 101.8416422
 100.8071017  29.9307134 102.1753966  94.4360415  30.2728254  99.1150384
  93.6098533  30.5189991  98.9884663  94.4972406  30.1940335  99.9812442
  94.3234582  30.2973203  99.2239328  96.6536439  16.3397195 100.0745824
  95.7858864  16.4119795 100.1403433  96.9411643  17.1419274 100.2633799
  96.5676187  16.4691342 100.1120591  99.2159244  32.8905134  96.8169414
  99.5057543  32.4994116  96.0928640  99.9462725  33.0721839  97.2574689
  99.3666128  32.8598948  96.7752221  99.8053989  27.6922880 107.9022544
  99.3065683  28.4038648 107.9807433 100.6154214  28.0123547 107.8640707
  99.8510096  27.8449729 107.9079113  97.1565160  34.8672517  99.8829564
  96.9365455  34.5769871 100.6756231  96.9359682  34.2087472  99.3547476
  97.0912754  34.7272225  99.9218472  96.0682107  26.9545833 102.1485265
  95.7795356  26.3283305 102.6830993  96.9365455  26.8966121 102.2149946
  96.1542359  26.8533377 102.2376220 106.8560005  22.0980617 102.4667247
 106.5124771  21.3770952 102.8174497 106.9553047  21.8894468 101.6245605
 106.8202048  21.9604820 102.3938927  99.3233116  36.2401907  98.6660256
  99.9757174  35.7078349  98.8951282  98.6258724  35.8870559  99.0528130
  99.3163834  36.1091430  98.7572424  96.2714380  28.5941084  98.0727630
  97.0260348  28.9754123  98.2863093  95.6784993  29.0452228  98.5274327
  96.2951094  28.7169912  98.1710509 107.3173034  28.5606321  98.0091235
 107.8831067  29.2199531  97.9249778 106.6700937  28.9056019  98.4807637
 107.3051790  28.7088262  98.0663992  97.5912607  29.7649646 103.4467746
  97.0693361  29.9049937 104.1319610  97.9786627  29.0060310 103.6369863
  97.5716308  29.6735169 103.5768822  94.5803791  19.8155454  97.5162700
  94.2928587  19.4456725  96.7794648  95.2674259  20.2850310  97.2546405
  94.6392688  19.8302424  97.3677776 103.7879612  31.5045105  97.4328314
 103.5466288  30.7712966  97.0255379 103.9680945  32.0531962  96.7794648
 103.7787236  31.4767496  97.2758537  99.0178933  26.7953665  98.8449237
  98.8221715  27.4028399  98.2509540  99.2413278  26.1021609  98.3640911
  99.0213574  26.7831190  98.6865318  97.4157463  23.6808403  98.9630105
  98.1380115  23.8449561  98.5033911  96.9365455  24.4018067  98.8569445
  97.4521193  23.8106632  98.8795719 105.3750970  20.0172201 104.3426790
 104.5362071  20.0433480 104.1065053 105.4455338  20.6642937 104.9232137
 105.2619364  20.1168327 104.3935907  95.0665079  26.0866475 108.0684245
  95.5786176  26.3650728 107.4193005  94.7801422  26.8255769 108.4347058
  95.0999943  26.2368829 108.0274123 103.8220249  16.9157578  99.0754406
 104.5246601  16.7165327  98.5974364 103.5564437  16.1433521  99.3823249
 103.8866881  16.7720544  99.0499848 109.2508494  25.2240188 101.6288032
 109.1642469  25.3795614 102.4822811 108.7958974  25.8678264 101.2547437
 109.1711751  25.3415943 101.6995139  92.1531986  20.5936667  98.3647981
  92.2548122  21.3962828  98.6928957  92.9487872  20.3924003  98.0671062
  92.2859891  20.6822566  98.3683337  98.5848805  18.1792864 108.1285287
  98.3932002  18.1947998 108.9784710  99.4347401  18.3756538 108.1051941
  98.6824527  18.2107215 108.2508581  92.9695718  20.7083845 106.1069103
  92.8281210  19.8567786 106.2313611  93.2536281  20.7512506 105.2831309
  92.9903564  20.5883595 106.0036727 103.1234310  22.5450935 100.2513591
 102.8769024  22.4646686 101.0850380 103.4519433  21.7604403 100.0576119
 103.1355554  22.4177201 100.3461114 107.0182359  29.2534295 104.0400373
 106.8796718  29.9515340 104.5449115 106.2382357  29.0982951 103.6836554
 106.8825586  29.3334461 104.0626647  99.0831337  25.2807654 109.6636574
  99.2274713  25.8608862 109.0279684  99.4306986  25.6583951 110.3686429
  99.1558799  25.4228358 109.6735569 101.2551255  24.4797822 107.4461706
 100.5074569  24.6728837 107.0409984 101.4092780  23.6543042 107.2085827
 101.1673682  24.3862934 107.3507112  98.1559092  33.4710426 106.5297601
  98.3048656  32.9113342 105.8771006  98.9359095  33.5502427 106.9130120
  98.2933186  33.3995991 106.4894550 108.5135732  28.6112548  94.8016872
 108.1342541  27.8249686  94.7946161 107.8501977  29.1599405  94.6588516
 108.3594207  28.5757372  94.7797669 100.6812393  33.6425069 107.8082092
 100.6056064  32.9733879 108.3632880 100.6102252  34.3442857 108.3222758
 100.6593000  33.6469976 107.9658940  93.7386023  18.6214193 109.4246553
  93.2028213  18.0094551 109.7407321  93.8003788  19.1962329 110.0780220
  93.6681656  18.6161120 109.5681980 101.3382640  32.1626067  98.6405698
 102.1032531  31.8935711  98.3188362 101.2360730  31.6776078  99.3575761
 101.4364135  32.0515632  98.6985526  99.3735410  20.3650477 105.1798934
  98.5831484  20.1841937 105.5016270  99.7696033  19.5877429 105.1629228
  99.3152286  20.2237938 105.2251482 103.8601301  29.1938251  90.6205647
 104.6274286  29.2538376  90.2111499 103.4132609  28.6218693  90.1361966
 103.9074728  29.1174827  90.4883358 104.7579096  27.9992907 102.9058380
 104.0824098  27.7678139 103.4071767 104.7671472  27.3914090 102.2800485
 104.6597601  27.8751832 102.8874532 101.8873240  22.8410736 109.6622433
 101.8232381  23.7020692 109.5342569 102.0270428  22.5242729 108.8617984
 101.8988710  22.9210903 109.5250646 106.7595831  30.8558039  95.1368558
 106.8415668  31.6625026  94.8130009 107.2445573  30.8753999  95.8609331
 106.8432988  30.9778702  95.1955456 100.5692334  25.5342875 103.8038636
 100.1454583  25.7347374 103.0677654 100.3937189  24.6871723 103.9162935
 100.4803215  25.4391657 103.7112326 100.0704027  37.0493388 106.2660093
 100.5599958  36.3504178 106.0835757  99.4988260  36.7517258 106.8536150
 100.0588557  36.9019612 106.3261134  95.8574779  26.0294927  99.2366608
  96.0139398  25.9641730 100.0922600  96.1975372  26.8043479  99.0245288
  95.9308014  26.1344125  99.3321202 102.3953923  25.4052810  98.1059971
 102.9369469  24.9023191  98.5698592 102.7100483  25.3518005  97.2949457
 102.5218321  25.3232231  98.0543783 100.5640373  30.7970162  95.3899999
 100.6333194  29.9384700  95.5293000 101.3428828  31.0142043  95.0619024
 100.6893223  30.7023026  95.3617157 104.9547861  33.2207863  99.6036493
 104.5627653  32.9174578  98.8859359 105.1100933  34.0576953  99.4141446
 104.9201451  33.2991700  99.4692990  92.4309040  23.2129877  99.5527375
  92.8108005  23.6314422  98.8887643  91.8564405  23.7943333  99.8596219
  92.4020365  23.3607736  99.5004116 105.1187536  29.7857852  99.5442523
 104.7602190  29.9572495 100.3206556 104.6326246  30.2471058  98.9870522
 104.9946232  29.8796823  99.5767792 102.9357922  13.4089051 103.1469615
 102.0651479  13.3827772 103.1002924 103.1898263  13.2366243 102.3295460
 102.8451482  13.3799194 103.0189751  99.9075901  25.4657017  92.0842758
 100.1968426  26.2421900  92.3586332  99.9947700  24.9545749  92.7857257
  99.9630157  25.5048936  92.2285255  99.9607062  15.4195279 104.6043085
  99.4445551  14.7275470 104.7294664  99.4000991  16.0866056 104.5505684
  99.8013575  15.4158537 104.6149151 106.2792275  30.6761748 110.4909724
 106.9171995  30.1821944 110.1572180 105.6366366  30.6039148 109.9061951
 106.2786501  30.5920756 110.3552079 108.0049275  22.5250894 105.0575640
 107.5776883  22.4377243 104.3023739 107.3675328  22.6328669 105.6430484
 107.8478882  22.5283554 105.0321081 106.3346531  31.3681556 107.1315081
 107.1238910  31.0170621 107.2517162 106.5090129  32.1817945 106.8691715
 106.4766813  31.4367413 107.1102949  96.0739842  24.7790282 104.1842870
  95.2327848  24.6794156 104.3921764  96.2829850  25.5485762 104.5357190
  95.9804534  24.8782325 104.2670185  93.5515409  22.4009819 102.0127620
  93.1572107  22.4752831 101.2377730  92.9955526  22.7867765 102.5635982
  93.4118221  22.4691594 101.9795280 105.1880356  15.3791113 101.6931499
 105.3929949  15.3113421 102.5388496 104.8606780  16.1849934 101.6252677
 105.1695604  15.4877053 101.8091154  99.8856507  22.7071681 103.4340467
  99.5819644  22.1527669 104.0350875  99.1835928  22.8863891 102.9468501
  99.7372717  22.6516464 103.4510173  98.9422604  20.0172201  97.9985169
  99.2182338  19.2991114  97.5862737  99.5421273  20.6157121  97.7906275
  99.0715868  19.9992572  97.9065930  97.9474858  29.9221402 108.1412565
  97.8395213  29.9323464 109.0074623  98.1570639  30.7476182 107.9517519
  97.9624969  30.0462477 108.2416657 102.4433124  17.6885718  96.2731764
 102.8976871  17.8596279  96.9979609 102.9173170  17.0753829  95.8729540
 102.5801445  17.6236604  96.3205526  95.9648650  27.1734044 105.6034503
  95.3736583  27.8143542 105.5737518  96.7269673  27.5971662 105.5765802
  95.9896910  27.3309883 105.5949650  96.3609273  18.3336042 106.2702520
  96.8210754  18.4074971 107.0077644  96.4065379  19.1317296 105.9202342
  96.4359828  18.4630189 106.3275277 105.7238166  32.6243356 103.0366527
 105.5257855  33.1134170 102.3422738 105.1025877  32.8284597 103.6150660
 105.6025730  32.7259894 103.0189750  99.7846144  24.3928253  97.3776771
 100.5288189  24.7802529  97.6159721  99.9306841  23.5485678  97.5417259
  99.9156729  24.3258726  97.4370741 101.7025720  16.1878512 102.4108633
 100.8561765  16.3601319 102.2849983 101.6996852  15.3827855 102.7474461
 101.5772870  16.0939541 102.4419760 102.7724020  19.9653726 103.2770691
 102.2983974  19.4395488 103.7876002 103.1442156  19.4183199 102.7085552
 102.7573909  19.8069723 103.2685838  93.1497050  21.9625233 108.6454236
  94.0122663  21.8620942 108.5591566  92.8188833  21.3819942 108.0839809
  93.2282247  21.8616859 108.5499642 104.7007520  20.8590281  96.3396444
 104.1730538  20.9419025  95.6502153 105.1603228  21.6008152  96.3361089
 104.6909370  20.9810943  96.2371140  96.5098836  20.7867682 105.3064655
  95.8851906  20.7986074 104.6990607  96.1744431  21.2627857 105.9555895
  96.3684328  20.8586199 105.3121223  96.6940585  19.1292800  91.3637340
  96.3453389  19.7812525  91.8268889  96.2137031  19.1149913  90.6361211
  96.5710829  19.2235854  91.3248431  93.2224512  28.8468142 106.7468419
  92.6924436  28.1560581 106.7963394  93.4949605  28.8378327 105.9181127
  93.1849234  28.7435274 106.6315835 104.2544602  29.4293844  95.4706101
 104.9778801  29.8951957  95.3270675 103.8145193  29.4967454  94.7203698
 104.2960295  29.5077681  95.3390883 103.4230757  26.2891386 106.7206790
 102.8087751  25.7449437 107.0155426 103.9398042  25.7755623 106.2412607
 103.4086420  26.1327795 106.6931019 102.6627055  27.3595656 104.4551089
 102.2354663  26.7345375 104.0216525 102.6551999  27.0770578 105.2810096
 102.5986196  27.2248437 104.5130917  95.7789582  22.3960829 107.5239523
  95.9383068  21.6404154 107.9291245  95.5982475  22.9451769 108.1780261
  95.7754941  22.3654643 107.6802229 100.9912764  18.2364411 104.6693623
 101.0155251  17.7024523 103.9806403 101.2424238  17.7281720 105.3319214
 101.0322683  18.0825315 104.6658268  88.5020354  25.5195906 104.1036767
  88.3963803  25.4742750 103.2388851  87.7520574  25.8649687 104.3851052
  88.3755957  25.5636814 104.0174097  97.2714087  16.9635229 104.0499367
  97.3112458  17.4644436 104.7634075  96.4463751  17.0545623 103.7805290
  97.1553612  17.0517046 104.1149906  99.4543699  26.5295969 112.1519662
  98.6039330  26.6667683 112.2877307  99.6171827  25.7959747 112.5967364
  99.3527563  26.4410070 112.2375261  98.6928450  23.4795739 106.3473266
  97.8620380  23.6469557 106.1408515  98.6379967  23.1031690 107.1322152
  98.5617865  23.4485470 106.4321795  97.0664494  21.7551331  96.8763384
  97.2067455  22.2523795  97.5792025  97.5647027  21.0537625  97.0177598
  97.1605575  21.7253309  97.0014963  97.0964716  22.6218442  94.2055961
  97.7309796  23.2178867  94.1405423  97.1790327  22.3221899  95.0201831
  97.2021267  22.6659350  94.3159048  98.6743699  18.5532417  94.1801403
  98.9959540  18.0735500  93.5260665  98.9370643  19.3632063  93.9892215
  98.7609724  18.6022315  94.0556895 101.9040672  29.5751291 107.7000219
 101.3965763  30.1287138 108.1440850 101.6067318  29.6359581 106.8818994
 101.7845557  29.6657603 107.6448676  93.6017704  24.8186282  97.4745507
  94.1109933  25.4150790  97.8556813  94.0751976  24.5512256  96.7921927
  93.7461080  24.8672098  97.4300030 104.5148452  33.4914549  95.6304163
 103.7977762  33.3175411  95.1651400 105.1655190  33.2567121  95.0979649
 104.5050303  33.4310342  95.4833380 102.5097077  14.4119711  99.9515459
 101.8665395  14.2617357 100.5200598 102.1696484  14.1662056  99.1864564
 102.3642154  14.3531833  99.9218474 107.0996423  22.3679138  99.3745468
 106.4287613  22.9108840  99.2458533 107.7936174  22.8373993  99.1327162
 107.1025291  22.5177409  99.3200995 101.1483157  34.5075850 104.6057226
 100.9248811  33.7494679 104.9741252 100.6593000  34.5373871 103.8837666
 101.0426606  34.3998074 104.5533967 107.2624551  18.8235021 102.2835841
 107.6152161  18.3964744 102.9581640 106.4039352  18.7385865 102.4136917
 107.1873995  18.7479762 102.4030851  95.9608236  21.4542541 100.3418687
  95.2420225  21.8706674 100.6091551  96.3320598  22.0196780  99.7910326
  95.9100168  21.5991822 100.3001494  99.7961614  34.7276308 102.0594311
  99.3822013  34.0650438 101.6698152 100.4808988  34.8754167 101.5390005
  99.8359986  34.6516966 101.9250808 103.1626908  33.8866393 102.8117927
 102.7643191  33.9968663 102.0438747 102.5478128  34.0948459 103.3944487
 103.0125797  33.9339961 102.7849226 101.7354810  20.4940541  95.6792067
 101.1419649  20.8157537  95.1276634 101.7730088  19.6481636  95.4713173
 101.6529199  20.4164869  95.5674838 104.6112627  20.4520045  99.1093817
 104.3826320  20.4752747  98.2672175 104.8710703  19.6277512  99.2288828
 104.6158815  20.3336125  99.0019015  98.8931855  22.3054518 108.7118917
  98.3810758  21.6975701 109.0703949  98.7211351  23.0211111 109.1792893
  98.7921492  22.3217818 108.8335141  93.7397570  20.7492094 111.3621279
  93.5700160  21.4093469 110.8169486  93.2963520  20.9598655 112.0833768
  93.6496903  20.8778076 111.3882909  97.6657389  18.9896592 100.4048013
  98.1414755  19.3513671  99.7698194  97.1645989  19.6453059 100.6848156
  97.6622748  19.1390780 100.3524754 110.8968751  28.4618360  96.1961018
 111.2802357  29.2109716  96.4259115 110.1012864  28.7084179  95.9373007
 110.8362533  28.6088054  96.1918591  90.6399634  23.6538959 106.6209769
  90.0926354  22.9839605 106.7390637  91.4292013  23.2868807 106.6853236
  90.6751818  23.5003946 106.6478469  99.7084042  21.1337791  93.7721397
 100.0883007  21.1517421  92.9872511  98.9676638  21.5791780  93.6512244
  99.6552880  21.2019566  93.6384965 107.3369333  19.4419983  99.3596975
 107.3363559  19.2868639 100.2181252 107.1325513  20.2882970  99.3038361
 107.3069111  19.5440603  99.4784915  89.3986604  22.8659767 103.7755792
  89.2208365  22.4136376 104.5010708  89.1105626  23.6685928 103.9594270
  89.3299557  22.9182325 103.9099295 105.0610185  24.1217484 103.0133182
 105.5563850  23.4040479 102.9737203 104.2509961  23.8188282 102.8987669
 105.0154078  23.9715131 102.9906908 100.5068796  27.9715298  95.1630187
  99.6980119  27.6481971  95.1163496 101.0143705  27.2648520  95.0958435
 100.4618463  27.8196614  95.1460481  91.1359074  25.3987491 100.8877551
  90.2704593  25.3873181 100.7760322  91.2357890  25.2117714 101.7348690
  91.0233241  25.3693552 100.9966495 107.1262004  26.8721172 105.7010311
 107.5517075  26.3495594 105.1480736 106.7618924  27.4702009 105.1798934
 107.1348606  26.8831399 105.5419321  96.7616084  35.1685389 104.4607657
  97.0762643  35.9821778 104.4685438  97.1709497  34.7835608 105.1289816
  96.8684182  35.2314092 104.5611748 103.7140603  30.5855436 102.0311469
 104.1851781  31.2995699 102.2001454 104.0500782  29.9854186 102.5671338
 103.8335718  30.6026900 102.1343844 104.3514550  30.3773370 108.7939161
 103.8035496  29.7531254 108.5259226 104.8127578  30.5667642 108.0783241
 104.3381759  30.3132421 108.6489592  99.7003213  17.3599320  96.4549028
 100.5218907  17.5297633  96.2130723  99.2372864  17.5146581  95.7315326
  99.7534375  17.4081053  96.3120673  98.2898545  15.3542082 107.2347457
  98.8342958  15.0133209 107.8251799  98.3435481  16.2127543 107.3768742
  98.3787664  15.4297341 107.3429330  94.1029104  29.1158498 104.1086265
  94.7073961  29.0754332 103.4800086  93.8956416  29.9629650 104.1390321
  94.1618001  29.2346500 104.0202381 103.9172876  31.3824443 105.3248502
 104.7371250  31.2387409 105.5864798 103.6366954  32.0070642 105.8664940
 103.9969619  31.4534795 105.4436442  89.3380386  28.0993115 103.9785188
  89.2404664  27.2889387 104.2875245  90.1209256  28.0784909 103.5931456
  89.4396523  27.9760206 103.9672051 120.3886526  39.0389295  98.2891379
 120.3580531  39.8933931  98.4609648 120.9867875  38.7384587  98.8477522
 120.4723684  39.1205791  98.3966181 113.5886211  38.1264946 103.0444309
 112.7324107  38.2873444 103.0953426 113.6353865  37.2557010 103.0649370
 113.4685323  38.0215748 103.0550375 107.9727351  47.6627664  98.8081541
 107.2210250  47.2843202  98.5797586 108.4213362  47.6946097  98.0600351
 107.9277018  47.6113271  98.6639043 113.4252311  48.0853033  94.2367088
 113.0903679  48.7629955  93.8011310 113.9379181  47.6958344  93.6483959
 113.4517892  48.1277611  94.0853879 112.9656602  50.0367302 100.1778199
 113.3495981  50.6054200  99.6382975 112.9015743  49.3116812  99.6984015
 113.0130029  50.0142765 100.0272062 116.4338032  40.1856990 105.6875961
 116.9793992  40.8642076 105.7469930 116.3754908  40.0444451 104.8277542
 116.5053946  40.2648991 105.5688021 109.5512107  47.6746056 101.0744313
 109.6522470  46.8646410 101.3841441 108.9553852  47.5803002 100.4443992
 109.4784646  47.5411084 101.0270552 118.2103101  41.6141597  96.5609689
 118.0942627  42.3649283  96.9901827 119.0058987  41.3565550  96.8105776
 118.3107690  41.6876444  96.6613780 109.3912847  52.5923645 102.4759169
 110.0350302  53.0336809 102.8655328 109.7169102  51.7877071 102.3889428
 109.5344675  52.5388840 102.5204647 102.7477151  43.6966342 100.6996647
 102.5127336  42.8633995 100.5928916 102.8862792  43.9771008  99.8857848
 102.7332814  43.6149846 100.5639002 105.0467239  35.8652073 103.5980955
 104.4272270  35.2744720 103.4290969 104.9451102  36.4563508 102.9645278
 104.9404914  35.8656155 103.4785944 110.0933426  45.6035620  97.8479031
 110.4149267  46.1440827  97.2440339 110.7405523  45.0332391  97.9801321
 110.2359481  45.5994795  97.7786066 112.1435134  37.6051615  97.9313418
 112.8415299  37.7839742  98.4234881 112.4587467  37.0821954  97.3083807
 112.2930472  37.5545387  97.9115428 104.7736372  39.4104355 105.8424524
 104.6495069  39.9966800 106.4774342 105.4254656  38.9164550 106.1436798
 104.8510021  39.4243159 105.9810453 112.3323070  43.9922060  97.9193209
 112.7716705  43.3839160  98.3647982 112.1827733  43.6129433  97.1478674
 112.3744535  43.8460531  97.8712376 109.7994713  42.5866072 105.1212035
 110.4443715  42.0938515 104.8022983 110.0396490  42.7290858 105.9478113
 109.9305298  42.5343514 105.1961568 112.3380804  45.4320977 104.7718927
 112.6204047  44.6372383 104.5505683 113.0666965  45.9101565 104.7923988
 112.4870368  45.3855574 104.7421942 110.3161998  32.9744011 102.0134692
 109.9865328  33.4255155 101.3438391 109.6407000  32.8960175 102.5607699
 110.1672434  33.0295147 101.9957916 115.9332406  42.3449241  94.8723978
 115.8483701  43.2010208  95.0173547 116.4216790  42.0693565  95.5406137
 115.9921304  42.4306562  94.9926060 117.5238406  28.9629534 100.2584303
 117.2091847  29.6533013 100.6904725 117.0065347  28.9074317  99.5569804
 117.4002876  29.0564423 100.2181252 116.8650840  38.9634035  96.3721713
 116.3362311  39.1793669  97.0319020 117.3875859  39.6570174  96.2922683
 116.8639293  39.0977172  96.4577313 122.3198892  44.5380340 101.7454758
 121.4896596  44.7490983 101.9088175 122.2708145  43.7117394 101.4697042
 122.1905628  44.4469946 101.7292123 108.7550447  42.8597252  95.1729181
 108.1707663  43.3647283  95.5795045 108.3520543  42.6339639  94.4325773
 108.6089751  42.9005500  95.1234207 104.3094476  48.5752013 101.9752853
 103.8262054  49.3002503 101.9512437 105.1217794  48.8728143 102.0863011
 104.3585224  48.7254367 101.9880132 110.3808630  47.3684194 104.5802667
 109.8635572  47.0091609 103.9763976 111.0783021  46.8446368 104.5908734
 110.4074211  47.2381882 104.4932926 114.0372222  47.8179008 110.5418841
 114.1255568  47.6305148 111.3897051 114.4661935  47.1716437 110.1423687
 114.1134324  47.6942016 110.6090592 111.6042682  47.1010168 109.5236503
 111.0413517  46.6882778 110.0476164 112.3663705  47.0263074 109.9429646
 111.6337130  47.0287568 109.6629503 113.2127662  39.1062904  93.6498102
 113.4523665  39.3140888  92.8373445 113.5343503  38.3020413  93.7587047
 113.2964820  39.0177005  93.5458655 108.5217952  31.0356300  97.4957640
 109.2763920  31.4034617  97.2574690 108.3445487  31.4095854  98.2636820
 108.6072430  31.1454488  97.5742529 107.1638673  49.0908189 102.1273133
 107.8659253  48.5760178 102.1845889 107.0836156  49.4182340 102.9320008
 107.2562434  49.0622415 102.2545925 108.2117580  39.3283776 111.2553548
 108.3838083  39.2189671 112.1038829 108.7486937  39.9738181 111.0184740
 108.3162584  39.4075778 111.3458645 106.8775017  33.4426619  94.1935753
 106.6950590  33.6598500  93.3676746 107.7400630  33.5565632  94.2494367
 106.9779606  33.4916517  94.0790240 106.4889449  45.2814541 101.6358741
 107.3278348  45.5137474 101.6832502 106.5201218  44.4118852 101.5665776
 106.6171166  45.1871487 101.6323386 107.1142152  45.7015416 105.9372046
 107.6540377  45.5586547 106.6075419 106.4312098  46.1012167 106.3056073
 107.0934306  45.7395087 106.0906468 112.5574736  30.4453030  97.2284777
 113.2860896  30.2668984  96.7822933 112.6469629  31.2871109  97.4391955
 112.6781398  30.5436908  97.1938294 116.5383037  41.3806417 101.1317071
 117.2940552  41.8137931 101.1705980 116.6445361  40.7311187 101.7051707
 116.6653207  41.3483901 101.2215096 119.5763208  45.2079694 101.8819474
 119.1398440  45.2116437 102.6378445 119.2426123  45.8885193 101.4499051
 119.4625828  45.3092150 101.9300306 114.1492281  47.2488027 113.2062624
 114.9332698  47.3618875 113.5718366 113.9488876  46.4229164 113.4021310
 114.2358307  47.1434746 113.2897010 102.5179297  41.9215707 106.0906468
 102.2517712  41.1054824 106.2497458 102.5317861  41.9668863 105.2201983
 102.4804019  41.8072612 105.9859950 106.4237044  36.7200791  92.7058226
 105.7095221  36.4338971  93.1180659 106.9081012  37.0597417  93.3464614
 106.3896407  36.7282441  92.8613861 107.2677903  35.4594085 108.7373476
 106.5749700  34.9891065 108.9834207 107.8838230  35.2332390 109.3115183
 107.2562433  35.3561217 108.8582628 114.3062675  49.1598129 106.8529080
 113.5077920  48.9197629 107.1102948 114.7548686  49.2112522 107.5996127
 114.2537286  49.1320520 107.0014004 122.7107554  41.9260614 100.7739111
 123.3723988  41.3651282 100.6735019 122.0698966  41.4312645 101.0991802
 122.7136421  41.7697023 100.8071451 113.5984362  45.2230745  93.0820034
 114.0135510  44.8915769  92.3904530 112.7676291  44.9899648  92.9540171
 113.5372370  45.1402001  92.9610882 102.9272710  42.7074486 103.3718212
 102.7448284  42.6821372 102.5190504 103.6622379  43.1773424 103.4107121
 103.0086774  42.7735849 103.2516131 118.9972385  42.9425996 100.5151100
 119.2327974  43.0871195  99.6877950 119.1461948  43.7068404 100.9082613
 119.0538188  43.0765051 100.4514704 105.9918462  39.4259489 109.8800321
 106.7158434  39.4112520 110.3665216 106.0934599  40.1354845 109.3822289
 106.1136671  39.5284193 109.8779108 120.8262841  41.7827662  98.3520704
 121.1571058  42.3155302  97.7460798 121.3995929  41.8366550  99.0082655
 120.9596520  41.8697231  98.3598485 116.0394730  39.6292565  99.0344284
 116.1341585  40.3681859  99.4883909 115.4153574  39.2010041  99.4678848
 115.9603761  39.6753886  99.1652431 114.2947204  42.8078778 109.6834565
 114.8686066  42.1706022 109.8383128 114.2162008  42.8082860 108.8144222
 114.3680439  42.7143889 109.5780975 102.8943621  39.5867987 103.5217279
 103.4717123  39.4504438 104.1609524 102.1957682  39.1303771 103.7762863
 102.8764642  39.4990253 103.6539568 116.2917752  41.4741305  92.2681236
 116.2097914  41.5443492  93.1336223 116.9297472  42.0371049  92.0764976
 116.3737589  41.5680276  92.3671185 109.6510923  41.2402043 101.7355762
 109.3930167  40.4073778 101.7087061 109.7059406  41.4659656 100.8948262
 109.6210701  41.1499814 101.6075899 114.7311973  33.3430493 101.8359855
 114.0268300  32.8539679 101.9943774 114.7796947  33.3552968 100.9648299
 114.6342025  33.2720141 101.7299194 108.6245635  38.7939805 102.2220657
 108.0495226  38.9531974 102.8584618 108.2481311  38.1575214 101.7589107
 108.4848447  38.7237618 102.2475215 112.2918924  37.2663155 107.0813035
 111.9033356  36.8417372 106.4265226 111.6273622  37.5145304 107.5890062
 112.1365851  37.2401876 107.0600903 121.9342193  37.0238159  99.8560865
 121.6778758  36.2118101  99.6658748 122.7771507  37.0315726  99.6291053
 122.0208218  36.9050157  99.7945682  98.3702454  38.4379880 100.2365097
  98.4562706  38.0611748 101.0178627  98.9978251  38.0640326  99.7585056
  98.4759005  38.3265362 100.2810575 113.3957862  41.4961759  95.2789842
 114.2098501  41.7876652  95.1672613 113.3317003  40.8421621  94.7048135
 113.5060601  41.4426954  95.1778679 109.2665770  44.9683277 100.4062154
 109.9039717  44.7295024 100.9513948 109.6920842  45.1720435  99.6715315
 109.4241936  44.9634287 100.3779312 103.9578413  47.2071613 104.2896458
 103.9982558  47.4786464 103.4616238 104.5172937  47.7313521 104.7054246
 104.0461759  47.3247368 104.2288346 109.9068585  40.1885566  94.7437044
 110.2913738  39.9693273  95.4953589 109.6580206  41.0148512  94.8738120
 109.9270658  40.2783713  94.8738120 120.6403773  43.9632204 105.7547712
 120.3349590  44.6960261 106.1161028 119.9209988  43.5570134 105.4740498
 120.4891115  44.0113937 105.7660849 111.6487242  45.4455699 102.0855940
 111.7226250  45.2830871 102.9397790 112.4656748  45.6345889 101.8416422
 111.7803601  45.4492442 102.1753966 105.4092999  45.7913562  99.1150384
 104.5831117  46.0375299  98.9884663 105.4704990  45.7125643  99.9812442
 105.2967166  45.8158511  99.2239328 107.6269023  31.8582503 100.0745824
 106.7591448  31.9305103 100.1403433 107.9144227  32.6604582 100.2633799
 107.5408771  31.9876650 100.1120591 110.1891828  48.4090442  96.8169414
 110.4790126  48.0179424  96.0928640 110.9195309  48.5907147  97.2574689
 110.3398712  48.3784256  96.7752221 110.7786573  43.2108188 107.9022544
 110.2798267  43.9223956 107.9807433 111.5886797  43.5308855 107.8640707
 110.8242680  43.3635037 107.9079113 108.1297743  50.3857825  99.8829564
 107.9098039  50.0955179 100.6756231 107.9092265  49.7272780  99.3547476
 108.0645338  50.2457533  99.9218472 107.0414691  42.4731141 102.1485265
 106.7527939  41.8468612 102.6830993 107.9098039  42.4151429 102.2149946
 107.1274943  42.3718685 102.2376220 117.8292588  37.6165925 102.4667247
 117.4857354  36.8956260 102.8174497 117.9285631  37.4079776 101.6245605
 117.7934631  37.4790128 102.3938927 110.2965699  51.7587215  98.6660256
 110.9489757  51.2263657  98.8951282 109.5991308  51.4055867  99.0528130
 110.2896417  51.6276738  98.7572424 107.2446964  44.1126392  98.0727630
 107.9992932  44.4939431  98.2863093 106.6517577  44.5637536  98.5274327
 107.2683678  44.2355220  98.1710509 118.2905618  44.0791629  98.0091235
 118.8563650  44.7384839  97.9249778 117.6433521  44.4241327  98.4807637
 118.2784374  44.2273570  98.0663992 108.5645191  45.2834954 103.4467746
 108.0425944  45.4235245 104.1319610 108.9519211  44.5245618 103.6369863
 108.5448892  45.1920477 103.5768822 105.5536375  35.3340762  97.5162700
 105.2661170  34.9642033  96.7794648 106.2406843  35.8035618  97.2546405
 105.6125272  35.3487732  97.3677776 114.7612196  47.0230413  97.4328314
 114.5198872  46.2898274  97.0255379 114.9413529  47.5717270  96.7794648
 114.7519820  46.9952804  97.2758537 109.9911516  42.3138973  98.8449237
 109.7954299  42.9213707  98.2509540 110.2145862  41.6206917  98.3640911
 109.9946157  42.3016498  98.6865318 108.3890046  39.1993711  98.9630105
 109.1112698  39.3634869  98.5033911 107.9098039  39.9203375  98.8569445
 108.4253777  39.3291940  98.8795719 116.3483554  35.5357509 104.3426790
 115.5094654  35.5618788 104.1065053 116.4187921  36.1828245 104.9232137
 116.2351947  35.6353635 104.3935907 106.0397663  41.6051783 108.0684245
 106.5518760  41.8836036 107.4193005 105.7534006  42.3441077 108.4347058
 106.0732526  41.7554137 108.0274123 114.7952832  32.4342886  99.0754406
 115.4979185  32.2350635  98.5974364 114.5297021  31.6618829  99.3823249
 114.8599464  32.2905852  99.0499848 120.2241078  40.7425496 101.6288032
 120.1375052  40.8980922 102.4822811 119.7691558  41.3863572 101.2547437
 120.1444334  40.8601251 101.6995139 103.1264569  36.1121975  98.3647981
 103.2280706  36.9148136  98.6928957 103.9220456  35.9109311  98.0671062
 103.2592475  36.2007874  98.3683337 109.5581388  33.6978172 108.1285287
 109.3664585  33.7133306 108.9784710 110.4079984  33.8941846 108.1051941
 109.6557110  33.7292523 108.2508581 103.9428301  36.2269153 106.1069103
 103.8013793  35.3753094 106.2313611 104.2268865  36.2697814 105.2831309
 103.9636147  36.1068903 106.0036727 114.0966894  38.0636243 100.2513591
 113.8501608  37.9831994 101.0850380 114.4252017  37.2789711 100.0576119
 114.1088137  37.9362509 100.3461114 117.9914943  44.7719603 104.0400373
 117.8529302  45.4700648 104.5449115 117.2114940  44.6168259 103.6836554
 117.8558169  44.8519769 104.0626647 110.0563921  40.7992962 109.6636574
 110.2007297  41.3794170 109.0279684 110.4039570  41.1769259 110.3686429
 110.1291382  40.9413666 109.6735569 112.2283838  39.9983130 107.4461706
 111.4807152  40.1914145 107.0409984 112.3825364  39.1728350 107.2085827
 112.1406266  39.9048242 107.3507112 109.1291676  48.9895734 106.5297601
 109.2781240  48.4298649 105.8771006 109.9091678  49.0687735 106.9130120
 109.2665770  48.9181299 106.4894550 119.4868315  44.1297856  94.8016872
 119.1075124  43.3434994  94.7946161 118.8234561  44.6784713  94.6588516
 119.3326790  44.0942680  94.7797669 111.6544977  49.1610376 107.8082092
 111.5788648  48.4919187 108.3632880 111.5834836  49.8628165 108.3222758
 111.6325584  49.1655284 107.9658940 104.7118607  34.1399501 109.4246553
 104.1760796  33.5279859 109.7407321 104.7736371  34.7147637 110.0780220
 104.6414239  34.1346428 109.5681980 112.3115224  47.6811375  98.6405698
 113.0765115  47.4121019  98.3188362 112.2093314  47.1961386  99.3575761
 112.4096719  47.5700940  98.6985526 110.3467993  35.8835785 105.1798934
 109.5564068  35.7027245 105.5016270 110.7428616  35.1062737 105.1629228
 110.2884870  35.7423246 105.2251482 114.8333884  44.7123559  90.6205647
 115.6006869  44.7723684  90.2111499 114.3865193  44.1404001  90.1361966
 114.8807311  44.6360135  90.4883358 115.7311680  43.5178215 102.9058380
 115.0556681  43.2863447 103.4071767 115.7404056  42.9099398 102.2800485
 115.6330184  43.3937140 102.8874532 112.8605824  38.3596044 109.6622433
 112.7964965  39.2206000 109.5342569 113.0003011  38.0428037 108.8617984
 112.8721294  38.4396211 109.5250646 117.7328414  46.3743347  95.1368558
 117.8148252  47.1810334  94.8130009 118.2178156  46.3939307  95.8609331
 117.8165572  46.4964010  95.1955456 111.5424917  41.0528183 103.8038636
 111.1187167  41.2532682 103.0677654 111.3669773  40.2057031 103.9162935
 111.4535798  40.9576965 103.7112326 111.0436611  52.5678696 106.2660093
 111.5332541  51.8689485 106.0835757 110.4720843  52.2702566 106.8536150
 111.0321141  52.4204920 106.3261134 106.8307362  41.5480235  99.2366608
 106.9871982  41.4827038 100.0922600 107.1707956  42.3228787  99.0245288
 106.9040597  41.6529433  99.3321202 113.3686507  40.9238118  98.1059971
 113.9102053  40.4208499  98.5698592 113.6833066  40.8703313  97.2949457
 113.4950904  40.8417539  98.0543783 111.5372957  46.3155470  95.3899999
 111.6065777  45.4570008  95.5293000 112.3161412  46.5327351  95.0619024
 111.6625807  46.2208334  95.3617157 115.9280444  48.7393171  99.6036493
 115.5360236  48.4359886  98.8859359 116.0833517  49.5762261  99.4141446
 115.8934034  48.8177008  99.4692990 103.4041624  38.7315185  99.5527375
 103.7840589  39.1499730  98.8887643 102.8296989  39.3128641  99.8596219
 103.3752949  38.8793044  99.5004116 116.0920119  45.3043160  99.5442523
 115.7334774  45.4757803 100.3206556 115.6058830  45.7656366  98.9870522
 115.9678816  45.3982131  99.5767792 113.9090505  28.9274358 103.1469615
 113.0384063  28.9013080 103.1002924 114.1630846  28.7551551 102.3295460
 113.8184065  28.8984502 103.0189751 110.8808485  40.9842325  92.0842758
 111.1701009  41.7607208  92.3586332 110.9680283  40.4731057  92.7857257
 110.9362741  41.0234244  92.2285255 110.9339646  30.9380587 104.6043085
 110.4178134  30.2460778 104.7294664 110.3733574  31.6051364 104.5505684
 110.7746159  30.9343845 104.6149151 117.2524858  46.1947056 110.4909724
 117.8904579  45.7007252 110.1572180 116.6098950  46.1224456 109.9061951
 117.2519085  46.1106064 110.3552079 118.9781859  38.0436202 105.0575640
 118.5509467  37.9562550 104.3023739 118.3407912  38.1513977 105.6430484
 118.8211466  38.0468862 105.0321081 117.3079115  46.8866864 107.1315081
 118.0971493  46.5355929 107.2517162 117.4822713  47.7003253 106.8691715
 117.4499397  46.9552721 107.1102949 107.0472425  40.2975590 104.1842870
 106.2060432  40.1979464 104.3921764 107.2562433  41.0671070 104.5357190
 106.9537118  40.3967633 104.2670185 104.5247992  37.9195127 102.0127620
 104.1304690  37.9938139 101.2377730 103.9688109  38.3053073 102.5635982
 104.3850805  37.9876901 101.9795280 116.1612939  30.8976421 101.6931499
 116.3662533  30.8298729 102.5388496 115.8339363  31.7035242 101.6252677
 116.1428187  31.0062361 101.8091154 110.8589090  38.2256989 103.4340467
 110.5552228  37.6712977 104.0350875 110.1568511  38.4049199 102.9468501
 110.7105300  38.1701771 103.4510173 109.9155187  35.5357509  97.9985169
 110.1914922  34.8176421  97.5862737 110.5153857  36.1342429  97.7906275
 110.0448452  35.5177880  97.9065930 108.9207441  45.4406710 108.1412565
 108.8127796  45.4508772 109.0074623 109.1303223  46.2661490 107.9517519
 108.9357552  45.5647785 108.2416657 113.4165708  33.2071026  96.2731764
 113.8709454  33.3781587  96.9979609 113.8905754  32.5939137  95.8729540
 113.5534028  33.1421912  96.3205526 106.9381233  42.6919352 105.6034503
 106.3469167  43.3328850 105.5737518 107.7002257  43.1156969 105.5765802
 106.9629494  42.8495191 105.5949650 107.3341856  33.8521350 106.2702520
 107.7943338  33.9260279 107.0077644 107.3797963  34.6502604 105.9202342
 107.4092411  33.9815497 106.3275277 116.6970750  48.1428664 103.0366527
 116.4990438  48.6319478 102.3422738 116.0758461  48.3469905 103.6150660
 116.5758314  48.2445202 103.0189750 110.7578728  39.9113561  97.3776771
 111.5020773  40.2987837  97.6159721 110.9039424  39.0670986  97.5417259
 110.8889313  39.8444033  97.4370741 112.6758303  31.7063820 102.4108633
 111.8294348  31.8786627 102.2849983 112.6729436  30.9013163 102.7474461
 112.5505453  31.6124848 102.4419760 113.7456604  35.4839034 103.2770691
 113.2716558  34.9580796 103.7876002 114.1174740  34.9368507 102.7085552
 113.7306493  35.3255031 103.2685838 104.1229634  37.4810541 108.6454236
 104.9855247  37.3806250 108.5591566 103.7921417  36.9005250 108.0839809
 104.2014830  37.3802167 108.5499642 115.6740103  36.3775589  96.3396444
 115.1463122  36.4604333  95.6502153 116.1335812  37.1193460  96.3361089
 115.6641954  36.4996251  96.2371140 107.4831420  36.3052990 105.3064655
 106.8584490  36.3171382 104.6990607 107.1477015  36.7813165 105.9555895
 107.3416912  36.3771507 105.3121223 107.6673169  34.6478108  91.3637340
 107.3185973  35.2997833  91.8268889 107.1869614  34.6335221  90.6361211
 107.5443413  34.7421162  91.3248431 104.1957095  44.3653450 106.7468419
 103.6657020  43.6745889 106.7963394 104.4682189  44.3563635 105.9181127
 104.1581818  44.2620582 106.6315835 115.2277186  44.9479152  95.4706101
 115.9511385  45.4137265  95.3270675 114.7877777  45.0152762  94.7203698
 115.2692878  45.0262989  95.3390883 114.3963341  41.8076694 106.7206790
 113.7820334  41.2634745 107.0155426 114.9130626  41.2940931 106.2412607
 114.3819003  41.6513103 106.6931019 113.6359638  42.8780964 104.4551089
 113.2087246  42.2530683 104.0216525 113.6284583  42.5955886 105.2810096
 113.5718779  42.7433745 104.5130917 106.7522165  37.9146137 107.5239523
 106.9115652  37.1589462 107.9291245 106.5715059  38.4637077 108.1780261
 106.7487524  37.8839951 107.6802229 111.9645348  33.7549719 104.6693623
 111.9887835  33.2209831 103.9806403 112.2156821  33.2467028 105.3319214
 112.0055267  33.6010623 104.6658268  99.4752938  41.0381214 104.1036767
  99.3696387  40.9928058 103.2388851  98.7253158  41.3834994 104.3851052
  99.3488541  41.0822122 104.0174097 108.2446670  32.4820537 104.0499367
 108.2845042  32.9829744 104.7634075 107.4196335  32.5730931 103.7805290
 108.1286196  32.5702353 104.1149906 110.4276283  42.0481277 112.1519662
 109.5771914  42.1852991 112.2877307 110.5904411  41.3145055 112.5967364
 110.3260147  41.9595378 112.2375261 109.6661034  38.9981047 106.3473266
 108.8352963  39.1654865 106.1408515 109.6112551  38.6216998 107.1322152
 109.5350448  38.9670778 106.4321795 108.0397077  37.2736639  96.8763384
 108.1800038  37.7709103  97.5792025 108.5379610  36.5722933  97.0177598
 108.1338158  37.2438617  97.0014963 108.0697300  38.1403750  94.2055961
 108.7042379  38.7364175  94.1405423 108.1522911  37.8407207  95.0201831
 108.1753851  38.1844658  94.3159048 109.6476283  34.0717725  94.1801403
 109.9692124  33.5920807  93.5260665 109.9103226  34.8817371  93.9892215
 109.7342308  34.1207623  94.0556895 112.8773255  45.0936599 107.7000219
 112.3698346  45.6472446 108.1440850 112.5799902  45.1544889 106.8818994
 112.7578140  45.1842911 107.6448676 104.5750288  40.3371590  97.4745507
 105.0842517  40.9336098  97.8556813 105.0484560  40.0697564  96.7921927
 104.7193663  40.3857406  97.4300030 115.4881036  49.0099857  95.6304163
 114.7710345  48.8360719  95.1651400 116.1387773  48.7752429  95.0979649
 115.4782886  48.9495650  95.4833380 113.4829660  29.9305019  99.9515459
 112.8397978  29.7802665 100.5200598 113.1429067  29.6847364  99.1864564
 113.3374738  29.8717141  99.9218474 118.0729007  37.8864446  99.3745468
 117.4020197  38.4294148  99.2458533 118.7668757  38.3559301  99.1327162
 118.0757874  38.0362717  99.3200995 112.1215741  50.0261158 104.6057226
 111.8981395  49.2679987 104.9741252 111.6325584  50.0559179 103.8837666
 112.0159190  49.9183382 104.5533967 118.2357134  34.3420329 102.2835841
 118.5884744  33.9150052 102.9581640 117.3771936  34.2571173 102.4136917
 118.1606579  34.2665070 102.4030851 106.9340819  36.9727849 100.3418687
 106.2152808  37.3891981 100.6091551 107.3053182  37.5382088  99.7910326
 106.8832751  37.1177130 100.3001494 110.7694198  50.2461616 102.0594311
 110.3554596  49.5835746 101.6698152 111.4541572  50.3939474 101.5390005
 110.8092569  50.1702274 101.9250808 114.1359492  49.4051701 102.8117927
 113.7375775  49.5153971 102.0438747 113.5210711  49.6133767 103.3944487
 113.9858381  49.4525269 102.7849226 112.7087394  36.0125849  95.6792067
 112.1152233  36.3342845  95.1276634 112.7462671  35.1666944  95.4713173
 112.6261783  35.9350177  95.5674838 115.5845210  35.9705353  99.1093817
 115.3558903  35.9938055  98.2672175 115.8443286  35.1462820  99.2288828
 115.5891398  35.8521433  99.0019015 109.8664439  37.8239826 108.7118917
 109.3543342  37.2161009 109.0703949 109.6943935  38.5396419 109.1792893
 109.7654076  37.8403126 108.8335141 104.7130153  36.2677402 111.3621279
 104.5432744  36.9278776 110.8169486 104.2696103  36.4783963 112.0833768
 104.6229487  36.3963384 111.3882909 108.6389973  34.5081900 100.4048013
 109.1147339  34.8698979  99.7698194 108.1378572  35.1638367 100.6848156
 108.6355332  34.6576088 100.3524754 121.8701334  43.9803668  96.1961018
 122.2534940  44.7295024  96.4259115 121.0745448  44.2269487  95.9373007
 121.8095117  44.1273362  96.1918591 101.6132218  39.1724267 106.6209769
 101.0658937  38.5024913 106.7390637 102.4024596  38.8054115 106.6853236
 101.6484402  39.0189254 106.6478469 110.6816626  36.6523099  93.7721397
 111.0615591  36.6702729  92.9872511 109.9409222  37.0977088  93.6512244
 110.6285464  36.7204874  93.6384965 118.3101916  34.9605291  99.3596975
 118.3096143  34.8053947 100.2181252 118.1058097  35.8068278  99.3038361
 118.2801694  35.0625911  99.4784915 100.3719187  38.3845075 103.7755792
 100.1940949  37.9321684 104.5010708 100.0838210  39.1871236 103.9594270
 100.3032141  38.4367633 103.9099295 116.0342769  39.6402792 103.0133182
 116.5296434  38.9225787 102.9737203 115.2242544  39.3373590 102.8987669
 115.9886662  39.4900439 102.9906908 111.4801380  43.4900606  95.1630187
 110.6712703  43.1667279  95.1163496 111.9876289  42.7833828  95.0958435
 111.4351047  43.3381922  95.1460481 102.1091657  40.9172799 100.8877551
 101.2437177  40.9058489 100.7760322 102.2090473  40.7303022 101.7348690
 101.9965824  40.8878860 100.9966495 118.0994587  42.3906480 105.7010311
 118.5249659  41.8680902 105.1480736 117.7351507  42.9887317 105.1798934
 118.1081190  42.4016707 105.5419321 107.7348667  50.6870697 104.4607657
 108.0495226  51.5007086 104.4685438 108.1442081  50.3020916 105.1289816
 107.8416765  50.7499400 104.5611748 114.6873187  46.1040744 102.0311469
 115.1584365  46.8181007 102.2001454 115.0233365  45.5039494 102.5671338
 114.8068302  46.1212208 102.1343844 115.3247133  45.8958678 108.7939161
 114.7768079  45.2716562 108.5259226 115.7860162  46.0852950 108.0783241
 115.3114343  45.8317728 108.6489592 110.6735797  32.8784628  96.4549028
 111.4951491  33.0482940  96.2130723 110.2105448  33.0331889  95.7315326
 110.7266959  32.9266361  96.3120673 109.2631129  30.8727390 107.2347457
 109.8075542  30.5318517 107.8251799 109.3168064  31.7312851 107.3768742
 109.3520248  30.9482649 107.3429330 105.0761687  44.6343806 104.1086265
 105.6806545  44.5939640 103.4800086 104.8689000  45.4814958 104.1390321
 105.1350585  44.7531808 104.0202381 114.8905459  46.9009751 105.3248502
 115.7103833  46.7572717 105.5864798 114.6099537  47.5255950 105.8664940
 114.9702203  46.9720103 105.4436442 100.3112970  43.6178423 103.9785188
 100.2137248  42.8074695 104.2875245 101.0941839  43.5970217 103.5931456
 100.4129106  43.4945514 103.9672051 124.5618795  53.6450254 103.0444309
 123.7056690  53.8058752 103.0953426 124.6086448  52.7742318 103.0649370
 124.4417906  53.5401056 103.0550375 118.9459934  63.1812972  98.8081541
 118.1942834  62.8028510  98.5797586 119.3945946  63.2131405  98.0600351
 118.9009601  63.1298579  98.6639043 124.3984894  63.6038341  94.2367088
 124.0636263  64.2815263  93.8011310 124.9111765  63.2143652  93.6483959
 124.4250475  63.6462919  94.0853879 123.9389186  65.5552610 100.1778199
 124.3228565  66.1239508  99.6382975 123.8748327  64.8302120  99.6984015
 123.9862613  65.5328073 100.0272062 120.5244691  63.1931364 101.0744313
 120.6255053  62.3831718 101.3841441 119.9286436  63.0988310 100.4443992
 120.4517229  63.0596392 101.0270552 120.3645430  68.1108953 102.4759169
 121.0082886  68.5522117 102.8655328 120.6901686  67.3062379 102.3889428
 120.5077259  68.0574148 102.5204647 113.7209735  59.2151650 100.6996647
 113.4859919  58.3819303 100.5928916 113.8595376  59.4956316  99.8857848
 113.7065397  59.1335154 100.5639002 116.0199822  51.3837381 103.5980955
 115.4004854  50.7930028 103.4290969 115.9183686  51.9748816 102.9645278
 115.9137498  51.3841463 103.4785944 121.0666010  61.1220928  97.8479031
 121.3881851  61.6626135  97.2440339 121.7138106  60.5517699  97.9801321
 121.2092065  61.1180103  97.7786066 123.1167718  53.1236923  97.9313418
 123.8147883  53.3025050  98.4234881 123.4320050  52.6007262  97.3083807
 123.2663055  53.0730695  97.9115428 115.7468955  54.9289663 105.8424524
 115.6227652  55.5152108 106.4774342 116.3987240  54.4349858 106.1436798
 115.8242605  54.9428467 105.9810453 123.3055653  59.5107368  97.9193209
 123.7449289  58.9024468  98.3647982 123.1560316  59.1314741  97.1478674
 123.3477119  59.3645839  97.8712376 120.7727296  58.1051380 105.1212035
 121.4176299  57.6123823 104.8022983 121.0129073  58.2476166 105.9478113
 120.9037881  58.0528822 105.1961568 123.3113388  60.9506285 104.7718927
 123.5936631  60.1557691 104.5505683 124.0399548  61.4286873 104.7923988
 123.4602951  60.9040882 104.7421942 121.2894582  48.4929319 102.0134692
 120.9597912  48.9440463 101.3438391 120.6139583  48.4145483 102.5607699
 121.1405018  48.5480455 101.9957916 119.7283031  58.3782560  95.1729181
 119.1440246  58.8832591  95.5795045 119.3253126  58.1524947  94.4325773
 119.5822335  58.4190808  95.1234207 115.2827060  64.0937321 101.9752853
 114.7994638  64.8187811 101.9512437 116.0950378  64.3913451 102.0863011
 115.3317807  64.2439675 101.9880132 121.3541214  62.8869502 104.5802667
 120.8368155  62.5276917 103.9763976 122.0515605  62.3631676 104.5908734
 121.3806795  62.7567190 104.4932926 125.0104806  63.3364316 110.5418841
 125.0988151  63.1490456 111.3897051 125.4394518  62.6901745 110.1423687
 125.0866908  63.2127324 110.6090592 122.5775265  62.6195476 109.5236503
 122.0146100  62.2068086 110.0476164 123.3396289  62.5448381 109.9429646
 122.6069714  62.5472876 109.6629503 124.1860245  54.6248212  93.6498102
 124.4256249  54.8326196  92.8373445 124.5076086  53.8205721  93.7587047
 124.2697403  54.5362313  93.5458655 119.4950536  46.5541608  97.4957640
 120.2496504  46.9219925  97.2574690 119.3178070  46.9281162  98.2636820
 119.5805014  46.6639796  97.5742529 118.1371257  64.6093497 102.1273133
 118.8391836  64.0945486 102.1845889 118.0568740  64.9367648 102.9320008
 118.2295017  64.5807723 102.2545925 119.1850163  54.8469084 111.2553548
 119.3570667  54.7374979 112.1038829 119.7219521  55.4923489 111.0184740
 119.2895167  54.9261086 111.3458645 117.8507600  48.9611927  94.1935753
 117.6683173  49.1783808  93.3676746 118.7133213  49.0750939  94.2494367
 117.9512190  49.0101825  94.0790240 117.4622032  60.7999849 101.6358741
 118.3010932  61.0322782 101.6832502 117.4933801  59.9304160 101.5665776
 117.5903750  60.7056795 101.6323386 118.0874735  61.2200724 105.9372046
 118.6272960  61.0771855 106.6075419 117.4044682  61.6197475 106.3056073
 118.0666889  61.2580395 106.0906468 123.5307319  45.9638337  97.2284777
 124.2593480  45.7854292  96.7822933 123.6202212  46.8056417  97.4391955
 123.6513981  46.0622216  97.1938294 113.4911880  57.4401015 106.0906468
 113.2250296  56.6240132 106.2497458 113.5050444  57.4854171 105.2201983
 113.4536603  57.3257920 105.9859950 117.3969627  52.2386099  92.7058226
 116.6827804  51.9524279  93.1180659 117.8813596  52.5782725  93.3464614
 117.3628991  52.2467749  92.8613861 118.2410487  50.9779393 108.7373476
 117.5482283  50.5076373 108.9834207 118.8570814  50.7517698 109.3115183
 118.2295017  50.8746525 108.8582628 125.2795258  64.6783437 106.8529080
 124.4810504  64.4382937 107.1102948 125.7281270  64.7297830 107.5996127
 125.2269869  64.6505828 107.0014004 124.5716945  60.7416053  93.0820034
 124.9868094  60.4101077  92.3904530 123.7408875  60.5084956  92.9540171
 124.5104954  60.6587309  92.9610882 113.9005294  58.2259794 103.3718212
 113.7180867  58.2006680 102.5190504 114.6354963  58.6958732 103.4107121
 113.9819358  58.2921157 103.2516131 116.9651046  54.9444797 109.8800321
 117.6891018  54.9297828 110.3665216 117.0667182  55.6540152 109.3822289
 117.0869255  55.0469500 109.8779108 125.2679788  58.3264086 109.6834565
 125.8418650  57.6891330 109.8383128 125.1894592  58.3268168 108.8144222
 125.3413023  58.2329197 109.5780975 113.8676204  55.1053295 103.5217279
 114.4449707  54.9689746 104.1609524 113.1690266  54.6489079 103.7762863
 113.8497226  55.0175561 103.6539568 120.6243506  56.7587351 101.7355762
 120.3662751  55.9259086 101.7087061 120.6791989  56.9844964 100.8948262
 120.5943284  56.6685122 101.6075899 125.7044557  48.8615801 101.8359855
 125.0000883  48.3724987 101.9943774 125.7529531  48.8738276 100.9648299
 125.6074608  48.7905449 101.7299194 119.5978219  54.3125113 102.2220657
 119.0227810  54.4717282 102.8584618 119.2213895  53.6760522 101.7589107
 119.4581031  54.2422926 102.2475215 123.2651507  52.7848462 107.0813035
 122.8765940  52.3602680 106.4265226 122.6006206  53.0330612 107.5890062
 123.1098435  52.7587184 107.0600903 109.3435037  53.9565188 100.2365097
 109.4295289  53.5797056 101.0178627 109.9710835  53.5825634  99.7585056
 109.4491588  53.8450670 100.2810575 124.3690446  57.0147067  95.2789842
 125.1831084  57.3061960  95.1672613 124.3049587  56.3606929  94.7048135
 124.4793185  56.9612262  95.1778679 120.2398354  60.4868584 100.4062154
 120.8772301  60.2480332 100.9513948 120.6653425  60.6905743  99.6715315
 120.3974520  60.4819595 100.3779312 114.9310996  62.7256921 104.2896458
 114.9715141  62.9971772 103.4616238 115.4905520  63.2498829 104.7054246
 115.0194342  62.8432676 104.2288346 120.8801169  55.7070874  94.7437044
 121.2646322  55.4878581  95.4953589 120.6312789  56.5333820  94.8738120
 120.9003241  55.7969021  94.8738120 122.6219826  60.9641007 102.0855940
 122.6958834  60.8016179 102.9397790 123.4389332  61.1531197 101.8416422
 122.7536184  60.9677749 102.1753966 116.3825582  61.3098870  99.1150384
 115.5563700  61.5560607  98.9884663 116.4437574  61.2310951  99.9812442
 116.2699749  61.3343819  99.2239328 118.6001606  47.3767811 100.0745824
 117.7324032  47.4490410 100.1403433 118.8876810  48.1789890 100.2633799
 118.5141354  47.5061958 100.1120591 121.1624411  63.9275750  96.8169414
 121.4522710  63.5364732  96.0928640 121.8927892  64.1092455  97.2574689
 121.3131296  63.8969564  96.7752221 121.7519157  58.7293496 107.9022544
 121.2530850  59.4409264 107.9807433 122.5619381  59.0494163 107.8640707
 121.7975263  58.8820345 107.9079113 119.1030327  65.9043133  99.8829564
 118.8830622  65.6140487 100.6756231 118.8824849  65.2458088  99.3547476
 119.0377921  65.7642841  99.9218472 118.0147274  57.9916449 102.1485265
 117.7260523  57.3653920 102.6830993 118.8830622  57.9336737 102.2149946
 118.1007526  57.8903993 102.2376220 121.2698283  67.2772523  98.6660256
 121.9222341  66.7448965  98.8951282 120.5723891  66.9241175  99.0528130
 121.2629001  67.1462046  98.7572424 118.2179548  59.6311700  98.0727630
 118.9725516  60.0124739  98.2863093 117.6250160  60.0822844  98.5274327
 118.2416261  59.7540528  98.1710509 119.5377774  60.8020262 103.4467746
 119.0158528  60.9420553 104.1319610 119.9251795  60.0430926 103.6369863
 119.5181475  60.7105785 103.5768822 116.5268958  50.8526070  97.5162700
 116.2393754  50.4827341  96.7794648 117.2139426  51.3220926  97.2546405
 116.5857856  50.8673040  97.3677776 120.9644100  57.8324281  98.8449237
 120.7686882  58.4399015  98.2509540 121.1878445  57.1392225  98.3640911
 120.9678741  57.8201806  98.6865318 119.3622630  54.7179018  98.9630105
 120.0845282  54.8820177  98.5033911 118.8830623  55.4388683  98.8569445
 119.3986361  54.8477248  98.8795719 117.0130247  57.1237091 108.0684245
 117.5251343  57.4021344 107.4193005 116.7266589  57.8626385 108.4347058
 117.0465110  57.2739445 108.0274123 114.0997153  51.6307283  98.3647981
 114.2013289  52.4333444  98.6928957 114.8953040  51.4294619  98.0671062
 114.2325058  51.7193182  98.3683337 120.5313972  49.2163479 108.1285287
 120.3397169  49.2318614 108.9784710 121.3812568  49.4127154 108.1051941
 120.6289694  49.2477831 108.2508581 114.9160885  51.7454461 106.1069103
 114.7746377  50.8938402 106.2313611 115.2001448  51.7883122 105.2831309
 114.9368731  51.6254211 106.0036727 125.0699477  53.5821551 100.2513591
 124.8234192  53.5017302 101.0850380 125.3984600  52.7975019 100.0576119
 125.0820721  53.4547816 100.3461114 121.0296505  56.3178270 109.6636574
 121.1739880  56.8979478 109.0279684 121.3772153  56.6954566 110.3686429
 121.1023966  56.4598974 109.6735569 123.2016422  55.5168438 107.4461706
 122.4539736  55.7099452 107.0409984 123.3557947  54.6913658 107.2085827
 123.1138850  55.4233549 107.3507112 120.1024260  64.5081042 106.5297601
 120.2513823  63.9483957 105.8771006 120.8824262  64.5873043 106.9130120
 120.2398353  64.4366607 106.4894550 122.6277560  64.6795684 107.8082092
 122.5521231  64.0104495 108.3632880 122.5567419  65.3813473 108.3222758
 122.6058167  64.6840592 107.9658940 115.6851190  49.6584809 109.4246553
 115.1493380  49.0465167 109.7407321 115.7468955  50.2332945 110.0780220
 115.6146823  49.6531736 109.5681980 123.2847807  63.1996683  98.6405698
 124.0497698  62.9306327  98.3188362 123.1825897  62.7146694  99.3575761
 123.3829303  63.0886248  98.6985526 121.3200577  51.4021093 105.1798934
 120.5296652  51.2212553 105.5016270 121.7161200  50.6248045 105.1629228
 121.2617453  51.2608554 105.2251482 123.8338407  53.8781352 109.6622433
 123.7697548  54.7391308 109.5342569 123.9735595  53.5613345 108.8617984
 123.8453877  53.9581518 109.5250646 122.5157501  56.5713491 103.8038636
 122.0919750  56.7717990 103.0677654 122.3402356  55.7242339 103.9162935
 122.4268382  56.4762273 103.7112326 122.0169195  68.0864004 106.2660093
 122.5065125  67.3874793 106.0835757 121.4453427  67.7887874 106.8536150
 122.0053724  67.9390228 106.3261134 117.8039946  57.0665543  99.2366608
 117.9604565  57.0012345 100.0922600 118.1440539  57.8414095  99.0245288
 117.8773181  57.1714741  99.3321202 124.3419091  56.4423426  98.1059971
 124.8834636  55.9393807  98.5698592 124.6565650  56.3888621  97.2949457
 124.4683488  56.3602847  98.0543783 122.5105540  61.8340778  95.3899999
 122.5798361  60.9755316  95.5293000 123.2893996  62.0512659  95.0619024
 122.6358390  61.7393642  95.3617157 114.3774208  54.2500493  99.5527375
 114.7573172  54.6685038  98.8887643 113.8029572  54.8313949  99.8596219
 114.3485532  54.3978352  99.5004116 124.8823089  44.4459666 103.1469615
 124.0116647  44.4198387 103.1002924 125.1363430  44.2736859 102.3295460
 124.7916649  44.4169810 103.0189751 121.8541068  56.5027633  92.0842758
 122.1433593  57.2792516  92.3586332 121.9412867  55.9916365  92.7857257
 121.9095324  56.5419552  92.2285255 121.9072229  46.4565895 104.6043085
 121.3910718  45.7646086 104.7294664 121.3466158  47.1236672 104.5505684
 121.7478742  46.4529152 104.6149151 118.0205009  55.8160898 104.1842870
 117.1793016  55.7164772 104.3921764 118.2295017  56.5856378 104.5357190
 117.9269702  55.9152941 104.2670185 115.4980576  53.4380435 102.0127620
 115.1037274  53.5123447 101.2377730 114.9420693  53.8238381 102.5635982
 115.3583388  53.5062209 101.9795280 121.8321674  53.7442297 103.4340467
 121.5284811  53.1898285 104.0350875 121.1301095  53.9234507 102.9468501
 121.6837884  53.6887079 103.4510173 120.8887771  51.0542817  97.9985169
 121.1647505  50.3361729  97.5862737 121.4886440  51.6527737  97.7906275
 121.0181036  51.0363188  97.9065930 119.8940025  60.9592018 108.1412565
 119.7860380  60.9694080 109.0074623 120.1035806  61.7846798 107.9517519
 119.9090136  61.0833093 108.2416657 124.3898292  48.7256334  96.2731764
 124.8442038  48.8966895  96.9979609 124.8638337  48.1124445  95.8729540
 124.5266612  48.6607219  96.3205526 117.9113817  58.2104660 105.6034503
 117.3201750  58.8514158 105.5737518 118.6734840  58.6342277 105.5765802
 117.9362078  58.3680499 105.5949650 118.3074440  49.3706658 106.2702520
 118.7675921  49.4445587 107.0077644 118.3530546  50.1687912 105.9202342
 118.3824995  49.5000805 106.3275277 121.7311312  55.4298869  97.3776771
 122.4753356  55.8173145  97.6159721 121.8772008  54.5856294  97.5417259
 121.8621897  55.3629341  97.4370741 123.6490887  47.2249127 102.4108633
 122.8026932  47.3971935 102.2849983 123.6462019  46.4198471 102.7474461
 123.5238037  47.1310156 102.4419760 124.7189187  51.0024342 103.2770691
 124.2449142  50.4766104 103.7876002 125.0907323  50.4553815 102.7085552
 124.7039076  50.8440338 103.2685838 115.0962218  52.9995849 108.6454236
 115.9587831  52.8991558 108.5591566 114.7654001  52.4190558 108.0839809
 115.1747414  52.8987475 108.5499642 118.4564004  51.8238298 105.3064655
 117.8317074  51.8356690 104.6990607 118.1209598  52.2998473 105.9555895
 118.3149495  51.8956815 105.3121223 118.6405752  50.1663416  91.3637340
 118.2918557  50.8183141  91.8268889 118.1602198  50.1520529  90.6361211
 118.5175996  50.2606470  91.3248431 115.1689679  59.8838758 106.7468419
 114.6389604  59.1931197 106.7963394 115.4414772  59.8748943 105.9181127
 115.1314401  59.7805889 106.6315835 124.6092222  58.3966272 104.4551089
 124.1819830  57.7715991 104.0216525 124.6017166  58.1141194 105.2810096
 124.5451363  58.2619053 104.5130917 117.7254749  53.4331445 107.5239523
 117.8848236  52.6774770 107.9291245 117.5447642  53.9822385 108.1780261
 117.7220108  53.4025259 107.6802229 122.9377931  49.2735027 104.6693623
 122.9620419  48.7395139 103.9806403 123.1889405  48.7652336 105.3319214
 122.9787850  49.1195931 104.6658268 110.4485521  56.5566522 104.1036767
 110.3428970  56.5113366 103.2388851 109.6985741  56.9020302 104.3851052
 110.3221124  56.6007430 104.0174097 119.2179254  48.0005845 104.0499367
 119.2577625  48.5015052 104.7634075 118.3928918  48.0916239 103.7805290
 119.1018780  48.0887661 104.1149906 121.4008867  57.5666585 112.1519662
 120.5504497  57.7038299 112.2877307 121.5636994  56.8330363 112.5967364
 121.2992730  57.4780686 112.2375261 120.6393617  54.5166355 106.3473266
 119.8085547  54.6840173 106.1408515 120.5845134  54.1402306 107.1322152
 120.5083032  54.4856086 106.4321795 119.0129661  52.7921946  96.8763384
 119.1532622  53.2894411  97.5792025 119.5112194  52.0908241  97.0177598
 119.1070742  52.7623925  97.0014963 119.0429883  53.6589058  94.2055961
 119.6774963  54.2549483  94.1405423 119.1255494  53.3592515  95.0201831
 119.1486434  53.7029966  94.3159048 120.6208866  49.5903033  94.1801403
 120.9424707  49.1106115  93.5260665 120.8835810  50.4002679  93.9892215
 120.7074892  49.6392931  94.0556895 123.8505839  60.6121907 107.7000219
 123.3430930  61.1657754 108.1440850 123.5532485  60.6730197 106.8818994
 123.7310724  60.7028218 107.6448676 115.5482871  55.8556898  97.4745507
 116.0575101  56.4521406  97.8556813 116.0217143  55.5882872  96.7921927
 115.6926247  55.9042714  97.4300030 124.4562244  45.4490327  99.9515459
 123.8130562  45.2987973 100.5200598 124.1161651  45.2032672  99.1864564
 124.3107321  45.3902449  99.9218474 123.0948324  65.5446465 104.6057226
 122.8713979  64.7865295 104.9741252 122.6058167  65.5744487 103.8837666
 122.9891773  65.4368690 104.5533967 117.9073403  52.4913157 100.3418687
 117.1885392  52.9077289 100.6091551 118.2785765  53.0567396  99.7910326
 117.8565335  52.6362438 100.3001494 121.7426781  65.7646924 102.0594311
 121.3287180  65.1021054 101.6698152 122.4274155  65.9124782 101.5390005
 121.7825153  65.6887582 101.9250808 125.1092075  64.9237009 102.8117927
 124.7108358  65.0339279 102.0438747 124.4943295  65.1319075 103.3944487
 124.9590965  64.9710577 102.7849226 123.6819977  51.5311157  95.6792067
 123.0884817  51.8528153  95.1276634 123.7195255  50.6852252  95.4713173
 123.5994366  51.4535485  95.5674838 120.8397022  53.3425134 108.7118917
 120.3275925  52.7346317 109.0703949 120.6676518  54.0581727 109.1792893
 120.7386659  53.3588434 108.8335141 115.6862737  51.7862710 111.3621279
 115.5165327  52.4464084 110.8169486 115.2428687  51.9969271 112.0833768
 115.5962071  51.9148692 111.3882909 119.6122556  50.0267208 100.4048013
 120.0879923  50.3884287  99.7698194 119.1111156  50.6823675 100.6848156
 119.6087915  50.1761396 100.3524754 112.5864802  54.6909575 106.6209769
 112.0391521  54.0210221 106.7390637 113.3757180  54.3239423 106.6853236
 112.6216985  54.5374562 106.6478469 121.6549210  52.1708407  93.7721397
 122.0348174  52.1888036  92.9872511 120.9141806  52.6162396  93.6512244
 121.6018047  52.2390182  93.6384965 111.3451771  53.9030383 103.7755792
 111.1673532  53.4506992 104.5010708 111.0570793  54.7056544 103.9594270
 111.2764724  53.9552941 103.9099295 122.4533964  59.0085914  95.1630187
 121.6445286  58.6852587  95.1163496 122.9608872  58.3019136  95.0958435
 122.4083630  58.8567230  95.1460481 113.0824241  56.4358107 100.8877551
 112.2169760  56.4243797 100.7760322 113.1823057  56.2488330 101.7348690
 112.9698408  56.4064168 100.9966495 118.7081251  66.2056005 104.4607657
 119.0227810  67.0192394 104.4685438 119.1174664  65.8206224 105.1289816
 118.8149349  66.2684708 104.5611748 121.6468380  48.3969935  96.4549028
 122.4684075  48.5668248  96.2130723 121.1838031  48.5517196  95.7315326
 121.6999542  48.4451668  96.3120673 120.2363712  46.3912698 107.2347457
 120.7808125  46.0503825 107.8251799 120.2900648  47.2498159 107.3768742
 120.3252832  46.4667957 107.3429330 116.0494271  60.1529114 104.1086265
 116.6539128  60.1124948 103.4800086 115.8421583  61.0000266 104.1390321
 116.1083168  60.2717116 104.0202381 111.2845553  59.1363731 103.9785188
 111.1869831  58.3260003 104.2875245 112.0674423  59.1155525 103.5931456
 111.3861690  59.0130821 103.9672051 124.6942318  74.7336958 100.6996647
 124.4592503  73.9004611 100.5928916 124.8327959  75.0141624  99.8857848
 124.6797981  74.6520462 100.5639002 124.4644464  72.9586323 106.0906468
 124.1982879  72.1425440 106.2497458 124.4783028  73.0039478 105.2201983
 124.4269186  72.8443228 105.9859950 124.8737878  73.7445102 103.3718212
 124.6913451  73.7191988 102.5190504 125.6087546  74.2144040 103.4107121
 124.9551941  73.8106465 103.2516131 124.8408788  70.6238603 103.5217279
 125.4182290  70.4875054 104.1609524 124.1422850  70.1674387 103.7762863
 124.8229809  70.5360869 103.6539568 120.3167621  69.4750496 100.2365097
 120.4027873  69.0982364 101.0178627 120.9443419  69.1010941  99.7585056
 120.4224172  69.3635978 100.2810575 125.3506791  69.7685801  99.5527375
 125.7305756  70.1870346  98.8887643 124.7762156  70.3499257  99.8596219
 125.3218116  69.9163660  99.5004116 121.4218105  72.0751830 104.1036767
 121.3161554  72.0298674 103.2388851 120.6718325  72.4205610 104.3851052
 121.2953708  72.1192738 104.0174097 123.5597385  70.2094883 106.6209769
 123.0124105  69.5395529 106.7390637 124.3489763  69.8424731 106.6853236
 123.5949569  70.0559869 106.6478469 122.3184355  69.4215691 103.7755792
 122.1406116  68.9692300 104.5010708 122.0303377  70.2241852 103.9594270
 122.2497308  69.4738249 103.9099295 124.0556824  71.9543415 100.8877551
 123.1902344  71.9429105 100.7760322 124.1555640  71.7673637 101.7348690
 123.9430991  71.9249476 100.9966495 122.2578137  74.6549039 103.9785188
 122.1602415  73.8445311 104.2875245 123.0407006  74.6340833 103.5931456
 122.3594273  74.5316129 103.9672051  96.6945591   9.0820487  85.7421587
  95.9428491   8.7036025  85.5137633  97.1431603   9.1138920  84.9940398
  96.6495258   9.0306094  85.5979090 101.6874842  11.4560125  87.1118246
 102.0714222  12.0247024  86.5723021 101.6233984  10.7309635  86.6324062
 101.7348270  11.4335588  86.9612109  98.1131087  14.0116468  89.4099216
  98.7568542  14.4529632  89.7995374  98.4387342  13.2069894  89.3229475
  98.2562916  13.9581663  89.4544693  93.0312716   9.9944836  88.9092900
  92.5480295  10.7195326  88.8852483  93.8436035  10.2920966  89.0203058
  93.0803464  10.1447190  88.9220179  95.8856914  10.5101012  89.0613180
  96.5877493   9.9953001  89.1185936  95.8054397  10.8375164  89.8660055
  95.9780674  10.4815239  89.1885972  92.6796653   8.6264436  91.2236505
  92.7200798   8.8979287  90.3956284  93.2391177   9.1506344  91.6394293
  92.7679999   8.7440191  91.1628393  98.9110068   9.8283265  83.7509461
  99.2008367   9.4372247  83.0268687  99.6413549  10.0099970  84.1914736
  99.0616952   9.7977079  83.7092268  96.8515984  11.8050648  86.8169610
  96.6316279  11.5148003  87.6096277  96.6310506  11.1465603  86.2887523
  96.7863578  11.6650356  86.8558519  99.0183940  13.1780038  85.6000303
  99.6707998  12.6456480  85.8291329  98.3209548  12.8248690  85.9868177
  99.0114657  13.0469561  85.6912471  97.8509916  10.4088557  93.4637648
  97.9999480   9.8491473  92.8111052  98.6309918  10.4880559  93.8470167
  97.9884010  10.3374122  93.4234597 100.3763217  10.5803200  94.7422139
 100.3006888   9.9112010  95.2972927 100.3053076  11.2820988  95.2562805
 100.3543824  10.5848107  94.8998987  99.7654851  13.9871519  93.2000140
 100.2550782  13.2882309  93.0175804  99.1939084  13.6895389  93.7876197
  99.7539381  13.8397743  93.2601180 100.8433981  11.4453981  91.5397273
 100.6199635  10.6872810  91.9081299 100.3543824  11.4752002  90.8177712
 100.7377430  11.3376205  91.4874014  99.4912438  11.6654439  88.9934357
  99.0772837  11.0028569  88.6038199 100.1759812  11.8132298  88.4730052
  99.5310810  11.5895097  88.8590855 102.8577732  10.8244524  89.7457974
 102.4594015  10.9346795  88.9778794 102.2428952  11.0326591  90.3284534
 102.7076621  10.8718092  89.7189273  96.4566908  12.1063521  91.3947703
  96.7713467  12.9199909  91.4025485  96.8660321  11.7213739  92.0629862
  96.5635006  12.1692223  91.4951795 107.6678175  24.6005795  85.7421587
 106.9161074  24.2221333  85.5137633 108.1164186  24.6324228  84.9940398
 107.6227842  24.5491402  85.5979090 113.1203135  25.0231164  81.1707135
 112.7854503  25.7008086  80.7351357 113.6330005  24.6336476  80.5824006
 113.1468716  25.0655743  81.0193926 112.6607426  26.9745433  87.1118246
 113.0446805  27.5432332  86.5723021 112.5966567  26.2494943  86.6324062
 112.7080853  26.9520896  86.9612109 116.1288856  17.1235121  92.6216008
 116.6744816  17.8020207  92.6809977 116.0705732  16.9822582  91.7617589
 116.2004770  17.2027123  92.5028068 109.2462931  24.6124187  88.0084360
 109.3473294  23.8024541  88.3181488 108.6504676  24.5181133  87.3784039
 109.1735470  24.4789215  87.9610598 117.9053925  18.5519728  83.4949735
 117.7893451  19.3027414  83.9241873 118.7009811  18.2943681  83.7445822
 118.0058514  18.6254575  83.5953827 109.0863671  29.5301776  89.4099216
 109.7301126  29.9714940  89.7995374 109.4119926  28.7255202  89.3229475
 109.2295499  29.4766971  89.4544693 102.4427975  20.6344474  87.6336694
 102.2078160  19.8012126  87.5268962 102.5813616  20.9149139  86.8197895
 102.4283638  20.5527977  87.4979049 104.7418063  12.8030204  90.5321001
 104.1223094  12.2122851  90.3631016 104.6401926  13.3941639  89.8985325
 104.6355738  12.8034287  90.4125991 109.7884250  22.5413751  84.7819078
 110.1100091  23.0818958  84.1780386 110.4356347  21.9710522  84.9141368
 109.9310305  22.5372926  84.7126113 111.8385958  14.5429746  84.8653464
 112.5366123  14.7217873  85.3574928 112.1538291  14.0200085  84.2423854
 111.9881295  14.4923518  84.8455475 104.4687196  16.3482486  92.7764570
 104.3445893  16.9344931  93.4114389 105.1205480  15.8542682  93.0776845
 104.5460845  16.3621290  92.9150500 112.0273894  20.9300191  84.8533256
 112.4667529  20.3217291  85.2988029 111.8778557  20.5507564  84.0818721
 112.0695359  20.7838662  84.8052423 109.4945537  19.5244203  92.0552081
 110.1394539  19.0316646  91.7363030 109.7347314  19.6668989  92.8818160
 109.6256122  19.4721645  92.1301615 112.0331628  22.3699109  91.7058974
 112.3154871  21.5750514  91.4845730 112.7617788  22.8479696  91.7264035
 112.1821192  22.3233706  91.6761989 115.6283230  19.2827372  81.8064025
 115.5434525  20.1388339  81.9513594 116.1167613  19.0071696  82.4746184
 115.6872128  19.3684694  81.9266107 116.5601663  15.9012166  83.3061760
 116.0313135  16.1171800  83.9659067 117.0826683  16.5948305  83.2262730
 116.5590116  16.0355303  83.3917359 122.0149716  21.4758471  88.6794805
 121.1847419  21.6869115  88.8428221 121.9658969  20.6495525  88.4037088
 121.8856452  21.3848077  88.6632170 108.4501271  19.7975383  82.1069228
 107.8658486  20.3025415  82.5135092 108.0471366  19.5717770  81.3665820
 108.3040575  19.8383631  82.0574253 104.0045300  25.5130144  88.9092900
 103.5212878  26.2380634  88.8852483 104.8168618  25.8106274  89.0203058
 104.0536048  25.6632498  88.9220179 110.0759454  24.3062325  91.5142714
 109.5586396  23.9469740  90.9104022 110.7733845  23.7824499  91.5248780
 110.1025035  24.1760013  91.4272973 113.7323046  24.7557139  97.4758887
 113.8206392  24.5683280  98.3237098 114.1612758  24.1094569  97.0763734
 113.8085148  24.6320147  97.5430639 111.2993506  24.0388299  96.4576549
 110.7364341  23.6260909  96.9816211 112.0614529  23.9641205  96.8769693
 111.3287954  23.9665700  96.5969550 112.9078486  16.0441035  80.5838149
 113.1474489  16.2519019  79.7713492 113.2294327  15.2398544  80.6927093
 112.9915644  15.9555136  80.4798702 106.8589497  26.0286320  89.0613180
 107.5610076  25.5138309  89.1185936 106.7786980  26.3560472  89.8660055
 106.9513258  26.0000546  89.1885972 107.9068404  16.2661907  98.1893595
 108.0788907  16.1567802  99.0378876 108.4437761  16.9116313  97.9524787
 108.0113408  16.3453909  98.2798691 106.1840273  22.2192672  88.5698788
 107.0229172  22.4515605  88.6172549 106.2152042  21.3496984  88.5005823
 106.3121990  22.1249619  88.5663432 106.8092976  22.6393547  92.8712093
 107.3491201  22.4964678  93.5415466 106.1262922  23.0390298  93.2396119
 106.7885129  22.6773218  93.0246515 116.2333860  18.3184548  88.0657118
 116.9891376  18.7516062  88.1046026 116.3396185  17.6689318  88.6391754
 116.3604031  18.2862032  88.1555143 119.2714032  22.1457825  88.8159521
 118.8349263  22.1494568  89.5718492 118.9376947  22.8263324  88.3839098
 119.1576652  22.2470281  88.8640353 113.8443105  24.1866158 100.1402671
 114.6283522  24.2997006 100.5058413 113.6439700  23.3607295 100.3361357
 113.9309131  24.0812878 100.2237057 102.2130121  18.8593838  93.0246515
 101.9468536  18.0432955  93.1837505 102.2268685  18.9046994  92.1542030
 102.1754843  18.7450743  92.9199997 106.1187868  13.6578923  79.6398273
 105.4046045  13.3717102  80.0520705 106.6031836  13.9975548  80.2804660
 106.0847231  13.6660572  79.7953908 114.0013499  26.0976260  93.7869126
 113.2028744  25.8575760  94.0442995 114.4499510  26.1490653  94.5336174
 113.9488110  26.0698651  93.9354051 122.4058378  18.8638745  87.7079158
 123.0674812  18.3029414  87.6075066 121.7649790  18.3690776  88.0331849
 122.4087245  18.7075154  87.7411498 113.2935186  22.1608877  80.0160081
 113.7086334  21.8293900  79.3244577 112.4627115  21.9277779  79.8880218
 113.2323194  22.0780133  79.8950928 102.6223534  19.6452618  90.3058259
 102.4399108  19.6199504  89.4530551 103.3573203  20.1151555  90.3447168
 102.7037598  19.7113980  90.1856177 118.6923209  19.8804128  87.4491147
 118.9278798  20.0249326  86.6217997 118.8412772  20.6446536  87.8422660
 118.7489012  20.0143182  87.3854750 105.6869286  16.3637620  96.8140368
 106.4109258  16.3490651  97.3005262 105.7885423  17.0732976  96.3162336
 105.8087495  16.4662324  96.8119154 120.5213665  18.7205794  85.2860750
 120.8521882  19.2533434  84.6800845 121.0946753  18.7744681  85.9422701
 120.6547344  18.8075362  85.2938532 115.7345554  16.5670696  85.9684330
 115.8292409  17.3059990  86.4223956 115.1104398  16.1388172  86.4018895
 115.6554584  16.6132017  86.0992478 113.9898028  19.7456909  96.6174611
 114.5636890  19.1084153  96.7723175 113.9112832  19.7460991  95.7484269
 114.0631263  19.6522020  96.5121022 102.5894445  16.5246118  90.4557326
 103.1667947  16.3882569  91.0949571 101.8908506  16.0681902  90.7102910
 102.5715466  16.4368384  90.5879615 115.9868576  18.4119436  79.2021282
 115.9048738  18.4821623  80.0676269 116.6248296  18.9749180  79.0105023
 116.0688413  18.5058407  79.3011232 109.3461747  18.1780174  88.6695809
 109.0880991  17.3451909  88.6427108 109.4010230  18.4037787  87.8288309
 109.3161525  18.0877945  88.5415946 108.3196459  15.7317936  89.1560704
 107.7446050  15.8910105  89.7924665 107.9432135  15.0953346  88.6929154
 108.1799271  15.6615749  89.1815262  98.0653278  15.3758011  87.1705144
  98.1513530  14.9989880  87.9518674  98.6929075  15.0018457  86.6925102
  98.1709829  15.2643493  87.2150621 113.0908686  18.4339890  82.2129889
 113.9049325  18.7254783  82.1012660 113.0267827  17.7799753  81.6388182
 113.2011425  18.3805085  82.1118726 108.9616594  21.9061408  87.3402201
 109.5990541  21.6673155  87.8853994 109.3871666  22.1098567  86.6055362
 109.1192760  21.9012418  87.3119358 103.6529237  24.1449744  91.2236505
 103.6933382  24.4164595  90.3956284 104.2123761  24.6691652  91.6394293
 103.7412582  24.2625499  91.1628393 109.6019409  17.1263698  81.6777090
 109.9864562  16.9071404  82.4293636 109.3531029  17.9526643  81.8078167
 109.6221482  17.2161844  81.8078167 120.3354597  20.9010335  92.6887759
 120.0300414  21.6338392  93.0501075 119.6160812  20.4948265  92.4080545
 120.1841939  20.9492068  92.7000896 111.3438066  22.3833830  89.0195987
 111.4177074  22.2209002  89.8737837 112.1607572  22.5724020  88.7756469
 111.4754425  22.3870573  89.1094013 105.1043823  22.7291693  86.0490431
 104.2781940  22.9753430  85.9224710 105.1655814  22.6503774  86.9152489
 104.9917990  22.7536642  86.1579375 109.8842652  25.3468573  83.7509461
 110.1740950  24.9557555  83.0268687 110.6146133  25.5285278  84.1914736
 110.0349536  25.3162387  83.7092268 110.4737397  20.1486319  94.8362591
 109.9749091  20.8602087  94.9147480 111.2837621  20.4686986  94.7980754
 110.5193504  20.3013168  94.8419160 107.8248567  27.3235956  86.8169610
 107.6048863  27.0333311  87.6096277 107.6043089  26.6650911  86.2887523
 107.7596162  27.1835664  86.8558519 106.7365515  19.4109272  89.0825312
 106.4478763  18.7846744  89.6171039 107.6048863  19.3529560  89.1489993
 106.8225766  19.3096817  89.1716267 109.9916523  28.6965346  85.6000303
 110.6440581  28.1641788  85.8291329 109.2942132  28.3433998  85.9868177
 109.9847241  28.5654869  85.6912471 106.9397788  21.0504523  85.0067677
 107.6943756  21.4317562  85.2203140 106.3468401  21.5015667  85.4614374
 106.9634502  21.1733351  85.1050556 117.9856441  21.0169760  84.9431282
 118.5514474  21.6762970  84.8589825 117.3384345  21.3619458  85.4147684
 117.9735198  21.1651701  85.0004039 108.2596015  22.2213085  90.3807793
 107.7376768  22.3613376  91.0659657 108.6470035  21.4623749  90.5709910
 108.2399715  22.1298609  90.5108869 105.2487199  12.2718893  84.4502747
 104.9611994  11.9020164  83.7134695 105.9357667  12.7413749  84.1886452
 105.3076096  12.2865863  84.3017823 114.4563020  23.9608544  84.3668361
 114.2149695  23.2276405  83.9595426 114.6364352  24.5095401  83.7134695
 114.4470644  23.9330935  84.2098584 109.6862340  19.2517104  85.7789284
 109.4905123  19.8591838  85.1849587 109.9096686  18.5585048  85.2980958
 109.6896981  19.2394629  85.6205364 108.0840870  16.1371842  85.8970152
 108.8063522  16.3013000  85.4373958 107.6048863  16.8581507  85.7909492
 108.1204601  16.2670071  85.8135766 105.7348487  18.5429914  95.0024292
 106.2469584  18.8214167  94.3533052 105.4484830  19.2819208  95.3687105
 105.7683350  18.6932268  94.9614170 119.9191902  17.6803627  88.5628079
 119.8325876  17.8359053  89.4162857 119.4642382  18.3241703  88.1887484
 119.8395158  17.7979382  88.6335185 102.8215393  13.0500106  85.2988028
 102.9231530  13.8526267  85.6269004 103.6171280  12.8487442  85.0011109
 102.9543299  13.1386005  85.3023384 103.6379125  13.1647284  93.0409150
 103.4964617  12.3131225  93.1653658 103.9219689  13.2075945  92.2171356
 103.6586971  13.0447034  92.9376774 117.6865766  21.7097734  90.9740419
 117.5480126  22.4078780  91.4789162 116.9065764  21.5546390  90.6176601
 117.5508993  21.7897900  90.9966694 109.7514745  17.7371093  96.5976621
 109.8958121  18.3172301  95.9619731 110.0990394  18.1147390  97.3026476
 109.8242206  17.8791797  96.6075616 111.9234662  16.9361261  94.3801753
 111.1757976  17.1292276  93.9750031 112.0776188  16.1106481  94.1425874
 111.8357090  16.8426373  94.2847159 108.8242500  25.9273865  93.4637648
 108.9732064  25.3676781  92.8111052 109.6042502  26.0065866  93.8470167
 108.9616594  25.8559430  93.4234597 119.1819139  21.0675987  81.7356919
 118.8025948  20.2813125  81.7286208 118.5185385  21.6162844  81.5928563
 119.0277614  21.0320811  81.7137715 111.3495801  26.0988508  94.7422139
 111.2739472  25.4297318  95.2972927 111.2785660  26.8006296  95.2562805
 111.3276407  26.1033415  94.8998987 112.0066048  24.6189507  85.5745745
 112.7715939  24.3499150  85.2528409 111.9044137  24.1339517  86.2915808
 112.1047543  24.5079071  85.6325572 114.5284708  21.6501690  77.5545694
 115.2957693  21.7101815  77.1451546 114.0816017  21.0782132  77.0702013
 114.5758135  21.5738266  77.4223404 115.4262504  20.4556346  89.8398426
 114.7507505  20.2241578  90.3411813 115.4354880  19.8477529  89.2140531
 115.3281008  20.3315271  89.8214579 112.5556648  15.2974175  96.5962479
 112.4915789  16.1584132  96.4682616 112.6953835  14.9806168  95.7958031
 112.5672118  15.3774342  96.4590692 117.4279238  23.3121479  82.0708604
 117.5099076  24.1188465  81.7470055 117.9128980  23.3317438  82.7949378
 117.5116396  23.4342141  82.1295503 111.2375741  17.9906314  90.7378682
 110.8137991  18.1910813  90.0017701 111.0620597  17.1435162  90.8502982
 111.1486622  17.8955096  90.6452372 110.7387435  29.5056827  93.2000140
 111.2283365  28.8067617  93.0175804 110.1671667  29.2080697  93.7876197
 110.7271965  29.3583051  93.2601180 106.5258186  18.4858366  86.1706655
 106.6822806  18.4205169  87.0262647 106.8658780  19.2606918  85.9585335
 106.5991421  18.5907564  86.2661249 113.0637331  17.8616249  85.0400018
 113.6052876  17.3586631  85.5038639 113.3783890  17.8081444  84.2289503
 113.1901728  17.7795670  84.9883830 111.2323781  23.2533601  82.3240046
 111.3016601  22.3948139  82.4633047 112.0112236  23.4705482  81.9959071
 111.3576631  23.1586465  82.2957203 115.6231268  25.6771302  86.5376539
 115.2311060  25.3738017  85.8199406 115.7784341  26.5140392  86.3481493
 115.5884858  25.7555139  86.4033037 103.0992448  15.6693316  86.4867422
 103.4791413  16.0877861  85.8227689 102.5247813  16.2506772  86.7936265
 103.0703773  15.8171175  86.4344163 115.7870943  22.2421291  86.4782570
 115.4285598  22.4135934  87.2546602 115.3009654  22.7034497  85.9210568
 115.6629640  22.3360262  86.5107839 110.5759308  17.9220457  79.0182804
 110.8651833  18.6985339  79.2926379 110.6631107  17.4109188  79.7197304
 110.6313565  17.9612375  79.1625302 116.9475682  23.1325187  97.4249771
 117.5855403  22.6385383  97.0912227 116.3049774  23.0602588  96.8401998
 116.9469909  23.0484196  97.2892126 117.0029939  23.8244995  94.0655128
 117.7922317  23.4734060  94.1857209 117.1773537  24.6381384  93.8031761
 117.1450221  23.8930852  94.0442996 106.7423249  17.2353721  91.1182916
 105.9011256  17.1357595  91.3261810 106.9513257  18.0049201  91.4697237
 106.6487942  17.3345764  91.2010231 104.2198816  14.8573258  88.9467667
 103.8255514  14.9316270  88.1717777 103.6638933  15.2431204  89.4976029
 104.0801629  14.9255033  88.9135327 110.5539914  15.1635120  90.3680514
 110.2503052  14.6091109  90.9690922 109.8519335  15.3427330  89.8808548
 110.4056124  15.1079903  90.3850220 108.6158265  22.3784841  95.0752612
 108.5078620  22.3886903  95.9414670 108.8254047  23.2039621  94.8857566
 108.6308376  22.5025916  95.1756703 106.6332057  19.6297483  92.5374549
 106.0419991  20.2706982  92.5077564 107.3953081  20.0535101  92.5105849
 106.6580318  19.7873322  92.5289697 116.3921574  25.0806795  89.9706574
 116.1941262  25.5697609  89.2762785 115.7709285  25.2848036  90.5490707
 116.2709138  25.1823333  89.9529797 110.4529552  16.8491692  84.3116818
 111.1971597  17.2365968  84.5499768 110.5990248  16.0049117  84.4757306
 110.5840137  16.7822165  84.3710788 103.8180458  14.4188672  95.5794283
 104.6806071  14.3184381  95.4931613 103.4872241  13.8383381  95.0179855
 103.8965654  14.3180299  95.4839689 107.1782244  13.2431121  92.2404701
 106.5535314  13.2549513  91.6330654 106.8427839  13.7191296  92.8895942
 107.0367736  13.3149638  92.2461270 103.8907919  21.3031581  93.6808466
 103.3607844  20.6124020  93.7303440 104.1633013  21.2941766  92.8521174
 103.8532642  21.1998713  93.5655882 114.9228010  21.8857283  82.4046148
 115.6462209  22.3515396  82.2610722 114.4828601  21.9530893  81.6543745
 114.9643702  21.9641120  82.2730930 114.0914165  18.7454826  93.6546837
 113.4771158  18.2012876  93.9495473 114.6081450  18.2319062  93.1752653
 114.0769827  18.5891235  93.6271066 113.3310462  19.8159096  91.3891136
 112.9038070  19.1908814  90.9556571 113.3235407  19.5334017  92.2150143
 113.2669603  19.6811876  91.4470963 106.4472989  14.8524269  94.4579570
 106.6066476  14.0967593  94.8631292 106.2665883  15.4015208  95.1120308
 106.4438348  14.8218082  94.6142276  99.1703762  17.9759345  91.0376814
  99.0647211  17.9306189  90.1728898  98.4203982  18.3213126  91.3191099
  99.0439365  18.0200253  90.9514144 110.1227107  18.9859408  99.0859709
 109.2722737  19.1231123  99.2217354 110.2855235  18.2523187  99.5307410
 110.0210970  18.8973510  99.1715308 109.3611857  15.9359178  93.2813313
 108.5303787  16.1032996  93.0748561 109.3063375  15.5595129  94.0662199
 109.2301272  15.9048909  93.3661841 107.7347901  14.2114770  83.8103431
 107.8750862  14.7087234  84.5132072 108.2330434  13.5101064  83.9517645
 107.8288982  14.1816748  83.9355010 107.7648124  15.0781881  81.1396008
 108.3993203  15.6742306  81.0745470 107.8473734  14.7785338  81.9541878
 107.8704675  15.1222789  81.2499094 112.5724079  22.0314730  94.6340266
 112.0649170  22.5850577  95.0780896 112.2750725  22.0923020  93.8159040
 112.4528964  22.1221042  94.5788723 104.2701112  17.2749721  84.4085554
 104.7793341  17.8714229  84.7896859 104.7435384  17.0075695  83.7261973
 104.4144487  17.3235537  84.3640077 115.1831860  25.9477988  82.5644209
 114.4661169  25.7738850  82.0991447 115.8338597  25.7130560  82.0319695
 115.1733710  25.8873781  82.4173427 111.8166565  26.9639289  91.5397273
 111.5932219  26.2058118  91.9081299 111.3276408  26.9937310  90.8177712
 111.7110014  26.8561513  91.4874014 106.6291643  13.9105980  87.2758734
 105.9103632  14.3270113  87.5431598 107.0004006  14.4760219  86.7250372
 106.5783575  14.0555261  87.2341541 110.4645021  27.1839747  88.9934357
 110.0505420  26.5213877  88.6038199 111.1492396  27.3317606  88.4730052
 110.5043393  27.1080405  88.8590855 113.8310316  26.3429832  89.7457974
 113.4326599  26.4532102  88.9778794 113.2161535  26.5511898  90.3284534
 113.6809205  26.3903400  89.7189273 109.5615263  14.7617957  95.6458964
 109.0494166  14.1539140  96.0043995 109.3894759  15.4774550  96.1132940
 109.4604900  14.7781257  95.7675188 104.4080977  13.2055533  98.2961326
 104.2383568  13.8656908  97.7509533 103.9646927  13.4162094  99.0173815
 104.3180311  13.3341515  98.3222955 121.5652158  20.9181799  83.1301065
 121.9485764  21.6673155  83.3599162 120.7696272  21.1647618  82.8713054
 121.5045941  21.0651493  83.1258638 101.3083042  16.1102398  93.5549816
 100.7609761  15.4403044  93.6730684 102.0975420  15.7432246  93.6193283
 101.3435226  15.9567385  93.5818516 110.3767450  13.5901231  80.7061444
 110.7566415  13.6080860  79.9212558 109.6360046  14.0355219  80.5852291
 110.3236288  13.6583005  80.5725012 100.0670011  15.3223206  90.7095839
  99.8891772  14.8699815  91.4350754  99.7789033  16.1249368  90.8934316
  99.9982965  15.3745764  90.8439342 115.7293592  16.5780924  89.9473229
 116.2247258  15.8603919  89.9077249 114.9193368  16.2751721  89.8327716
 115.6837486  16.4278570  89.9246955 111.1752204  20.4278737  82.0970234
 110.3663527  20.1045410  82.0503543 111.6827113  19.7211959  82.0298482
 111.1301871  20.2760053  82.0800528 101.8042481  17.8550930  87.8217598
 100.9388001  17.8436620  87.7100369 101.9041297  17.6681153  88.6688737
 101.6916648  17.8256991  87.9306542 117.7945411  19.3284611  92.6350358
 118.2200483  18.8059033  92.0820783 117.4302331  19.9265448  92.1138981
 117.8032014  19.3394838  92.4759368 107.4299491  27.6248829  91.3947703
 107.7446050  28.4385217  91.4025485 107.8392904  27.2399047  92.0629862
 107.5367589  27.6877531  91.4951795 114.3824011  23.0418875  88.9651515
 114.8535189  23.7559138  89.1341501 114.7184189  22.4417625  89.5011385
 114.5019126  23.0590340  89.0683891 115.0197957  22.8336809  95.7279208
 114.4718903  22.2094693  95.4599273 115.4810986  23.0231081  95.0123287
 115.0065167  22.7695860  95.5829639 104.7712511  21.5721937  91.0426312
 105.3757369  21.5317771  90.4140133 104.5639824  22.4193089  91.0730368
 104.8301409  21.6909939  90.9542428 114.5856283  23.8387882  92.2588549
 115.4054657  23.6950848  92.5204844 114.3050361  24.4634081  92.8004987
 114.6653027  23.9098234  92.3776489 100.0063794  20.5556555  90.9125235
  99.9088072  19.7452826  91.2215292 100.7892663  20.5348348  90.5271503
 100.1079930  20.4323645  90.9012098 124.2569619  30.5828385  89.9784356
 123.4007514  30.7436883  90.0293473 124.3037272  29.7120449  89.9989417
 124.1368730  30.4779187  89.9890422 118.6410758  40.1191103  85.7421587
 117.8893658  39.7406641  85.5137633 119.0896770  40.1509536  84.9940398
 118.5960425  40.0676710  85.5979090 124.0935718  40.5416472  81.1707135
 123.7587087  41.2193394  80.7351357 124.6062589  40.1521784  80.5824006
 124.1201299  40.5841050  81.0193926 123.6340009  42.4930741  87.1118246
 124.0179389  43.0617640  86.5723021 123.5699151  41.7680251  86.6324062
 123.6813437  42.4706204  86.9612109 120.2195514  40.1309495  88.0084360
 120.3205877  39.3209849  88.3181488 119.6237260  40.0366441  87.3784039
 120.1468053  39.9974523  87.9610598 120.0596254  45.0487084  89.4099216
 120.7033710  45.4900248  89.7995374 120.3852510  44.2440510  89.3229475
 120.2028083  44.9952279  89.4544693 113.4160559  36.1529781  87.6336694
 113.1810743  35.3197434  87.5268962 113.5546200  36.4334447  86.8197895
 113.4016221  36.0713285  87.4979049 115.7150646  28.3215512  90.5321001
 115.0955678  27.7308159  90.3631016 115.6134510  28.9126947  89.8985325
 115.6088322  28.3219595  90.4125991 120.7616834  38.0599059  84.7819078
 121.0832675  38.6004266  84.1780386 121.4088930  37.4895830  84.9141368
 120.9042889  38.0558234  84.7126113 122.8118542  30.0615054  84.8653464
 123.5098707  30.2403181  85.3574928 123.1270874  29.5385393  84.2423854
 122.9613879  30.0108826  84.8455475 115.4419779  31.8667794  92.7764570
 115.3178476  32.4530239  93.4114389 116.0938064  31.3727989  93.0776845
 115.5193429  31.8806598  92.9150500 123.0006477  36.4485499  84.8533256
 123.4400113  35.8402599  85.2988029 122.8511140  36.0692872  84.0818721
 123.0427943  36.3023970  84.8052423 120.4678120  35.0429511  92.0552081
 121.1127123  34.5501954  91.7363030 120.7079897  35.1854297  92.8818160
 120.5988705  34.9906953  92.1301615 123.0064212  37.8884417  91.7058974
 123.2887454  37.0935822  91.4845730 123.7350372  38.3665004  91.7264035
 123.1553775  37.8419013  91.6761989 120.9845405  25.4307451  88.9474739
 120.6548735  25.8818594  88.2778438 120.3090407  25.3523614  89.4947746
 120.8355842  25.4858586  88.9297962 119.4233855  35.3160691  82.1069228
 118.8391070  35.8210723  82.5135092 119.0203950  35.0903078  81.3665820
 119.2773159  35.3568939  82.0574253 114.9777883  41.0315452  88.9092900
 114.4945462  41.7565942  88.8852483 115.7901202  41.3291582  89.0203058
 115.0268631  41.1817806  88.9220179 121.0492038  39.8247633  91.5142714
 120.5318979  39.4655048  90.9104022 121.7466429  39.3009807  91.5248780
 121.0757619  39.6945321  91.4272973 124.7055630  40.2742447  97.4758887
 124.7938975  40.0868587  98.3237098 125.1345342  39.6279877  97.0763734
 124.7817732  40.1505455  97.5430639 122.2726089  39.5573607  96.4576549
 121.7096924  39.1446217  96.9816211 123.0347113  39.4826513  96.8769693
 122.3020538  39.4851008  96.5969550 123.8811069  31.5626343  80.5838149
 124.1207073  31.7704327  79.7713492 124.2026910  30.7583852  80.6927093
 123.9648227  31.4740444  80.4798702 119.1901360  23.4919739  84.4297687
 119.9447328  23.8598056  84.1914737 119.0128894  23.8659293  85.1976866
 119.2755838  23.6017927  84.5082575 117.8322081  41.5471628  89.0613180
 118.5342660  41.0323617  89.1185936 117.7519564  41.8745780  89.8660055
 117.9245841  41.5185854  89.1885972 118.8800987  31.7847215  98.1893595
 119.0521491  31.6753110  99.0378876 119.4170345  32.4301621  97.9524787
 118.9845991  31.8639217  98.2798691 117.5458424  25.8990058  81.1275800
 117.3633997  26.1161939  80.3016793 118.4084037  26.0129071  81.1834414
 117.6463014  25.9479956  81.0130287 117.1572856  37.7377980  88.5698788
 117.9961756  37.9700913  88.6172549 117.1884625  36.8682292  88.5005823
 117.2854574  37.6434927  88.5663432 117.7825559  38.1578855  92.8712093
 118.3223784  38.0149986  93.5415466 117.0995505  38.5575606  93.2396119
 117.7617713  38.1958526  93.0246515 123.2258143  22.9016469  84.1624824
 123.9544304  22.7232424  83.7162980 123.3153036  23.7434548  84.3732002
 123.3464805  23.0000347  84.1278341 124.8175689  39.7051466 100.1402671
 125.6016105  39.8182314 100.5058413 124.6172283  38.8792603 100.3361357
 124.9041714  39.5998185 100.2237057 113.1862704  34.3779146  93.0246515
 112.9201119  33.5618263  93.1837505 113.2001268  34.4232302  92.1542030
 113.1487427  34.2636051  92.9199997 117.0920451  29.1764231  79.6398273
 116.3778628  28.8902410  80.0520705 117.5764420  29.5160856  80.2804660
 117.0579815  29.1845880  79.7953908 117.9361311  27.9157524  95.6713522
 117.2433107  27.4454504  95.9174254 118.5521638  27.6895829  96.2455230
 117.9245841  27.8124656  95.7922675 124.9746082  41.6161568  93.7869126
 124.1761328  41.3761068  94.0442995 125.4232094  41.6675961  94.5336174
 124.9220693  41.5883959  93.9354051 124.2667769  37.6794185  80.0160081
 124.6818918  37.3479208  79.3244577 123.4359699  37.4463087  79.8880218
 124.2055778  37.5965440  79.8950928 113.5956118  35.1637926  90.3058259
 113.4131691  35.1384812  89.4530551 114.3305787  35.6336863  90.3447168
 113.6770182  35.2299288  90.1856177 116.6601870  31.8822928  96.8140368
 117.3841842  31.8675959  97.3005262 116.7618006  32.5918284  96.3162336
 116.7820079  31.9847632  96.8119154 124.9630612  35.2642217  96.6174611
 125.5369473  34.6269461  96.7723175 124.8845416  35.2646299  95.7484269
 125.0363847  35.1707328  96.5121022 113.5627028  32.0431426  90.4557326
 114.1400531  31.9067877  91.0949571 112.8641090  31.5867210  90.7102910
 113.5448050  31.9553692  90.5879615 120.3194330  33.6965482  88.6695809
 120.0613575  32.8637217  88.6427108 120.3742813  33.9223095  87.8288309
 120.2894108  33.6063253  88.5415946 125.3995381  25.7993933  88.7699901
 124.6951707  25.3103118  88.9283821 125.4480355  25.8116407  87.8988346
 125.3025432  25.7283581  88.6639241 119.2929043  31.2503244  89.1560704
 118.7178634  31.4095413  89.7924665 118.9164719  30.6138653  88.6929154
 119.1531855  31.1801057  89.1815262 122.9602331  29.7226594  94.0153082
 122.5716764  29.2980811  93.3605273 122.2957030  29.9708743  94.5230109
 122.8049259  29.6965315  93.9940950 109.0385861  30.8943319  87.1705144
 109.1246113  30.5175187  87.9518674 109.6661659  30.5203765  86.6925102
 109.1442412  30.7828801  87.2150621 124.0641269  33.9525198  82.2129889
 124.8781908  34.2440091  82.1012660 124.0000411  33.2985061  81.6388182
 124.1744008  33.8990393  82.1118726 119.9349178  37.4246716  87.3402201
 120.5723125  37.1858463  87.8853994 120.3604249  37.6283875  86.6055362
 120.0925344  37.4197726  87.3119358 114.6261820  39.6635052  91.2236505
 114.6665965  39.9349903  90.3956284 115.1856344  40.1876960  91.6394293
 114.7145166  39.7810807  91.1628393 120.5751993  32.6449005  81.6777090
 120.9597145  32.4256712  82.4293636 120.3263613  33.4711951  81.8078167
 120.5954065  32.7347152  81.8078167 122.3170650  37.9019138  89.0195987
 122.3909658  37.7394310  89.8737837 123.1340156  38.0909328  88.7756469
 122.4487008  37.9055881  89.1094013 116.0776406  38.2477001  86.0490431
 115.2514524  38.4938738  85.9224710 116.1388398  38.1689082  86.9152489
 115.9650573  38.2721950  86.1579375 118.2952430  24.3145942  87.0085871
 117.4274856  24.3868542  87.0743480 118.5827634  25.1168021  87.1973846
 118.2092178  24.4440089  87.0460638 120.8575235  40.8653881  83.7509461
 121.1473534  40.4742863  83.0268687 121.5878716  41.0470586  84.1914736
 121.0082120  40.8347695  83.7092268 121.4469981  35.6671627  94.8362591
 120.9481674  36.3787395  94.9147480 122.2570205  35.9872294  94.7980754
 121.4926087  35.8198476  94.8419160 118.7981151  42.8421264  86.8169610
 118.5781446  42.5518618  87.6096277 118.5775673  42.1836219  86.2887523
 118.7328745  42.7020972  86.8558519 117.7098098  34.9294580  89.0825312
 117.4211347  34.3032052  89.6171039 118.5781446  34.8714868  89.1489993
 117.7958350  34.8282125  89.1716267 120.9649107  44.2150654  85.6000303
 121.6173165  43.6827096  85.8291329 120.2674715  43.8619306  85.9868177
 120.9579825  44.0840177  85.6912471 117.9130372  36.5689831  85.0067677
 118.6676340  36.9502870  85.2203140 117.3200984  37.0200975  85.4614374
 117.9367085  36.6918659  85.1050556 119.2328598  37.7398393  90.3807793
 118.7109352  37.8798684  91.0659657 119.6202618  36.9809057  90.5709910
 119.2132299  37.6483917  90.5108869 116.2219782  27.7904201  84.4502747
 115.9344578  27.4205472  83.7134695 116.9090250  28.2599057  84.1886452
 116.2808679  27.8051171  84.3017823 125.4295603  39.4793852  84.3668361
 125.1882279  38.7461713  83.9595426 125.6096936  40.0280709  83.7134695
 125.4203227  39.4516243  84.2098584 120.6594924  34.7702412  85.7789284
 120.4637706  35.3777146  85.1849587 120.8829269  34.0770356  85.2980958
 120.6629565  34.7579937  85.6205364 119.0573454  31.6557150  85.8970152
 119.7796106  31.8198308  85.4373958 118.5781447  32.3766814  85.7909492
 119.0937184  31.7855379  85.8135766 116.7081070  34.0615222  95.0024292
 117.2202167  34.3399475  94.3533052 116.4217413  34.8004516  95.3687105
 116.7415934  34.2117576  94.9614170 113.7947977  28.5685414  85.2988028
 113.8964113  29.3711575  85.6269004 114.5903864  28.3672750  85.0011109
 113.9275882  28.6571313  85.3023384 120.2264796  26.1541611  95.0625333
 120.0347993  26.1696745  95.9124757 121.0763392  26.3505285  95.0391988
 120.3240518  26.1855962  95.1848628 114.6111709  28.6832592  93.0409150
 114.4697201  27.8316533  93.1653658 114.8952272  28.7261253  92.2171356
 114.6319555  28.5632342  92.9376774 124.7650301  30.5199682  87.1853638
 124.5185016  30.4395433  88.0190427 125.0935424  29.7353150  86.9916166
 124.7771545  30.3925948  87.2801161 120.7247329  33.2556401  96.5976621
 120.8690704  33.8357609  95.9619731 121.0722977  33.6332698  97.3026476
 120.7974790  33.3977105  96.6075616 122.8967246  32.4546569  94.3801753
 122.1490560  32.6477584  93.9750031 123.0508771  31.6291789  94.1425874
 122.8089673  32.3611681  94.2847159 119.7975084  41.4459173  93.4637648
 119.9464647  40.8862089  92.8111052 120.5775086  41.5251174  93.8470167
 119.9349177  41.3744738  93.4234597 122.3228384  41.6173816  94.7422139
 122.2472055  40.9482626  95.2972927 122.2518243  42.3191604  95.2562805
 122.3008991  41.6218723  94.8998987 115.3802014  26.5962940  96.3586600
 114.8444204  25.9843298  96.6747368 115.4419779  27.1711076  97.0120267
 115.3097647  26.5909867  96.5022027 122.9798631  40.1374814  85.5745745
 123.7448522  39.8684458  85.2528409 122.8776721  39.6524825  86.2915808
 123.0780127  40.0264379  85.6325572 121.0151401  28.3399224  92.1138981
 120.2247476  28.1590684  92.4356316 121.4112024  27.5626176  92.0969275
 120.9568277  28.1986685  92.1591529 123.5289231  30.8159483  96.5962479
 123.4648372  31.6769439  96.4682616 123.6686419  30.4991476  95.7958031
 123.5404701  30.8959650  96.4590692 122.2108325  33.5091622  90.7378682
 121.7870574  33.7096121  90.0017701 122.0353180  32.6620470  90.8502982
 122.1219206  33.4140404  90.6452372 121.7120018  45.0242135  93.2000140
 122.2015949  44.3252925  93.0175804 121.1404251  44.7266005  93.7876197
 121.7004548  44.8768359  93.2601180 117.4990770  34.0043674  86.1706655
 117.6555389  33.9390477  87.0262647 117.8391363  34.7792226  85.9585335
 117.5724005  34.1092872  86.2661249 124.0369915  33.3801557  85.0400018
 124.5785460  32.8771938  85.5038639 124.3516474  33.3266752  84.2289503
 124.1634312  33.2980978  84.9883830 122.2056364  38.7718909  82.3240046
 122.2749185  37.9133447  82.4633047 122.9844819  38.9890790  81.9959071
 122.3309214  38.6771773  82.2957203 114.0725031  31.1878624  86.4867422
 114.4523996  31.6063169  85.8227689 113.4980396  31.7692080  86.7936265
 114.0436356  31.3356483  86.4344163 124.5773913  21.3837798  90.0809661
 123.7067471  21.3576519  90.0342971 124.8314254  21.2114990  89.2635507
 124.4867473  21.3547941  89.9529798 121.5491892  33.4405764  79.0182804
 121.8384417  34.2170647  79.2926379 121.6363691  32.9294496  79.7197304
 121.6046148  33.4797683  79.1625302 121.6023053  23.3944026  91.5383132
 121.0861542  22.7024217  91.6634711 121.0416982  24.0614803  91.4845730
 121.4429566  23.3907284  91.5489198 117.7155833  32.7539029  91.1182916
 116.8743840  32.6542903  91.3261810 117.9245841  33.5234509  91.4697237
 117.6220526  32.8531072  91.2010231 115.1931400  30.3758566  88.9467667
 114.7988098  30.4501578  88.1717777 114.6371517  30.7616512  89.4976029
 115.0534212  30.4440341  88.9135327 121.5272498  30.6820428  90.3680514
 121.2235635  30.1276416  90.9690922 120.8251919  30.8612638  89.8808548
 121.3788708  30.6265211  90.3850220 120.5838595  27.9920948  84.9325216
 120.8598329  27.2739861  84.5202783 121.1837264  28.5905868  84.7246322
 120.7131860  27.9741319  84.8405977 119.5890849  37.8970149  95.0752612
 119.4811204  37.9072211  95.9414670 119.7986630  38.7224929  94.8857566
 119.6040960  38.0211224  95.1756703 124.0849115  25.6634465  83.2071811
 124.5392862  25.8345026  83.9319655 124.5589161  25.0502576  82.8069587
 124.2217436  25.5985351  83.2545572 117.6064641  35.1482791  92.5374549
 117.0152574  35.7892290  92.5077564 118.3685664  35.5720409  92.5105849
 117.6312901  35.3058630  92.5289697 118.0025264  26.3084789  93.2042567
 118.4626745  26.3823719  93.9417691 118.0481370  27.1066043  92.8542388
 118.0775819  26.4378936  93.2615323 121.4262135  32.3677000  84.3116818
 122.1704180  32.7551276  84.5499768 121.5722832  31.5234425  84.4757306
 121.5572721  32.3007473  84.3710788 123.3441711  24.1627259  89.3448680
 122.4977756  24.3350066  89.2190029 123.3412843  23.3576602  89.6814508
 123.2188861  24.0688288  89.3759806 124.4140011  27.9402473  90.2110737
 123.9399966  27.4144235  90.7216048 124.7858147  27.3931946  89.6425599
 124.3989900  27.7818470  90.2025885 114.7913041  29.9373980  95.5794283
 115.6538654  29.8369689  95.4931613 114.4604824  29.3568689  95.0179855
 114.8698238  29.8365606  95.4839689 118.1514827  28.7616429  92.2404701
 117.5267898  28.7734821  91.6330654 117.8160422  29.2376604  92.8895942
 118.0100319  28.8334946  92.2461270 118.3356576  27.1041547  78.2977386
 117.9869380  27.7561272  78.7608936 117.8553022  27.0898660  77.5701258
 118.2126820  27.1984601  78.2588478 114.8640503  36.8216889  93.6808466
 114.3340428  36.1309328  93.7303440 115.1365596  36.8127074  92.8521174
 114.8265225  36.7184021  93.5655882 125.0646749  34.2640133  93.6546837
 124.4503742  33.7198184  93.9495473 125.5814033  33.7504370  93.1752653
 125.0502411  34.1076542  93.6271066 124.3043046  35.3344403  91.3891136
 123.8770654  34.7094122  90.9556571 124.2967990  35.0519325  92.2150143
 124.2402187  35.1997184  91.4470963 117.4205573  30.3709577  94.4579570
 117.5799060  29.6152901  94.8631292 117.2398466  30.9200516  95.1120308
 117.4170932  30.3403390  94.6142276 122.6328755  26.2113158  91.6033670
 122.6571243  25.6773270  90.9146450 122.8840229  25.7030467  92.2659260
 122.6738674  26.0574062  91.5998315 110.1436345  33.4944653  91.0376814
 110.0379794  33.4491497  90.1728898 109.3936565  33.8398434  91.3191099
 110.0171948  33.5385561  90.9514144 118.9130078  24.9383976  90.9839414
 118.9528449  25.4393183  91.6974122 118.0879742  25.0294370  90.7145337
 118.7969604  25.0265793  91.0489952 121.0959691  34.5044716  99.0859709
 120.2455321  34.6416431  99.2217354 121.2587818  33.7708494  99.5307410
 120.9943554  34.4158817  99.1715308 120.3344441  31.4544486  93.2813313
 119.5036371  31.6218304  93.0748561 120.2795958  31.0780437  94.0662199
 120.2033856  31.4234217  93.3661841 118.7080485  29.7300078  83.8103431
 118.8483446  30.2272542  84.5132072 119.2063018  29.0286372  83.9517645
 118.8021566  29.7002056  83.9355010 118.7380707  30.5967189  81.1396008
 119.3725787  31.1927614  81.0745470 118.8206318  30.2970646  81.9541878
 118.8437258  30.6408097  81.2499094 120.3159690  26.5281164  81.1141450
 120.6375531  26.0484247  80.4600712 120.5786634  27.3380810  80.9232261
 120.4025716  26.5771062  80.9896942 123.5456663  37.5500038  94.6340266
 123.0381754  38.1035885  95.0780896 123.2483309  37.6108328  93.8159040
 123.4261548  37.6406350  94.5788723 115.2433695  32.7935029  84.4085554
 115.7525924  33.3899537  84.7896859 115.7167967  32.5261003  83.7261973
 115.3877071  32.8420845  84.3640077 124.1513068  22.3868458  86.8855506
 123.5081386  22.2366104  87.4540644 123.8112475  22.1410803  86.1204610
 124.0058145  22.3280580  86.8558521 122.7899148  42.4824597  91.5397273
 122.5664803  41.7243426  91.9081299 122.3008991  42.5122618  90.8177712
 122.6842597  42.3746821  91.4874014 117.6024227  29.4291288  87.2758734
 116.8836216  29.8455421  87.5431598 117.9736589  29.9945527  86.7250372
 117.5516159  29.5740569  87.2341541 121.4377605  42.7025055  88.9934357
 121.0238004  42.0399185  88.6038199 122.1224979  42.8502914  88.4730052
 121.4775977  42.6265713  88.8590855 124.8042899  41.8615140  89.7457974
 124.4059182  41.9717410  88.9778794 124.1894119  42.0697206  90.3284534
 124.6541789  41.9088708  89.7189273 123.3770801  28.4689288  82.6132114
 122.7835641  28.7906284  82.0616681 123.4146079  27.6230383  82.4053220
 123.2945190  28.3913616  82.5014885 120.5347846  30.2803265  95.6458964
 120.0226749  29.6724448  96.0043995 120.3627342  30.9959858  96.1132940
 120.4337483  30.2966565  95.7675188 115.3813561  28.7240841  98.2961326
 115.2116151  29.3842216  97.7509533 114.9379511  28.9347402  99.0173815
 115.2912895  28.8526823  98.3222955 119.3073380  26.9645339  87.3388060
 119.7830747  27.3262419  86.7038241 118.8061980  27.6201806  87.6188202
 119.3038739  27.1139527  87.2864801 112.2815625  31.6287706  93.5549816
 111.7342345  30.9588352  93.6730684 113.0708004  31.2617554  93.6193283
 112.3167809  31.4752693  93.5818516 121.3500033  29.1086538  80.7061444
 121.7298998  29.1266168  79.9212558 120.6092630  29.5540527  80.5852291
 121.2968871  29.1768313  80.5725012 111.0402595  30.8408514  90.7095839
 110.8624356  30.3885123  91.4350754 110.7521617  31.6434676  90.8934316
 110.9715548  30.8931072  90.8439342 122.1484788  35.9464045  82.0970234
 121.3396110  35.6230718  82.0503543 122.6559696  35.2397267  82.0298482
 122.1034454  35.7945361  82.0800528 112.7775065  33.3736238  87.8217598
 111.9120584  33.3621928  87.7100369 112.8773881  33.1866461  88.6688737
 112.6649232  33.3442299  87.9306542 118.4032075  43.1434136  91.3947703
 118.7178634  43.9570525  91.4025485 118.8125488  42.7584355  92.0629862
 118.5100173  43.2062839  91.4951795 125.3556594  38.5604183  88.9651515
 125.8267773  39.2744446  89.1341501 125.6916773  37.9602933  89.5011385
 125.4751709  38.5775648  89.0683891 121.3419204  25.3348067  83.3889075
 122.1634899  25.5046380  83.1470770 120.8788855  25.4895328  82.6655373
 121.3950366  25.3829800  83.2460719 119.9314536  23.3290829  94.1687504
 120.4758949  22.9881956  94.7591846 119.9851472  24.1876290  94.3108788
 120.0203655  23.4046088  94.2769377 115.7445095  37.0907245  91.0426312
 116.3489952  37.0503079  90.4140133 115.5372407  37.9378397  91.0730368
 115.8033992  37.2095247  90.9542428 110.9796377  36.0741862  90.9125235
 110.8820655  35.2638134  91.2215292 111.7625247  36.0533656  90.5271503
 111.0812514  35.9508953  90.9012098 124.3893142  51.6715089  87.6336694
 124.1543327  50.8382742  87.5268962 124.5278783  51.9519755  86.8197895
 124.3748805  51.5898593  87.4979049 124.1595288  49.8964454  93.0246515
 123.8933703  49.0803571  93.1837505 124.1733852  49.9417610  92.1542030
 124.1220010  49.7821359  92.9199997 124.5688701  50.6823233  90.3058259
 124.3864275  50.6570119  89.4530551 125.3038370  51.1522171  90.3447168
 124.6502765  50.7484596  90.1856177 124.5359612  47.5616734  90.4557326
 125.1133114  47.4253185  91.0949571 123.8373674  47.1052518  90.7102910
 124.5180633  47.4739000  90.5879615 120.0118445  46.4128627  87.1705144
 120.0978697  46.0360495  87.9518674 120.6394242  46.0389073  86.6925102
 120.1174996  46.3014109  87.2150621 124.7680560  44.0870722  85.2988028
 124.8696697  44.8896883  85.6269004 125.5636447  43.8858058  85.0011109
 124.9008466  44.1756621  85.3023384 125.0457615  46.7063932  86.4867422
 125.4256580  47.1248477  85.8227689 124.4712980  47.2877388  86.7936265
 125.0168940  46.8541791  86.4344163 121.1168929  49.0129961  91.0376814
 121.0112378  48.9676805  90.1728898 120.3669149  49.3583741  91.3191099
 120.9904532  49.0570869  90.9514144 123.2548209  47.1473014  93.5549816
 122.7074928  46.4773660  93.6730684 124.0440587  46.7802862  93.6193283
 123.2900393  46.9938001  93.5818516 122.0135179  46.3593822  90.7095839
 121.8356940  45.9070431  91.4350754 121.7254201  47.1619983  90.8934316
 121.9448132  46.4116380  90.8439342 123.7507648  48.8921546  87.8217598
 122.8853168  48.8807236  87.7100369 123.8506464  48.7051769  88.6688737
 123.6381815  48.8627607  87.9306542 121.9528961  51.5927170  90.9125235
 121.8553239  50.7823442  91.2215292 122.7357830  51.5718964  90.5271503
 122.0545097  51.4694261  90.9012098 118.3361582  17.0569234  72.6761634
 117.5844482  16.6784772  72.4477679 118.7847594  17.0887668  71.9280445
 118.2911249  17.0054841  72.5319136 123.3290833  19.4308872  74.0458293
 123.7130213  19.9995771  73.5063068 123.2649975  18.7058382  73.5664109
 123.3764261  19.4084336  73.8952156 119.7547078  21.9865215  76.3439263
 120.3984534  22.4278379  76.7335421 120.0803334  21.1818641  76.2569522
 119.8978907  21.9330410  76.3884740 114.6728707  17.9693583  75.8432947
 114.1896286  18.6944073  75.8192530 115.4852026  18.2669713  75.9543104
 114.7219455  18.1195937  75.8560226 117.5272905  18.4849759  75.9953226
 118.2293484  17.9701748  76.0525983 117.4470388  18.8123911  76.8000102
 117.6196665  18.4563986  76.1226019 124.6696906  18.5539699  80.7209173
 123.8712152  18.3139199  80.9783042 125.1182918  18.6054092  81.4676221
 124.6171517  18.5262090  80.8694098 114.3212644  16.6013183  78.1576552
 114.3616789  16.8728034  77.3296331 114.8807168  17.1255091  78.5734340
 114.4095990  16.7188938  78.0968440 120.5526059  17.8032013  70.6849508
 120.8424358  17.4120994  69.9608734 121.2829540  17.9848717  71.1254783
 120.7032944  17.7725826  70.6432315 118.4931975  19.7799395  73.7509657
 118.2732270  19.4896750  74.5436324 118.2726497  19.1214350  73.2227570
 118.4279569  19.6399103  73.7898566 120.6599931  21.1528785  72.5340350
 121.3123989  20.6205227  72.7631376 119.9625539  20.7997437  72.9208224
 120.6530649  21.0218308  72.6252517 119.4925907  18.3837304  80.3977695
 119.6415471  17.8240220  79.7451099 120.2725910  18.4629306  80.7810214
 119.6300001  18.3122869  80.3574644 122.0179208  18.5551947  81.6762186
 121.9422879  17.8860757  82.2312974 121.9469067  19.2569735  82.1902852
 121.9959815  18.5596854  81.8339034 121.4070842  21.9620267  80.1340186
 121.8966773  21.2631056  79.9515851 120.8355075  21.6644137  80.7216244
 121.3955372  21.8146490  80.1941227 122.4849972  19.4202728  78.4737320
 122.2615626  18.6621557  78.8421346 121.9959815  19.4500749  77.7517759
 122.3793421  19.3124952  78.4214061 121.1328429  19.6403186  75.9274404
 120.7188828  18.9777316  75.5378246 121.8175803  19.7881045  75.4070098
 121.1726801  19.5643844  75.7930901 124.4993723  18.7993271  76.6798021
 124.1010006  18.9095542  75.9118841 123.8844943  19.0075338  77.2624581
 124.3492612  18.8466839  76.6529320 118.0982899  20.0812268  78.3287750
 118.4129458  20.8948656  78.3365532 118.5076312  19.6962486  78.9969909
 118.2050997  20.1440970  78.4291842 124.0843966  28.6093221  74.5676740
 123.8494151  27.7760873  74.4609009 124.2229607  28.8897886  73.7537941
 124.0699629  28.5276724  74.4319095 123.8546112  26.8342585  79.9586562
 123.5884527  26.0181702  80.1177552 123.8684676  26.8795741  79.0882077
 123.8170834  26.7199490  79.8540044 124.2639525  27.6201365  77.2398306
 124.0815099  27.5948251  76.3870598 124.9989194  28.0900302  77.2787215
 124.3453589  27.6862727  77.1196224 124.2310436  24.4994865  77.3897372
 124.8083938  24.3631316  78.0289618 123.5324497  24.0430649  77.6442957
 124.2131457  24.4117132  77.5219662 119.7069269  23.3506758  74.1045191
 119.7929521  22.9738627  74.8858721 120.3345066  22.9767204  73.6265149
 119.8125820  23.2392240  74.1490668 125.2945228  32.1198491  78.1576552
 125.3349373  32.3913342  77.3296331 125.8539752  32.6440399  78.5734340
 125.3828574  32.2374246  78.0968440 124.4631384  21.0248853  72.2328075
 124.5647521  21.8275014  72.5609051 125.2587271  20.8236189  71.9351156
 124.5959290  21.1134752  72.2363430 125.2795116  21.1396031  79.9749197
 125.1380608  20.2879972  80.0993705 125.5635680  21.1824692  79.1511403
 125.3002962  21.0195781  79.8716821 124.7408439  23.6442063  73.4207469
 125.1207404  24.0626608  72.7567736 124.1663804  24.2255519  73.7276312
 124.7119764  23.7919922  73.3684210 125.8614807  22.8322005  75.8807714
 125.4671505  22.9065017  75.1057824 125.3054924  23.2179951  76.4316076
 125.7217620  22.9003780  75.8475374 125.5323910  29.2780328  80.6148512
 125.0023835  28.5872767  80.6643487 125.8049004  29.2690513  79.7861221
 125.4948633  29.1747460  80.4995928 120.8119753  25.9508092  77.9716861
 120.7063202  25.9054936  77.1068945 120.0619973  26.2961873  78.2531146
 120.6855356  25.9949000  77.8854190 122.9499033  24.0851145  80.4889863
 122.4025752  23.4151791  80.6070731 123.7391411  23.7180993  80.5533330
 122.9851217  23.9316132  80.5158563 121.7086002  23.2971953  77.6435886
 121.5307764  22.8448562  78.3690801 121.4205025  24.0998115  77.8274363
 121.6398956  23.3494511  77.7779388 123.4458472  25.8299677  74.7557645
 122.5803992  25.8185367  74.6440416 123.5457288  25.6429900  75.6028784
 123.3332639  25.8005738  74.8646589 121.6479785  28.5305302  77.8465282
 121.5504063  27.7201573  78.1555338 122.4308654  28.5097095  77.4611550
 121.7495921  28.4072392  77.8352145  48.8869871  70.4429371 133.1612308
  48.5521239  71.1206293 132.7256530  49.3996741  70.0534682 132.5729179
  48.9135452  70.4853949 133.0099099  53.6720661  63.9717935 135.4854909
  53.5560187  64.7225621 135.9147047  54.4676547  63.7141888 135.7350996
  53.7725250  64.0452782 135.5859000  51.3949966  64.7025579 133.7969198
  51.3101261  65.5586546 133.9418767  51.8834350  64.4269903 134.4651358
  51.4538864  64.7882900 133.9171280  49.0601922  67.5807083 132.0065254
  49.4753070  67.2492107 131.3149750  48.2293851  67.3475986 131.8785391
  48.9989930  67.4978339 131.8856102  51.7535312  63.8317643 131.1926456
  51.6715474  63.9019830 132.0581443  52.3915032  64.3947387 131.0010196
  51.8355149  63.9256614 131.2916405  45.6509388  70.7666780 135.7414634
  45.9407686  70.3755761 135.0173861  46.3812869  70.9483485 136.1819909
  45.8016272  70.7360594 135.6997441  45.7583259  74.1163552 137.5905476
  46.4107317  73.5839995 137.8196502  45.0608868  73.7632205 137.9773350
  45.7513977  73.9853075 137.6817644  53.7523178  66.4367967 136.9336455
  54.3181210  67.0961176 136.8494998  53.1051081  66.7817665 137.4052857
  53.7401934  66.5849908 136.9909212  50.2229756  69.3806751 136.3573534
  49.9816432  68.6474611 135.9500599  50.4031089  69.9293608 135.7039868
  50.2137380  69.3529142 136.2003757  54.9485875  66.4874194 133.7262092
  54.5692684  65.7011332 133.7191381  54.2852121  67.0361051 133.5833736
  54.7944350  66.4519018 133.7042889  50.2951444  67.0699897 129.5450867
  51.0624429  67.1300022 129.1356719  49.8482753  66.4980338 129.0607186
  50.3424871  66.9936473 129.4128578  53.1945974  68.7319685 134.0613778
  53.2765812  69.5386671 133.7375229  53.6795716  68.7515644 134.7854551
  53.2783132  68.8540348 134.1200676  46.9990517  68.6731808 134.3145219
  47.0683337  67.8146346 134.4538220  47.7778972  68.8903689 133.9864244
  47.1243367  68.5784672 134.2862377  51.3898004  71.0969509 138.5281713
  50.9977796  70.7936224 137.8104579  51.5451077  71.9338599 138.3386666
  51.3551594  71.1753346 138.3938210  46.3426045  63.3418663 131.0087978
  46.6318569  64.1183546 131.2831552  46.4297843  62.8307395 131.7102477
  46.3980301  63.3810582 131.1530475  50.6894746  67.3055490 134.3951321
  51.4128945  67.7713603 134.2515895  50.2495337  67.3729100 133.6448918
  50.7310438  67.3839327 134.2636103  50.9498596  71.3676195 134.5549383
  50.2327905  71.1937057 134.0896620  51.6005333  71.1328767 134.0224869
  50.9400446  71.3071987 134.4078600  57.3318894  66.3380006 135.1206238
  57.7152500  67.0871362 135.3504335  56.5363008  66.5845825 134.8618227
  57.2712677  66.4849699 135.1163811  59.6477805  76.9824550 132.5743322
  59.8873809  77.1902534 131.7618665  59.9693646  76.1782059 132.6832267
  59.7314963  76.8938651 132.4703875  54.9568096  68.9117946 136.4202860
  55.7114064  69.2796263 136.1819910  54.7795630  69.2857500 137.1882040
  55.0422574  69.0216134 136.4987749  53.3125160  71.3188265 133.1180973
  53.1300733  71.5360145 132.2921966  54.1750773  71.4327277 133.1739587
  53.4129750  71.3678163 133.0035460  58.9924879  68.3214675 136.1529997
  59.7211040  68.1430630 135.7068153  59.0819772  69.1632755 136.3637175
  59.1131541  68.4198554 136.1183514  52.8587187  74.5962437 131.6303446
  52.1445364  74.3100617 132.0425879  53.3431156  74.9359063 132.2709834
  52.8246551  74.6044087 131.7859081  51.9886518  73.2102408 136.4407920
  51.7011314  72.8403679 135.7039868  52.6756986  73.6797263 136.1791625
  52.0475416  73.2249378 136.2922996  49.5614713  73.9883621 137.2893201
  49.6630849  74.7909782 137.6174177  50.3570600  73.7870957 136.9916282
  49.6942618  74.0769519 137.2928557  57.3158628  78.8603971 131.0087978
  57.6051153  79.6368854 131.2831552  57.4030427  78.3492703 131.7102477
  57.3712884  78.8995890 131.1530475  59.8515852  71.0832672 135.1976984
  60.3059598  71.2543232 135.9224829  60.3255897  70.4700783 134.7974760
  59.9884172  71.0183557 135.2450746  54.1023312  72.5239754 130.2882560
  53.7536117  73.1759479 130.7514109  53.6219758  72.5096867 129.5606431
  53.9793556  72.6182807 130.2493651  54.5047443  76.0165395 133.1301181
  55.1392523  76.6125820 133.0650643  54.5873054  75.7168853 133.9447051
  54.6103994  76.0606304 133.2404268  56.0826426  71.9479371 133.1046623
  56.4042267  71.4682453 132.4505885  56.3453370  72.7579017 132.9137435
  56.1692452  71.9969269 132.9802115  59.1437537  73.8887495 134.6037287
  58.5502377  74.2104491 134.0521854  59.1812815  73.0428590 134.3958393
  59.0611926  73.8111823 134.4920058  57.1166770  74.5284745 132.6966617
  57.4965734  74.5464374 131.9117731  56.3759366  74.9738734 132.5757464
  57.0635607  74.5966520 132.5630185  57.1085940  70.7546273 135.3794248
  57.9301635  70.9244586 135.1375943  56.6455591  70.9093534 134.6560546
  57.1617102  70.8028006 135.2365893  48.5820695  47.3807502 120.0952355
  48.2472063  48.0584424 119.6596577  49.0947565  46.9912813 119.5069226
  48.6086276  47.4232080 119.9439146  53.3671485  40.9096066 122.4194955
  53.2511011  41.6603752 122.8487093  54.1627371  40.6520019 122.6691042
  53.4676074  40.9830913 122.5199047  51.0900790  41.6403710 120.7309245
  51.0052085  42.4964677 120.8758814  51.5785173  41.3648034 121.3991404
  51.1489688  41.7261032 120.8511327  48.7552746  44.5185214 118.9405301
  49.1703894  44.1870238 118.2489797  47.9244675  44.2854117 118.8125438
  48.6940754  44.4356470 118.8196148  51.4486136  40.7695774 118.1266503
  51.3666298  40.8397961 118.9921490  52.0865856  41.3325518 117.9350243
  51.5305973  40.8634745 118.2256452  45.3460212  47.7044911 122.6754681
  45.6358510  47.3133893 121.9513907  46.0763693  47.8861616 123.1159956
  45.4967096  47.6738725 122.6337488  49.9180580  46.3184882 123.2913581
  49.6767255  45.5852743 122.8840646  50.0981912  46.8671739 122.6379915
  49.9088204  46.2907273 123.1343804  54.6436699  43.4252325 120.6602139
  54.2643508  42.6389463 120.6531428  53.9802945  43.9739182 120.5173783
  54.4895174  43.3897149 120.6382935  49.9902268  44.0078028 116.4790914
  50.7575253  44.0678153 116.0696766  49.5433577  43.4358470 115.9947233
  50.0375695  43.9314604 116.3468624  52.8896798  45.6697816 120.9953824
  52.9716636  46.4764803 120.6715275  53.3746540  45.6893776 121.7194598
  52.9733956  45.7918479 121.0540723  46.6941341  45.6109939 121.2485266
  46.7634161  44.7524477 121.3878267  47.4729796  45.8281820 120.9204291
  46.8194191  45.5162803 121.2202423  51.0848828  48.0347640 125.4621759
  50.6928620  47.7314355 124.7444626  51.2401901  48.8716730 125.2726713
  51.0502418  48.1131477 125.3278257  46.0376868  40.2796794 117.9428024
  46.3269393  41.0561677 118.2171599  46.1248667  39.7685526 118.6442524
  46.0931125  40.3188713 118.0870522  50.3845570  44.2433621 121.3291368
  51.1079769  44.7091734 121.1855942  49.9446161  44.3107231 120.5788965
  50.4261262  44.3217458 121.1976150  50.6449420  48.3054326 121.4889429
  49.9278729  48.1315188 121.0236667  51.2956157  48.0706898 120.9564915
  50.6351270  48.2450119 121.3418647  57.0269718  43.2758137 122.0546285
  57.4103324  44.0249493 122.2844382  56.2313832  43.5223956 121.7958274
  56.9663501  43.4227831 122.0503858  66.5187494  53.8529072 124.1476645
  66.4881498  54.7073708 124.3194915  67.1168843  53.5524364 124.7062789
  66.6024652  53.9345568 124.2551448  59.7187179  52.9404723 128.9029576
  58.8625074  53.1013221 128.9538693  59.7654832  52.0696787 128.9234637
  59.5986290  52.8355525 128.9135642  54.1028318  62.4767441 124.6666808
  53.3511218  62.0982979 124.4382853  54.5514330  62.5085874 123.9185618
  54.0577985  62.4253048 124.5224310  59.5553278  62.8992810 120.0952355
  59.2204647  63.5769732 119.6596577  60.0680149  62.5098121 119.5069226
  59.5818859  62.9417388 119.9439146  59.0957569  64.8507079 126.0363466
  59.4796949  65.4193977 125.4968241  59.0316711  64.1256589 125.5569282
  59.1430997  64.8282542 125.8857329  62.5639000  54.9996767 131.5461228
  63.1094960  55.6781853 131.6055197  62.5055876  54.8584228 130.6862809
  62.6354914  55.0788768 131.4273288  55.6813074  62.4885833 126.9329580
  55.7823437  61.6786187 127.2426708  55.0854820  62.3942779 126.3029259
  55.6085613  62.3550861 126.8855818  64.3404068  56.4281374 122.4194955
  64.2243594  57.1789060 122.8487093  65.1359955  56.1705327 122.6691042
  64.4408658  56.5016221 122.5199047  55.5213814  67.4063422 128.3344436
  56.1651270  67.8476586 128.7240594  55.8470070  66.6016848 128.2474695
  55.6645643  67.3528617 128.3789913  48.8778119  58.5106119 126.5581914
  48.6428303  57.6773772 126.4514182  49.0163760  58.7910785 125.7443115
  48.8633781  58.4289623 126.4224269  56.2234394  60.4175397 123.7064298
  56.5450235  60.9580604 123.1025606  56.8706490  59.8472168 123.8386588
  56.3660449  60.4134572 123.6371333  58.2736102  52.4191392 123.7898684
  58.9716267  52.5979519 124.2820148  58.5888434  51.8961731 123.1669074
  58.4231439  52.3685164 123.7700695  58.4624037  58.8061837 123.7778476
  58.9017673  58.1978937 124.2233249  58.3128700  58.4269210 123.0063941
  58.5045503  58.6600308 123.7297643  55.9295680  57.4005849 130.9797301
  56.5744683  56.9078292 130.6608250  56.1697457  57.5430635 131.8063380
  56.0606265  57.3483291 131.0546835  58.4681772  60.2460754 130.6304194
  58.7505014  59.4512160 130.4090950  59.1967932  60.7241342 130.6509255
  58.6171335  60.1995351 130.6007209  62.0633374  57.1589018 120.7309245
  61.9784669  58.0149985 120.8758814  62.5517757  56.8833342 121.3991404
  62.1222271  57.2446339 120.8511327  63.6539373  43.7769311 126.1169570
  63.3392814  44.4672790 126.5489992  63.1366315  43.7214094 125.4155070
  63.5303844  43.8704200 126.0766519  62.9951807  53.7773812 122.2306980
  62.4663279  53.9933446 122.8904287  63.5176827  54.4709951 122.1507950
  62.9940260  53.9116949 122.3162580  68.4499860  59.3520117 127.6040025
  67.6197563  59.5630760 127.7673441  68.4009112  58.5257171 127.3282308
  68.3206595  59.2609723 127.5877390  54.8851415  57.6737029 121.0314448
  54.3008630  58.1787060 121.4380312  54.4821510  57.4479416 120.2911040
  54.7390719  57.7145277 120.9819474  50.4395443  63.3891790 127.8338120
  49.9563022  64.1142280 127.8097703  51.2518762  63.6867920 127.9448278
  50.4886191  63.5394144 127.8465399  56.5109598  62.1823971 130.4387934
  55.9936539  61.8231386 129.8349242  57.2083989  61.6586145 130.4494000
  56.5375179  62.0521659 130.3518193  60.1673190  62.6318785 136.4004107
  60.2556535  62.4444925 137.2482318  60.5962902  61.9856214 136.0008954
  60.2435292  62.5081793 136.4675859  57.7343649  61.9149945 135.3821770
  57.1714484  61.5022555 135.9061431  58.4964673  61.8402851 135.8014913
  57.7638098  61.8427345 135.5214770  59.3428629  53.9202681 119.5083369
  59.5824633  54.1280665 118.6958712  59.6644470  53.1160190 119.6172313
  59.4265787  53.8316782 119.4043922  54.6518920  45.8496077 123.3542907
  55.4064888  46.2174394 123.1159957  54.4746454  46.2235631 124.1222086
  54.7373398  45.9594265 123.4327795  53.2939641  63.9047966 127.9858400
  53.9960220  63.3899955 128.0431156  53.2137124  64.2322117 128.7905275
  53.3863401  63.8762192 128.1131192  67.9453818  51.9990517 131.3990446
  67.1082239  52.0692704 131.6338041  67.9142049  52.0015012 130.5264748
  67.8172101  52.0100744 131.3049994  53.0075984  48.2566396 120.0521020
  52.8251557  48.4738277 119.2262013  53.8701597  48.3705409 120.1079634
  53.1080574  48.3056294 119.9375507  52.6190416  60.0954318 127.4944008
  53.4579316  60.3277251 127.5417769  52.6502185  59.2258629 127.4251043
  52.7472134  60.0011264 127.4908652  53.2443119  60.5155193 131.7957313
  53.7841344  60.3726324 132.4660686  52.5613065  60.9151944 132.1641339
  53.2235273  60.5534864 131.9491735  58.6875703  45.2592807 123.0870044
  59.4161864  45.0808761 122.6408200  58.7770596  46.1010886 123.2977222
  58.8082365  45.3576685 123.0523561  62.6684004  56.1946194 126.9902338
  63.4241519  56.6277708 127.0291246  62.7746329  55.5450964 127.5636974
  62.7954175  56.1623678 127.0800363  65.7064175  60.0219471 127.7404741
  65.2699407  60.0256214 128.4963712  65.3727091  60.7024970 127.3084318
  65.5926795  60.1231927 127.7885573  65.6261658  47.0633299 129.9834169
  66.2687567  47.1331404 130.5696084  65.8784679  46.3962522 129.4813710
  65.7583790  46.9759648 129.9961448  52.5538011  51.5340568 118.5643493
  51.8396188  51.2478748 118.9765925  53.0381980  51.8737194 119.2049880
  52.5197375  51.5422218 118.7199128  60.4363642  63.9737906 132.7114346
  59.6378888  63.7337406 132.9688215  60.8849654  64.0252299 133.4581394
  60.3838253  63.9460297 132.8599271  68.8408521  56.7400391 126.6324378
  69.5024955  56.1791059 126.5320286  68.1999933  56.2452422 126.9577069
  68.8437389  56.5836800 126.6656718  59.7285329  60.0370522 118.9405301
  60.1436478  59.7055546 118.2489797  58.8977259  59.8039425 118.8125438
  59.6673338  59.9541778 118.8196148  49.0573678  57.5214263 129.2303479
  48.8749251  57.4961149 128.3775771  49.7923347  57.9913201 129.2692388
  49.1387742  57.5875626 129.1101397  65.1273352  57.7565773 126.3736367
  65.3628941  57.9010972 125.5463217  65.2762916  58.5208181 126.7667880
  65.1839155  57.8904828 126.3099970  66.9563809  56.5967439 124.2105970
  67.2872026  57.1295079 123.6046065  67.5296897  56.6506327 124.8667921
  67.0897488  56.6837008 124.2183752  62.1695698  54.4432342 124.8929551
  62.2642552  55.1821636 125.3469176  61.5454541  54.0149818 125.3264115
  62.0904728  54.4893663 125.0237698  62.4218719  56.2881082 118.1266503
  62.3398882  56.3583269 118.9921490  63.0598440  56.8510826 117.9350243
  62.5038557  56.3820053 118.2256452  55.7811890  56.0541820 127.5941029
  55.5231135  55.2213555 127.5672328  55.8360373  56.2799433 126.7533529
  55.7511668  55.9639591 127.4661166  60.8612941  48.1570270 127.6945121
  60.1569267  47.6679456 127.8529041  60.9097915  48.1692745 126.8233566
  60.7642992  48.0859918 127.5884461  54.7546603  53.6079582 128.0805924
  54.1796194  53.7671751 128.7169885  54.3782279  52.9714991 127.6174374
  54.6149415  53.5377395 128.1060482  68.0643160  51.8377936 125.7146132
  67.8079725  51.0257878 125.5244015  68.9072474  51.8455503 125.4876319
  68.1509186  51.7189934 125.6530949  59.5258829  56.3101536 121.1375109
  60.3399468  56.6016429 121.0257880  59.4617971  55.6561398 120.5633402
  59.6361568  56.2566731 121.0363946  65.7468320  58.9927532 135.5504685
  65.5106957  58.1615597 135.4316745  66.3911549  58.9413139 136.1359529
  65.8062990  58.8625220 135.6190578  55.3966738  59.7823054 126.2647421
  56.0340685  59.5434801 126.8099214  55.8221809  59.9860212 125.5300582
  55.5542904  59.7774064 126.2364578  50.0879380  62.0211390 130.1481725
  50.1283525  62.2926241 129.3201504  50.6473904  62.5453298 130.5639513
  50.1762726  62.1387145 130.0873613  56.0369553  55.0025343 120.6022310
  56.4214705  54.7833050 121.3538856  55.7881173  55.8288289 120.7323387
  56.0571625  55.0923490 120.7323387  66.7704740  58.7771981 131.6132979
  66.4650557  59.5100038 131.9746295  66.0510956  58.3709911 131.3325765
  66.6192083  58.8253714 131.6246116  57.7788210  60.2595476 127.9441207
  57.8527218  60.0970648 128.7983057  58.5957716  60.4485666 127.7001689
  57.9104568  60.2632219 128.0339233  72.4706532  55.4164982 130.9401323
  72.4031033  55.4360941 130.0703910  72.4562195  56.2595309 131.1656994
  72.4585289  55.5438716 130.8453800  51.5393966  60.6053339 124.9735651
  50.7132084  60.8515076 124.8469930  51.6005958  60.5265420 125.8397709
  51.4268133  60.6298288 125.0824595  56.3192795  63.2230219 122.6754681
  56.6091094  62.8319201 121.9513907  57.0496276  63.4046924 123.1159956
  56.4699680  63.1924033 122.6337488  70.2565150  54.1909368 129.2147918
  70.8073071  53.5577437 129.4545010  70.2409265  54.7224761 129.9063422
  70.3350346  54.1758316 129.3526776  56.9087541  58.0247965 133.7607811
  56.4099234  58.7363733 133.8392700  57.7187765  58.3448632 133.7225974
  56.9543647  58.1774814 133.7664380  54.2598711  65.1997602 125.7414830
  54.0399006  64.9094956 126.5341497  54.0393233  64.5412557 125.2132743
  54.1946305  65.0597310 125.7803739  53.1715658  57.2870918 128.0070532
  52.8828907  56.6608389 128.5416259  54.0399006  57.2291206 128.0735213
  53.2575910  57.1858462 128.0961487  63.9593556  52.4305702 128.3252514
  63.6158322  51.7096037 128.6759764  64.0586598  52.2219553 127.4830872
  63.9235599  52.2929905 128.2524194  56.4266667  66.5726992 124.5245523
  57.0790725  66.0403434 124.7536549  55.7292275  66.2195644 124.9113397
  56.4197385  66.4416515 124.6157691  53.3747932  58.9266169 123.9312897
  54.1293900  59.3079208 124.1448360  52.7818544  59.3777313 124.3859594
  53.3984645  59.0494997 124.0295776  64.4206585  58.8931406 123.8676502
  64.9864618  59.5524616 123.7835045  63.7734488  59.2381104 124.3392904
  64.4085341  59.0413347 123.9249259  54.6946158  60.0974731 129.3053013
  54.1726912  60.2375022 129.9904877  55.0820178  59.3385395 129.4955130
  54.6749859  60.0060254 129.4354089  51.6837342  50.1480539 123.3747967
  51.3962138  49.7781810 122.6379915  52.3707810  50.6175395 123.1131672
  51.7426239  50.1627509 123.2263043  60.8913163  61.8370190 123.2913581
  60.6499839  61.1038050 122.8840646  61.0714496  62.3857047 122.6379915
  60.8820787  61.8092581 123.1343804  56.1212484  57.1278750 124.7034504
  55.9255266  57.7353484 124.1094807  56.3446829  56.4346694 124.2226178
  56.1247125  57.1156275 124.5450584  54.5191014  54.0133488 124.8215372
  55.2413666  54.1774646 124.3619178  54.0399007  54.7343152 124.7154712
  54.5554744  54.1431717 124.7380986  62.4784521  50.3497286 130.2012057
  61.6395622  50.3758565 129.9650320  62.5488889  50.9968022 130.7817404
  62.3652915  50.4493412 130.2521174  60.9253800  47.2482663 124.9339673
  61.6280152  47.0490412 124.4559631  60.6597988  46.4758606 125.2408516
  60.9900432  47.1045629 124.9085114  66.3542045  55.5565273 127.4873299
  66.2676020  55.7120699 128.3408077  65.8992525  56.2003349 127.1132704
  66.2745302  55.6741028 127.5580405  49.2565537  50.9261752 124.2233248
  49.3581673  51.7287913 124.5514224  50.0521424  50.7249088 123.9256329
  49.3893442  51.0147651 124.2268604  60.2267861  52.8776020 126.1098858
  59.9802576  52.7971771 126.9435647  60.5552984  52.0929488 125.9161386
  60.2389105  52.7502286 126.2046381  64.1215910  59.5859380 129.8985639
  63.9830269  60.2840425 130.4034382  63.3415908  59.4308036 129.5421821
  63.9859137  59.6659546 129.9211914  55.2592644  63.8035511 132.3882868
  55.4082207  63.2438426 131.7356272  56.0392646  63.8827512 132.7715387
  55.3966737  63.7321076 132.3479817  65.6169283  58.9437633 120.6602139
  65.2376092  58.1574771 120.6531428  64.9535528  59.4924490 120.5173783
  65.4627758  58.9082457 120.6382935  57.7845944  63.9750153 133.6667359
  57.7089615  63.3058964 134.2218147  57.7135803  64.6767942 134.1808025
  57.7626551  63.9795061 133.8244207  58.4416191  62.4951152 124.4990965
  59.2066082  62.2260796 124.1773629  58.3394281  62.0101163 125.2161028
  58.5397687  62.3840717 124.5570792  60.9634852  59.5263336 116.4790914
  61.7307837  59.5863461 116.0696766  60.5166161  58.9543778 115.9947233
  61.0108279  59.4499912 116.3468624  61.8612647  58.3317992 128.7643646
  61.1857649  58.1003224 129.2657034  61.8705023  57.7239175 128.1385752
  61.7631152  58.2076917 128.7459799  63.8629382  61.1883124 120.9953824
  63.9449219  61.9950111 120.6715275  64.3479124  61.2079084 121.7194598
  63.9466540  61.3103787 121.0540723  57.6725885  55.8667960 129.6623902
  57.2488134  56.0672459 128.9262921  57.4970740  55.0196808 129.7748202
  57.5836766  55.7716742 129.5697592  57.1737578  67.3818473 132.1245360
  57.6633509  66.6829262 131.9421024  56.6021811  67.0842343 132.7121417
  57.1622108  67.2344697 132.1846400  52.9608330  56.3620012 125.0951875
  53.1172949  56.2966815 125.9507867  53.3008923  57.1368564 124.8830555
  53.0341565  56.4669210 125.1906469  59.4987475  55.7377895 123.9645238
  60.0403020  55.2348276 124.4283859  59.8134034  55.6843090 123.1534723
  59.6251872  55.6557316 123.9129050  57.6673924  61.1295247 121.2485266
  57.7366745  60.2709785 121.3878267  58.4462379  61.3467128 120.9204291
  57.7926774  61.0348111 121.2202423  62.0581412  63.5532948 125.4621759
  61.6661204  63.2499663 124.7444626  62.2134484  64.3902038 125.2726713
  62.0235002  63.6316785 125.3278257  49.5342591  53.5454962 125.4112642
  49.9141556  53.9639507 124.7472909  48.9597956  54.1268418 125.7181485
  49.5053916  53.6932821 125.3589383  62.2221087  60.1182937 125.4027790
  61.8635741  60.2897580 126.1791822  61.7359797  60.5796143 124.8455789
  62.0979784  60.2121908 125.4353059  57.0109452  55.7982102 117.9428024
  57.3001977  56.5746985 118.2171599  57.0981251  55.2870834 118.6442524
  57.0663708  55.8374021 118.0870522  63.3825826  61.0086833 136.3494991
  64.0205547  60.5147029 136.0157447  62.7399918  60.9364233 135.7647218
  63.3820053  60.9245841 136.2137346  65.1082826  52.8575979 130.9160907
  64.6810434  52.7702327 130.1609006  64.4708879  52.9653754 131.5015751
  64.9512433  52.8608639 130.8906348  63.4380083  61.7006641 132.9900348
  64.2272461  61.3495706 133.1102429  63.6123680  62.5143030 132.7276981
  63.5800364  61.7692498 132.9688216  53.1773393  55.1115367 130.0428136
  52.3361400  55.0119241 130.2507030  53.3863401  55.8810847 130.3942457
  53.0838086  55.2107410 130.1255451  50.6548960  52.7334904 127.8712887
  50.2605658  52.8077916 127.0962997  50.0989077  53.1192850 128.4221249
  50.5151772  52.8016678 127.8380547  62.2913907  45.7116198 127.5516766
  62.4963500  45.6438506 128.3973763  61.9640331  46.5175019 127.4837943
  62.2729155  45.8202138 127.6676421  56.9890058  53.0396766 129.2925734
  56.6853195  52.4852754 129.8936142  56.2869479  53.2188976 128.8053768
  56.8406268  52.9841548 129.3095440  56.0456155  50.3497286 123.8570436
  56.3215889  49.6316198 123.4448003  56.6454824  50.9482206 123.6491542
  56.1749420  50.3317657 123.7651197  65.5447594  46.2647962 127.0319532
  64.9321908  46.7518364 127.4173263  65.6411769  45.5891453 127.5757183
  65.4685492  46.2366271 127.1698390  59.5466675  48.0210803 122.1317031
  60.0010422  48.1921364 122.8564875  60.0206721  47.4078914 121.7314807
  59.6834996  47.9561689 122.1790792  53.0682201  57.5059129 131.4619769
  52.4770134  58.1468627 131.4322784  53.8303224  57.9296746 131.4351069
  53.0930461  57.6634968 131.4534917  69.1872622  57.3364899 132.4597048
  69.2455746  57.7851548 133.2057024  68.5539090  57.7463712 132.0227128
  69.1023918  57.4638634 132.5049596  62.8271717  62.9568441 128.8951794
  62.6291406  63.4459255 128.2008005  62.2059428  63.1609682 129.4735927
  62.7059282  63.0584979 128.8775017  56.8879695  54.7253338 123.2362038
  57.6321740  55.1127614 123.4744988  57.0340392  53.8810763 123.4002526
  57.0190281  54.6583810 123.2956008  59.8757571  50.2978811 129.1355957
  59.4017526  49.7720573 129.6461268  60.2475707  49.7508284 128.5670819
  59.8607460  50.1394808 129.1271105  66.1394302  55.3581187 130.5462738
  65.8992525  54.5187602 130.5505164  66.6186309  55.4381353 131.2703511
  66.1746486  55.2462586 130.6537540  61.8041071  51.1915366 122.1981711
  61.2764090  51.2744110 121.5087420  62.2636779  51.9333237 122.1946356
  61.7942921  51.3136028 122.0956406  68.1399489  52.1382644 128.4991997
  67.9009259  52.0978478 127.6612782  68.3033390  52.9853796 128.6257718
  68.1289792  52.2574729 128.3945479  64.7445519  56.5232593 134.4297042
  65.4679718  56.0705120 134.2508062  64.4795481  56.8037259 133.6469370
  64.8126792  56.4983562 134.2875758  53.7974136  49.4617885 117.2222606
  53.4486940  50.1137610 117.6854156  53.3170582  49.4474998 116.4946478
  53.6744380  49.5560939 117.1833698  61.3578153  59.7618929 121.3291368
  62.0812352  60.2277042 121.1855942  60.9178745  59.8292539 120.5788965
  61.3993846  59.8402766 121.1976150  60.5264309  56.6216471 132.5792057
  59.9121302  56.0774522 132.8740693  61.0431593  56.1080708 132.0997873
  60.5119971  56.4652880 132.5516286  59.7660606  57.6920741 130.3136356
  59.3388214  57.0670460 129.8801791  59.7585550  57.4095663 131.1395363
  59.7019747  57.5573522 130.3716183  54.1698045  52.0876416 122.7348651
  54.3101006  52.5848880 123.4377292  54.6680578  51.3862710 122.8762865
  54.2639126  52.0578394 122.8600230  54.1998267  52.9543527 120.0641228
  54.8343347  53.5503952 119.9990690  54.2823878  52.6546984 120.8787098
  54.3054818  52.9984435 120.1744314  67.1780833  55.4859004 132.9327592
  67.7698673  56.1256255 132.9645790  67.6139828  54.7882041 133.2219659
  67.3299264  55.4777354 132.9808425  55.7777250  48.8857502 120.0386670
  56.0993091  48.4060584 119.3845932  56.0404194  49.6957148 119.8477481
  55.8643276  48.9347400 119.9142162  59.0074223  59.9076376 133.5585486
  58.4999314  60.4612223 134.0026116  58.7100869  59.9684666 132.7404260
  58.8879108  59.9982688 133.5033943  50.7051255  55.1511367 123.3330774
  51.2143484  55.7475875 123.7142079  51.1785527  54.8837341 122.6507193
  50.8494631  55.1997183 123.2885297  61.6182003  63.8239634 121.4889429
  60.9011313  63.6500496 121.0236667  62.2688741  63.5892206 120.9564915
  61.6083854  63.7635427 121.3418647  59.6130628  44.7444796 125.8100726
  58.9698946  44.5942442 126.3785864  59.2730035  44.4987141 125.0449830
  59.4675705  44.6856918 125.7803741  64.2029974  52.7004223 125.2330734
  63.5321164  53.2433925 125.1043800  64.8969725  53.1699078 124.9912429
  64.2058842  52.8502494 125.1786262  58.2516708  64.8400935 130.4642493
  58.0282363  64.0819764 130.8326519  57.7626551  64.8698956 129.7422932
  58.1460157  64.7323159 130.4119234  64.3658102  49.1560106 128.1421108
  64.7185712  48.7289829 128.8166906  63.5072903  49.0710950 128.2722184
  64.2907547  49.0804847 128.2616118  53.0641787  51.7867626 126.2003954
  52.3453776  52.2031758 126.4676818  53.4354149  52.3521865 125.6495592
  53.0133719  51.9316907 126.1586761  56.8995165  65.0601393 127.9179577
  56.4855564  64.3975523 127.5283419  57.5842539  65.2079251 127.3975272
  56.9393537  64.9842051 127.7836075  60.2660459  64.2191478 128.6703194
  59.8676742  64.3293748 127.9024014  59.6511679  64.4273544 129.2529754
  60.1159349  64.2665046 128.6434493  58.8388361  50.8265626 121.5377334
  58.2453201  51.1482622 120.9861901  58.8763639  49.9806721 121.3298440
  58.7562750  50.7489954 121.4260105  65.7982162  44.2778518 129.0705420
  65.2913027  43.5707658 129.0026598  66.5949596  43.9471707 129.2006497
  65.8409401  44.1251669 129.0804415  61.7146178  50.7845130 124.9679084
  61.4859871  50.8077832 124.1257442  61.9744254  49.9602597 125.0874094
  61.7192366  50.6661210 124.8604282  54.7690940  49.3221677 126.2633280
  55.2448307  49.6838756 125.6283461  54.2679540  49.9778144 126.5433422
  54.7656299  49.4715865 126.2110021  68.0002302  58.7943445 122.0546285
  68.3835908  59.5434801 122.2844382  67.2046415  59.0409264 121.7958274
  67.9396084  58.9413138 122.0503858  56.8117593  51.4662876 119.6306664
  57.1916558  51.4842506 118.8457778  56.0710190  51.9116865 119.5097511
  56.7586431  51.5344651 119.4970232  64.4402884  49.7745068 125.2182242
  64.4397110  49.6193724 126.0766519  64.2359064  50.6208055 125.1623628
  64.4102662  49.8765688 125.3370182  62.1643736  54.4542569 128.8718449
  62.6597401  53.7365564 128.8322469  61.3543512  54.1513367 128.7572936
  62.1187629  54.3040216 128.8492175  57.6102348  58.3040383 121.0215454
  56.8013670  57.9807056 120.9748763  58.1177256  57.5973605 120.9543702
  57.5652014  58.1521699 121.0045748  48.2392625  55.7312576 126.7462818
  47.3738144  55.7198266 126.6345589  48.3391441  55.5442799 127.5933957
  48.1266792  55.7018637 126.8551762  64.2295555  57.2046257 131.5595578
  64.6550626  56.6820679 131.0066003  63.8652475  57.8027094 131.0384201
  64.2382157  57.2156484 131.4004588  53.8649635  65.5010474 130.3192923
  54.1796194  66.3146863 130.3270705  54.2743048  65.1160693 130.9875083
  53.9717733  65.5639177 130.4197015  60.8174154  60.9180521 127.8896735
  61.2885333  61.6320784 128.0586721  61.1534333  60.3179271 128.4256605
  60.9369269  60.9351985 127.9929111  61.4548101  60.7098455 134.6524428
  60.9069047  60.0856339 134.3844493  61.9161129  60.8992727 133.9368507
  61.4415310  60.6457505 134.5074859  56.8036764  47.6924405 122.3134295
  57.6252459  47.8622717 122.0715990  56.3406415  47.8471666 121.5900593
  56.8567926  47.7406138 122.1705939  51.2062655  59.4483583 129.9671532
  51.8107512  59.4079417 129.3385353  50.9989967  60.2954735 129.9975588
  51.2651552  59.5671585 129.8787648  61.0206427  61.7149528 131.1833769
  61.8404801  61.5712494 131.4450064  60.7400505  62.3395727 131.7250207
  61.1003170  61.7859880 131.3021709  77.4920077  69.3714380 124.1476645
  77.4614082  70.2259016 124.3194915  78.0901426  69.0709672 124.7062789
  77.5757235  69.4530876 124.2551448  70.6919762  68.4590031 128.9029576
  69.8357658  68.6198529 128.9538693  70.7387416  67.5882095 128.9234637
  70.5718874  68.3540833 128.9135642  65.0760902  77.9952749 124.6666808
  64.3243801  77.6168287 124.4382853  65.5246914  78.0271182 123.9185618
  65.0310569  77.9438356 124.5224310  70.5285862  78.4178118 120.0952355
  70.1937230  79.0955040 119.6596577  71.0412732  78.0283429 119.5069226
  70.5551443  78.4602696 119.9439146  70.0690153  80.3692387 126.0363466
  70.4529532  80.9379285 125.4968241  70.0049294  79.6441897 125.5569282
  70.1163580  80.3467850 125.8857329  66.6545658  78.0071141 126.9329580
  66.7556021  77.1971495 127.2426708  66.0587403  77.9128087 126.3029259
  66.5818197  77.8736169 126.8855818  75.3136652  71.9466682 122.4194955
  75.1976178  72.6974368 122.8487093  76.1092539  71.6890635 122.6691042
  75.4141241  72.0201529 122.5199047  59.8510702  74.0291427 126.5581914
  59.6160887  73.1959080 126.4514182  59.9896343  74.3096093 125.7443115
  59.8366365  73.9474931 126.4224269  62.1500790  66.1977158 129.4566221
  61.5305821  65.6069805 129.2876236  62.0484653  66.7888593 128.8230545
  62.0438465  66.1981240 129.3371211  67.1966977  75.9360705 123.7064298
  67.5182818  76.4765912 123.1025606  67.8439074  75.3657476 123.8386588
  67.3393033  75.9319880 123.6371333  69.2468685  67.9376700 123.7898684
  69.9448850  68.1164827 124.2820148  69.5621018  67.4147039 123.1669074
  69.3964023  67.8870472 123.7700695  61.8769923  69.7429440 131.7009790
  61.7528620  70.3291885 132.3359609  62.5288207  69.2489635 132.0022065
  61.9543572  69.7568244 131.8395720  69.4356621  74.3247145 123.7778476
  69.8750256  73.7164245 124.2233249  69.2861284  73.9454518 123.0063941
  69.4778087  74.1785616 123.7297643  66.9028264  72.9191157 130.9797301
  67.5477266  72.4263600 130.6608250  67.1430041  73.0615943 131.8063380
  67.0338849  72.8668599 131.0546835  67.4195549  63.3069096 127.8719959
  67.0898879  63.7580240 127.2023658  66.7440551  63.2285260 128.4192966
  67.2705985  63.3620232 127.8543182  73.0365957  72.6774326 120.7309245
  72.9517252  73.5335293 120.8758814  73.5250341  72.4018650 121.3991404
  73.0954855  72.7631647 120.8511327  74.6271957  59.2954619 126.1169570
  74.3125398  59.9858098 126.5489992  74.1098898  59.2399401 125.4155070
  74.5036427  59.3889508 126.0766519  73.9684391  69.2959120 122.2306980
  73.4395862  69.5118754 122.8904287  74.4909411  69.9895259 122.1507950
  73.9672844  69.4302257 122.3162580  65.8583998  73.1922337 121.0314448
  65.2741214  73.6972368 121.4380312  65.4554094  72.9664724 120.2911040
  65.7123302  73.2330585 120.9819474  61.4128027  78.9077098 127.8338120
  60.9295605  79.6327588 127.8097703  62.2251345  79.2053228 127.9448278
  61.4618775  79.0579452 127.8465399  70.3161213  69.4387989 119.5083369
  70.5557217  69.6465973 118.6958712  70.6377054  68.6345498 119.6172313
  70.3998371  69.3502090 119.4043922  65.6251503  61.3681385 123.3542907
  66.3797471  61.7359702 123.1159957  65.4479038  61.7420939 124.1222086
  65.7105981  61.4779573 123.4327795  64.2672224  79.4233274 127.9858400
  64.9692804  78.9085263 128.0431156  64.1869707  79.7507425 128.7905275
  64.3595985  79.3947500 128.1131192  63.9808568  63.7751704 120.0521020
  63.7984141  63.9923585 119.2262013  64.8434181  63.8890716 120.1079634
  64.0813157  63.8241602 119.9375507  63.5923000  75.6139626 127.4944008
  64.4311899  75.8462559 127.5417769  63.6234769  74.7443937 127.4251043
  63.7204717  75.5196572 127.4908652  69.6608287  60.7778114 123.0870044
  70.3894447  60.5994069 122.6408200  69.7503180  61.6196194 123.2977222
  69.7814949  60.8761993 123.0523561  73.6416588  71.7131502 126.9902338
  74.3974103  72.1463016 127.0291246  73.7478912  71.0636272 127.5636974
  73.7686758  71.6808986 127.0800363  59.6212848  72.2540792 131.9491735
  59.3551263  71.4379909 132.1082725  59.6351412  72.2993947 131.0787250
  59.5837570  72.1397697 131.8445217  76.5994242  62.5818607 129.9834169
  77.2420150  62.6516711 130.5696084  76.8517262  61.9147830 129.4813710
  76.7316374  62.4944956 129.9961448  63.5270595  67.0525876 118.5643493
  62.8128772  66.7664056 118.9765925  64.0114563  67.3922502 119.2049880
  63.4929958  67.0607526 118.7199128  64.3711454  65.7919170 134.5958742
  63.6783251  65.3216150 134.8419474  64.9871782  65.5657475 135.1700450
  64.3595984  65.6886302 134.7167895  79.8141105  72.2585699 126.6324378
  80.4757539  71.6976367 126.5320286  79.1732517  71.7637730 126.9577069
  79.8169972  72.1022108 126.6656718  70.7017913  75.5555830 118.9405301
  71.1169061  75.2240854 118.2489797  69.8709842  75.3224733 118.8125438
  70.6405921  75.4727086 118.8196148  60.0306261  73.0399571 129.2303479
  59.8481835  73.0146457 128.3775771  60.7655930  73.5098509 129.2692388
  60.1120325  73.1060934 129.1101397  76.1005936  73.2751081 126.3736367
  76.3361525  73.4196280 125.5463217  76.2495499  74.0393489 126.7667880
  76.1571739  73.4090136 126.3099970  77.9296392  72.1152747 124.2105970
  78.2604609  72.6480387 123.6046065  78.5029481  72.1691635 124.8667921
  78.0630072  72.2022316 124.2183752  73.1428282  69.9617650 124.8929551
  73.2375136  70.7006944 125.3469176  72.5187125  69.5335125 125.3264115
  73.0637312  70.0078971 125.0237698  59.9977172  69.9193072 129.3802546
  60.5750674  69.7829523 130.0194791  59.2991234  69.4628856 129.6348130
  59.9798193  69.8315338 129.5124835  73.3951303  71.8066390 118.1266503
  73.3131465  71.8768577 118.9921490  74.0331023  72.3696134 117.9350243
  73.4771140  71.9005361 118.2256452  66.7544474  71.5727128 127.5941029
  66.4963718  70.7398863 127.5672328  66.8092957  71.7984741 126.7533529
  66.7244252  71.4824899 127.4661166  71.8345524  63.6755578 127.6945121
  71.1301851  63.1864764 127.8529041  71.8830498  63.6878053 126.8233566
  71.7375576  63.6045226 127.5884461  65.7279186  69.1264890 128.0805924
  65.1528777  69.2857059 128.7169885  65.3514862  68.4900299 127.6174374
  65.5881998  69.0562703 128.1060482  69.3952475  67.5988239 132.9398302
  69.0066908  67.1742457 132.2850493  68.7307173  67.8470389 133.4475329
  69.2399403  67.5726961 132.9186170  79.0375744  67.3563244 125.7146132
  78.7812309  66.5443186 125.5244015  79.8805058  67.3640811 125.4876319
  79.1241769  67.2375242 125.6530949  55.4736005  68.7704965 126.0950364
  55.5596257  68.3936833 126.8763894  56.1011802  68.3965411 125.6170322
  55.5792556  68.6590447 126.1395841  73.2178836  61.2962868 130.4522286
  73.5989348  60.6141039 130.8390160  72.4142121  61.0072470 130.2697951
  73.1555298  61.1529917 130.4826342  70.4991413  71.8286844 121.1375109
  71.3132052  72.1201737 121.0257880  70.4350554  71.1746706 120.5633402
  70.6094152  71.7752039 121.0363946  66.3699321  75.3008361 126.2647421
  67.0073268  75.0620109 126.8099214  66.7954393  75.5045520 125.5300582
  66.5275488  75.2959372 126.2364578  61.0611964  77.5396698 130.1481725
  61.1016109  77.8111549 129.3201504  61.6206488  78.0638606 130.5639513
  61.1495310  77.6572453 130.0873613  67.0102136  70.5210651 120.6022310
  67.3947289  70.3018358 121.3538856  66.7613757  71.3473597 120.7323387
  67.0304209  70.6108798 120.7323387  68.7520793  75.7780784 127.9441207
  68.8259802  75.6155956 128.7983057  69.5690300  75.9670974 127.7001689
  68.8837152  75.7817526 128.0339233  62.5126550  76.1238647 124.9735651
  61.6864668  76.3700384 124.8469930  62.5738541  76.0450728 125.8397709
  62.4000717  76.1483596 125.0824595  64.7302574  62.1907588 125.9331091
  63.8624999  62.2630187 125.9988700  65.0177778  62.9929667 126.1219066
  64.6442322  62.3201735 125.9705858  73.8535462  62.3385447 134.2642413
  74.5989054  62.1495258 133.8505838  73.4372767  62.8643685 133.7056269
  73.9020437  62.3887593 134.1206986  67.2925379  78.7415527 122.6754681
  67.5823677  78.3504508 121.9513907  68.0228860  78.9232232 123.1159956
  67.4432263  78.7109341 122.6337488  65.2331295  80.7182910 125.7414830
  65.0131590  80.4280264 126.5341497  65.0125817  80.0597865 125.2132743
  65.1678889  80.5782618 125.7803739  64.1448242  72.8056226 128.0070532
  63.8561490  72.1793697 128.5416259  65.0131590  72.7476514 128.0735213
  64.2308494  72.7043770 128.0961487  74.9326140  67.9491009 128.3252514
  74.5890905  67.2281345 128.6759764  75.0319182  67.7404861 127.4830872
  74.8968182  67.8115213 128.2524194  67.3999250  82.0912300 124.5245523
  68.0523308  81.5588742 124.7536549  66.7024859  81.7380952 124.9113397
  67.3929968  81.9601823 124.6157691  64.3480515  74.4451477 123.9312897
  65.1026483  74.8264516 124.1448360  63.7551128  74.8962621 124.3859594
  64.3717229  74.5680305 124.0295776  75.3939169  74.4116714 123.8676502
  75.9597201  75.0709923 123.7835045  74.7467072  74.7566412 124.3392904
  75.3817925  74.5598655 123.9249259  65.6678742  75.6160038 129.3053013
  65.1459495  75.7560330 129.9904877  66.0552762  74.8570703 129.4955130
  65.6482443  75.5245562 129.4354089  62.6569926  65.6665847 123.3747967
  62.3694721  65.2967118 122.6379915  63.3440394  66.1360703 123.1131672
  62.7158823  65.6812817 123.2263043  71.8645747  77.3555498 123.2913581
  71.6232423  76.6223358 122.8840646  72.0447080  77.9042355 122.6379915
  71.8553371  77.3277889 123.1343804  67.0945067  72.6464058 124.7034504
  66.8987850  73.2538792 124.1094807  67.3179413  71.9532002 124.2226178
  67.0979708  72.6341583 124.5450584  65.4923597  69.5318795 124.8215372
  66.2146249  69.6959954 124.3619178  65.0131590  70.2528460 124.7154712
  65.5287328  69.6617025 124.7380986  73.4517105  65.8682594 130.2012057
  72.6128206  65.8943873 129.9650320  73.5221472  66.5153330 130.7817404
  73.3385498  65.9678720 130.2521174  71.8986383  62.7667971 124.9339673
  72.6012736  62.5675720 124.4559631  71.6330572  61.9943914 125.2408516
  71.9633016  62.6230937 124.9085114  77.3274629  71.0750581 127.4873299
  77.2408603  71.2306007 128.3408077  76.8725109  71.7188657 127.1132704
  77.2477885  71.1926336 127.5580405  60.2298120  66.4447060 124.2233248
  60.3314257  67.2473221 124.5514224  61.0254007  66.2434396 123.9256329
  60.3626026  66.5332958 124.2268604  66.6614939  64.0303256 133.9870553
  66.4698136  64.0458391 134.8369977  67.5113535  64.2266931 133.9637208
  66.7590661  64.0617608 134.1093848  61.0461852  66.5594238 131.9654370
  60.9047344  65.7078179 132.0898878  61.3302416  66.6022899 131.1416576
  61.0669699  66.4393988 131.8621994  71.2000445  68.3961328 126.1098858
  70.9535159  68.3157079 126.9435647  71.5285568  67.6114796 125.9161386
  71.2121688  68.2687593 126.2046381  76.5901866  74.4622941 120.6602139
  76.2108675  73.6760079 120.6531428  75.9268112  75.0109798 120.5173783
  76.4360341  74.4267765 120.6382935  69.5719166  64.2258766 134.1942377
  70.0291781  64.9582740 134.3215169  69.6475495  63.8025231 134.9529632
  69.6510136  64.2716004 134.3243453  61.8152158  64.4724586 135.2831820
  61.2794347  63.8604944 135.5992588  61.8769922  65.0472722 135.9365487
  61.7447790  64.4671513 135.4267247  74.0446492  57.4048641 128.0636220
  74.1630061  57.8625104 127.3303522  73.8708668  56.5993902 127.7772437
  74.0365663  57.3542413 127.9137153  69.4148775  78.0136460 124.4990965
  70.1798666  77.7446104 124.1773629  69.3126865  77.5286471 125.2161028
  69.5130270  77.9026025 124.5570792  67.4501544  66.2160870 131.0384201
  66.6597619  66.0352330 131.3601536  67.8462167  65.4387822 131.0214495
  67.3918421  66.0748331 131.0836749  71.9367435  75.0448644 116.4790914
  72.7040420  75.1048769 116.0696766  71.4898744  74.4729085 115.9947233
  71.9840862  74.9685220 116.3468624  72.8345231  73.8503300 128.7643646
  72.1590233  73.6188532 129.2657034  72.8437607  73.2424483 128.1385752
  72.7363735  73.7262225 128.7459799  74.8361965  76.7068432 120.9953824
  74.9181803  77.5135418 120.6715275  75.3211707  76.7264391 121.7194598
  74.9199123  76.8289095 121.0540723  68.6458469  71.3853268 129.6623902
  68.2220718  71.5857767 128.9262921  68.4703324  70.5382116 129.7748202
  68.5569349  71.2902050 129.5697592  63.9340914  71.8805320 125.0951875
  64.0905533  71.8152122 125.9507867  64.2741507  72.6553872 124.8830555
  64.0074148  71.9854518 125.1906469  70.4720058  71.2563203 123.9645238
  71.0135604  70.7533584 124.4283859  70.7866617  71.2028398 123.1534723
  70.5984455  71.1742624 123.9129050  68.6406508  76.6480555 121.2485266
  68.7099328  75.7895093 121.3878267  69.4194963  76.8652436 120.9204291
  68.7659358  76.5533419 121.2202423  71.6209328  66.1499508 134.0167539
  71.8351297  65.5110422 133.4630893  71.0043227  66.5945332 133.5875400
  71.5614657  66.1209651 133.8717970  73.0313995  79.0718256 125.4621759
  72.6393787  78.7684971 124.7444626  73.1867068  79.9087346 125.2726713
  72.9967585  79.1502093 125.3278257  60.5075175  69.0640270 125.4112642
  60.8874140  69.4824815 124.7472909  59.9330540  69.6453726 125.7181485
  60.4786500  69.2118129 125.3589383  73.1953670  75.6368245 125.4027790
  72.8368325  75.8082888 126.1791822  72.7092381  76.0981451 124.8455789
  73.0712367  75.7307216 125.4353059  71.0124056  59.2599443 129.0054881
  70.1417614  59.2338164 128.9588191  71.2664397  59.0876636 128.1880727
  70.9217616  59.2309587 128.8775018  67.9842036  71.3167410 117.9428024
  68.2734560  72.0932293 118.2171599  68.0713834  70.8056142 118.6442524
  68.0396292  71.3559329 118.0870522  68.0373197  61.2705672 130.4628352
  67.5211685  60.5785863 130.5879931  67.4767126  61.9376449 130.4090951
  67.8779710  61.2668929 130.4734418  70.1065430  61.8098632 132.2921204
  69.7197183  61.8347663 133.0734734  69.6198367  61.2440310 131.8395721
  69.9777939  61.7294383 132.3409108  76.0815410  68.3761287 130.9160907
  75.6543018  68.2887635 130.1609006  75.4441463  68.4839062 131.5015751
  75.9245017  68.3793947 130.8906348  69.7722572  58.6965617 134.5831464
  70.4015690  59.2325917 134.3052535  69.9408435  58.6042976 135.4345030
  69.8900366  58.7626980 134.6679992  64.1505977  70.6300675 130.0428136
  63.3093983  70.5304549 130.2507030  64.3595985  71.3996155 130.3942457
  64.0570669  70.7292718 130.1255451  61.6281544  68.2520212 127.8712887
  61.2338241  68.3263224 127.0962997  61.0721660  68.6378158 128.4221249
  61.4884356  68.3201986 127.8380547  73.2646490  61.2301506 127.5516766
  73.4696084  61.1623814 128.3973763  72.9372914  62.0360327 127.4837943
  73.2461738  61.3387446 127.6676421  67.9622641  68.5582074 129.2925734
  67.6585779  68.0038062 129.8936142  67.2602062  68.7374284 128.8053768
  67.8138851  68.5026856 129.3095440  67.0188739  65.8682594 123.8570436
  67.2948473  65.1501506 123.4448003  67.6187408  66.4667514 123.6491542
  67.1482003  65.8502965 123.7651197  76.5180178  61.7833270 127.0319532
  75.9054492  62.2703672 127.4173263  76.6144353  61.1076761 127.5757183
  76.4418076  61.7551579 127.1698390  70.5199259  63.5396111 122.1317031
  70.9743006  63.7106672 122.8564875  70.9939305  62.9264222 121.7314807
  70.6567579  63.4746996 122.1790792  64.0414784  73.0244437 131.4619769
  63.4502718  73.6653935 131.4322784  64.8035808  73.4482054 131.4351069
  64.0663045  73.1820276 131.4534917  64.4375407  64.1846435 132.1287787
  64.8976889  64.2585364 132.8662911  64.4831514  64.9827689 131.7787608
  64.5125963  64.3140582 132.1860543  67.8612279  70.2438646 123.2362038
  68.6054324  70.6312922 123.4744988  68.0072975  69.3996071 123.4002526
  67.9922864  70.1769118 123.2956008  69.7791855  62.0388904 128.2693900
  68.9327900  62.2111712 128.1435249  69.7762987  61.2338248 128.6059728
  69.6539004  61.9449933 128.3005026  70.8490155  65.8164119 129.1355957
  70.3750109  65.2905881 129.6461268  71.2208291  65.2693592 128.5670819
  70.8340044  65.6580115 129.1271105  61.2263185  67.8135626 134.5039503
  62.0888798  67.7131335 134.4176833  60.8954968  67.2330335 133.9425075
  61.3048381  67.7127252 134.4084909  72.7773655  66.7100673 122.1981711
  72.2496673  66.7929417 121.5087420  73.2369363  67.4518545 122.1946356
  72.7675505  66.8321336 122.0956406  79.1132073  67.6567952 128.4991997
  78.8741842  67.6163786 127.6612782  79.2765974  68.5039104 128.6257718
  79.1022376  67.7760037 128.3945479  64.5864971  66.6378075 131.1649921
  63.9618041  66.6496467 130.5575874  64.2510566  67.1138250 131.8141162
  64.4450463  66.7096592 131.1706490  64.7706720  64.9803193 117.2222606
  64.4219524  65.6322918 117.6854156  64.2903166  64.9660306 116.4946478
  64.6476964  65.0746247 117.1833698  61.2990647  74.6978535 132.6053686
  60.7690571  74.0070974 132.6548660  61.5715740  74.6888720 131.7766394
  61.2615369  74.5945666 132.4901102  72.3310737  75.2804237 121.3291368
  73.0544936  75.7462350 121.1855942  71.8911328  75.3477847 120.5788965
  72.3726429  75.3588074 121.1976150  63.8555716  68.2471222 133.3824790
  64.0149203  67.4914547 133.7876512  63.6748610  68.7962162 134.0365528
  63.8521075  68.2165036 133.5387496  71.7976019  60.4132458 133.9375579
  71.3016581  60.6096132 133.2467146  72.5545081  60.8125126 133.7664381
  71.8362844  60.5010192 133.8095716  69.0678899  64.0874804 130.5278890
  69.0921386  63.5534916 129.8391670  69.3190373  63.5792113 131.1904481
  69.1088818  63.9335708 130.5243535  56.5786489  71.3706299 129.9622034
  56.4729938  71.3253143 129.0974118  55.8286709  71.7160079 130.2436319
  56.4522092  71.4147207 129.8759364  65.3480221  62.8145622 129.9084634
  65.3878593  63.3154829 130.6219342  64.5229886  62.9056016 129.6390557
  65.2319747  62.9027438 129.9735172  66.7694585  69.3306132 132.2058533
  65.9386514  69.4979950 131.9993781  66.7146102  68.9542083 132.9907419
  66.6383999  69.2995863 132.2907061  64.5778368  62.8215025 137.8414944
  65.2031071  62.2777158 138.1144376  64.1228848  62.3409942 137.2722734
  64.6026628  62.6704506 137.7976538  65.1430628  67.6061723 122.7348651
  65.2833590  68.1034188 123.4377292  65.6413161  66.9048018 122.8762865
  65.2371709  67.5763702 122.8600230  65.1730851  68.4728834 120.0641228
  65.8075930  69.0689260 119.9990690  65.2556462  68.1732292 120.8787098
  65.2787402  68.5169743 120.1744314  66.7509834  64.4042810 120.0386670
  67.0725675  63.9245892 119.3845932  67.0136777  65.2142456 119.8477481
  66.8375859  64.4532708 119.9142162  72.1468989  63.7915004 132.4010149
  72.5724060  63.3387530 131.7893675  71.5325982  63.2375075 132.6774936
  72.1197634  63.6428980 132.3515174  61.6783839  70.6696675 123.3330774
  62.1876068  71.2661183 123.7142079  62.1518111  70.4022649 122.6507193
  61.8227214  70.7182491 123.2885297  72.5914587  79.3424942 121.4889429
  71.8743896  79.1685804 121.0236667  73.2421324  79.1077514 120.9564915
  72.5816437  79.2820734 121.3418647  70.5863212  60.2630104 125.8100726
  69.9431529  60.1127750 126.3785864  70.2462618  60.0172449 125.0449830
  70.4408289  60.2042226 125.7803741  75.1762558  68.2189530 125.2330734
  74.5053748  68.7619233 125.1043800  75.8702308  68.6884386 124.9912429
  75.1791425  68.3687802 125.1786262  75.3390685  64.6745414 128.1421108
  75.6918296  64.2475137 128.8166906  74.4805487  64.5896258 128.2722184
  75.2640130  64.5990155 128.2616118  64.0374370  67.3052934 126.2003954
  63.3186360  67.7217066 126.4676818  64.4086733  67.8707173 125.6495592
  63.9866302  67.4502215 126.1586761  69.8120945  66.3450934 121.5377334
  69.2185784  66.6667930 120.9861901  69.8496222  65.4992029 121.3298440
  69.7295334  66.2675262 121.4260105  76.7714746  59.7963826 129.0705420
  76.2645610  59.0892966 129.0026598  77.5682179  59.4657015 129.2006497
  76.8141985  59.6436977 129.0804415  72.6878761  66.3030438 124.9679084
  72.4592454  66.3263140 124.1257442  72.9476838  65.4787905 125.0874094
  72.6924949  66.1846518 124.8604282  61.8163705  66.6002487 137.2206546
  61.6466295  67.2603861 136.6754753  61.3729654  66.8109048 137.9419035
  61.7263038  66.7288469 137.2468175  65.7423524  64.8406985 126.2633280
  66.2180890  65.2024064 125.6283461  65.2412124  65.4963452 126.5433422
  65.7388883  64.9901173 126.2110021  78.9734885  74.3128753 122.0546285
  79.3568491  75.0620109 122.2844382  78.1778999  74.5594572 121.7958274
  78.9128668  74.4598446 122.0503858  58.7165769  69.5049352 132.4795036
  58.1692488  68.8349998 132.5975904  59.5058147  69.1379200 132.5438503
  58.7517953  69.3514339 132.5063736  67.7850177  66.9848184 119.6306664
  68.1649142  67.0027813 118.8457778  67.0442773  67.4302173 119.5097511
  67.7319015  67.0529959 119.4970232  75.4135468  65.2930375 125.2182242
  75.4129694  65.1379032 126.0766519  75.2091648  66.1393363 125.1623628
  75.3835245  65.3950996 125.3370182  57.4752739  68.7170160 129.6341059
  57.2974500  68.2646769 130.3595974  57.1871761  69.5196321 129.8179536
  57.4065692  68.7692718 129.7684562  73.1376320  69.9727877 128.8718449
  73.6329985  69.2550872 128.8322469  72.3276095  69.6698675 128.7572936
  73.0920213  69.8225524 128.8492175  68.5834931  73.8225691 121.0215454
  67.7746254  73.4992364 120.9748763  69.0909840  73.1158913 120.9543702
  68.5384598  73.6707007 121.0045748  59.2125208  71.2497884 126.7462818
  58.3470728  71.2383574 126.6345589  59.3124024  71.0628107 127.5933957
  59.0999375  71.2203945 126.8551762  68.7076233  61.2093300 134.8454830
  68.8404138  60.4124293 135.1735806  69.0921386  61.7359703 135.4253106
  68.7832562  61.1693216 134.9798333  71.7808588  58.1323626 131.4435923
  70.9754552  58.0221355 131.7603762  71.6515324  58.2336081 130.5865789
  71.6428721  58.1307296 131.3643964  75.2374549  64.2969118 132.0375620
  74.6537537  64.7978324 131.6253188  75.5578843  63.7898674 131.4039944
  75.1987724  64.2960953 131.8834127  67.7769348  63.2109712 122.3134295
  68.5985042  63.3808025 122.0715990  67.3138999  63.3656973 121.5900593
  67.8300510  63.2591445 122.1705939  66.3664680  61.2052475 133.0932724
  66.9109093  60.8643602 133.6837066  66.4201615  62.0637936 133.2354008
  66.4553799  61.2807734 133.2014597  62.1795238  74.9668891 129.9671532
  62.7840096  74.9264725 129.3385353  61.9722551  75.8140043 129.9975588
  62.2384136  75.0856893 129.8787648  57.4146521  73.9503508 129.8370455
  57.3170799  73.1399780 130.1460512  58.1975390  73.9295302 129.4516723
  57.5162657  73.8270598 129.8257318  81.2893796  84.9573297 119.5083369
  81.5289800  85.1651281 118.6958712  81.6109637  84.1530806 119.6172313
  81.3730954  84.8687398 119.4043922  76.5984087  76.8866693 123.3542907
  77.3530055  77.2545010 123.1159957  76.4211621  77.2606247 124.1222086
  76.6838565  76.9964881 123.4327795  74.9541151  79.2937012 120.0521020
  74.7716725  79.5108892 119.2262013  75.8166764  79.4076024 120.1079634
  75.0545741  79.3426910 119.9375507  80.6340871  76.2963422 123.0870044
  81.3627031  76.1179377 122.6408200  80.7235763  77.1381502 123.2977222
  80.7547533  76.3947301 123.0523561  74.5003178  82.5711184 118.5643493
  73.7861355  82.2849364 118.9765925  74.9847147  82.9107810 119.2049880
  74.4662542  82.5792834 118.7199128  73.6302509  81.1851155 123.3747967
  73.3427305  80.8152426 122.6379915  74.3172978  81.6546010 123.1131672
  73.6891407  81.1998125 123.2263043  71.2030704  81.9632368 124.2233248
  71.3046840  82.7658529 124.5514224  71.9986591  81.7619704 123.9256329
  71.3358610  82.0518266 124.2268604  78.9574619  86.8352718 117.9428024
  79.2467144  87.6117601 118.2171599  79.0446418  86.3241450 118.6442524
  79.0128875  86.8744637 118.0870522  75.7439303  80.4988501 117.2222606
  75.3952108  81.1508226 117.6854156  75.2635749  80.4845614 116.4946478
  75.6209547  80.5931555 117.1833698  76.1463434  83.9914142 120.0641228
  76.7808514  84.5874567 119.9990690  76.2289045  83.6917600 120.8787098
  76.2519985  84.0355051 120.1744314  77.7242417  79.9228118 120.0386670
  78.0458258  79.4431200 119.3845932  77.9869361  80.7327764 119.8477481
  77.8108443  79.9718016 119.9142162  80.7853528  81.8636242 121.5377334
  80.1918368  82.1853238 120.9861901  80.8228806  81.0177337 121.3298440
  80.7027918  81.7860570 121.4260105  78.7582761  82.5033492 119.6306664
  79.1381725  82.5213121 118.8457778  78.0175357  82.9487481 119.5097511
  78.7051598  82.5715267 119.4970232  78.7501931  78.7295020 122.3134295
  79.5717626  78.8993333 122.0715990  78.2871582  78.8842281 121.5900593
  78.8033094  78.7776753 122.1705939  48.2771519  24.3185633 107.0292401
  47.9422887  24.9962555 106.5936624  48.7898389  23.9290945 106.4409273
  48.3037100  24.3610212 106.8779193  50.7851614  18.5781841 107.6649292
  50.7002909  19.4342808 107.8098861  51.2735997  18.3026165 108.3331451
  50.8440511  18.6639163 107.7851374  48.4503569  21.4563346 105.8745348
  48.8654718  21.1248369 105.1829844  47.6195499  21.2232248 105.7465485
  48.3891578  21.3734602 105.7536195  51.1436960  17.7073905 105.0606549
  51.0617122  17.7776092 105.9261536  51.7816680  18.2703649 104.8690290
  51.2256797  17.8012876 105.1596499  45.0411036  24.6423042 109.6094728
  45.3309334  24.2512024 108.8853954  45.7714517  24.8239747 110.0500003
  45.1917920  24.6116856 109.5677535  49.6131403  23.2563013 110.2253628
  49.3718079  22.5230874 109.8180693  49.7932736  23.8049870 109.5719961
  49.6039027  23.2285404 110.0683851  54.3387523  20.3630457 107.5942185
  53.9594332  19.5767594 107.5871475  53.6753769  20.9117314 107.4513830
  54.1845998  20.3275281 107.5722982  49.6853092  20.9456159 103.4130961
  50.4526077  21.0056284 103.0036813  49.2384401  20.3736601 102.9287280
  49.7326519  20.8692735 103.2808671  52.5847622  22.6075948 107.9293871
  52.6667459  23.4142934 107.6055322  53.0697364  22.6271907 108.6534645
  52.6684780  22.7296610 107.9880770  46.3892165  22.5488070 108.1825313
  46.4584985  21.6902609 108.3218313  47.1680620  22.7659951 107.8544338
  46.5145015  22.4540934 108.1542470  50.7799652  24.9725771 112.3961806
  50.3879444  24.6692487 111.6784672  50.9352724  25.8094861 112.2066760
  50.7453242  25.0509608 112.2618303  45.7327692  17.2174926 104.8768071
  46.0220217  17.9939808 105.1511646  45.8199491  16.7063657 105.5782571
  45.7881949  17.2566844 105.0210569  50.0796394  21.1811752 108.2631415
  50.8030593  21.6469865 108.1195988  49.6396985  21.2485362 107.5129012
  50.1212086  21.2595589 108.1316196  50.3400244  25.2432457 108.4229476
  49.6229553  25.0693319 107.9576714  50.9906981  25.0085030 107.8904962
  50.3302094  25.1828250 108.2758694  56.7220542  20.2136268 108.9886331
  57.1054148  20.9627624 109.2184428  55.9264656  20.4602088 108.7298320
  56.6614324  20.3605962 108.9843905  66.2138318  30.7907203 111.0816692
  66.1832322  31.6451840 111.2534962  66.8119666  30.4902496 111.6402836
  66.2975476  30.8723699 111.1891495  59.4138003  29.8782854 115.8369623
  58.5575898  30.0391352 115.8878740  59.4605656  29.0074918 115.8574684
  59.2937114  29.7733656 115.8475689  53.7979142  39.4145572 111.6006854
  53.0462042  39.0361110 111.3722899  54.2465154  39.4464005 110.8525665
  53.7528809  39.3631179 111.4564356  59.2504102  39.8370941 107.0292401
  58.9155471  40.5147863 106.5936624  59.7630973  39.4476253 106.4409273
  59.2769683  39.8795520 106.8779193  58.7908393  41.7885210 112.9703513
  59.1747773  42.3572109 112.4308288  58.7267535  41.0634720 112.4909329
  58.8381821  41.7660673 112.8197376  62.2589824  31.9374898 118.4801274
  62.8045784  32.6159984 118.5395244  62.2006700  31.7962359 117.6202856
  62.3305738  32.0166900 118.3613335  55.3763898  39.4263964 113.8669627
  55.4774261  38.6164318 114.1766755  54.7805644  39.3320910 113.2369305
  55.3036437  39.2928992 113.8195865  64.0354892  33.3659505 109.3535002
  63.9194418  34.1167191 109.7827140  64.8310779  33.1083458 109.6031089
  64.1359482  33.4394352 109.4539094  55.2164638  44.3441553 115.2684483
  55.8602094  44.7854717 115.6580641  55.5420894  43.5394979 115.1814742
  55.3596467  44.2906748 115.3129960  48.5728943  35.4484251 113.4921960
  48.3379127  34.6151903 113.3854229  48.7114583  35.7288916 112.6783161
  48.5584605  35.3667754 113.3564315  55.9185218  37.3553528 110.6404345
  56.2401059  37.8958735 110.0365653  56.5657314  36.7850299 110.7726634
  56.0611273  37.3512703 110.5711380  57.9686926  29.3569523 110.7238731
  58.6667091  29.5357650 111.2160195  58.2839258  28.8339862 110.1009121
  58.1182263  29.3063295 110.7040741  58.1574861  35.7439968 110.7118523
  58.5968497  35.1357068 111.1573296  58.0079524  35.3647341 109.9403988
  58.1996327  35.5978439 110.6637690  55.6246504  34.3383980 117.9137348
  56.2695507  33.8456423 117.5948297  55.8648281  34.4808766 118.7403427
  55.7557089  34.2861422 117.9886881  58.1632596  37.1838886 117.5644241
  58.4455838  36.3890291 117.3430997  58.8918756  37.6619473 117.5849302
  58.3122159  37.1373483 117.5347256  61.7584198  34.0967149 107.6649292
  61.6735493  34.9528116 107.8098861  62.2468581  33.8211473 108.3331451
  61.8173095  34.1824471 107.7851374  63.3490197  20.7147442 113.0509617
  63.0343638  21.4050921 113.4830039  62.8317139  20.6592225 112.3495117
  63.2254668  20.8082331 113.0106566  62.6902631  30.7151943 109.1647027
  62.1614102  30.9311577 109.8244333  63.2127651  31.4088082 109.0847996
  62.6891084  30.8495080 109.2502626  68.1450684  36.2898248 114.5380072
  67.3148387  36.5008892 114.7013488  68.0959936  35.4635302 114.2622355
  68.0157419  36.1987854 114.5217437  54.5802239  34.6115160 107.9654495
  53.9959454  35.1165192 108.3720359  54.1772334  34.3857547 107.2251087
  54.4341543  34.6523408 107.9159520  50.1346267  40.3269921 114.7678167
  49.6513846  41.0520411 114.7437750  50.9469586  40.6246051 114.8788324
  50.1837015  40.4772275 114.7805446  56.2060421  39.1202102 117.3727981
  55.6887363  38.7609517 116.7689289  56.9034813  38.5964276 117.3834047
  56.2326003  38.9899790 117.2858240  59.8624013  39.5696916 123.3344154
  59.9507359  39.3823056 124.1822364  60.2913726  38.9234346 122.9349001
  59.9386116  39.4459924 123.4015906  59.0379453  30.8580812 106.4423416
  59.2775457  31.0658796 105.6298759  59.3595294  30.0538321 106.5512360
  59.1216611  30.7694913 106.3383969  54.3469743  22.7874208 110.2882954
  55.1015712  23.1552525 110.0500004  54.1697278  23.1613762 111.0562133
  54.4324222  22.8972396 110.3667842  52.9890465  40.8426097 114.9198446
  53.6911044  40.3278086 114.9771203  52.9087948  41.1700249 115.7245322
  53.0814225  40.8140323 115.0471239  67.6404642  28.9368649 118.3330493
  66.8033063  29.0070836 118.5678087  67.6092873  28.9393143 117.4604795
  67.5122925  28.9478876 118.2390041  52.7026808  25.1944527 106.9861067
  52.5202381  25.4116408 106.1602059  53.5652421  25.3083540 107.0419681
  52.8031398  25.2434425 106.8715554  52.3141240  37.0332449 114.4284055
  53.1530140  37.2655382 114.4757816  52.3453009  36.1636761 114.3591090
  52.4422958  36.9389396 114.4248699  52.9393943  37.4533324 118.7297360
  53.4792168  37.3104455 119.4000732  52.2563889  37.8530075 119.0981386
  52.9186097  37.4912995 118.8831782  58.3826527  22.1970938 110.0210090
  59.1112688  22.0186893 109.5748247  58.4721420  23.0389017 110.2317269
  58.5033189  22.2954816 109.9863608  62.3634828  33.1324325 113.9242384
  63.1192343  33.5655839 113.9631293  62.4697152  32.4829095 114.4977020
  62.4904999  33.1001809 114.0140410  65.4014999  36.9597602 114.6744787
  64.9650231  36.9634345 115.4303759  65.0677915  37.6403101 114.2424365
  65.2877619  37.0610058 114.7225620  65.3212482  24.0011430 116.9174215
  65.9638390  24.0709535 117.5036131  65.5735503  23.3340653 116.4153757
  65.4534614  23.9137779 116.9301495  52.2488835  28.4718700 105.4983540
  51.5347012  28.1856879 105.9105972  52.7332804  28.8115325 106.1389927
  52.2148198  28.4800349 105.6539175  60.1314466  40.9116037 119.6454393
  59.3329712  40.6715537 119.9028262  60.5800478  40.9630430 120.3921441
  60.0789077  40.8838428 119.7939318  68.5359345  33.6778522 113.5664425
  69.1975779  33.1169191 113.4660333  67.8950757  33.1830553 113.8917116
  68.5388213  33.5214931 113.5996765  59.4236153  36.9748654 105.8745348
  59.8387302  36.6433677 105.1829844  58.5928083  36.7417556 105.7465485
  59.3624162  36.8919910 105.7536195  48.7524502  34.4592395 116.1643526
  48.5700075  34.4339281 115.3115818  49.4874171  34.9291332 116.2032435
  48.8338566  34.5253757 116.0441444  64.8224176  34.6943905 113.3076413
  65.0579765  34.8389103 112.4803264  64.9713740  35.4586313 113.7007927
  64.8789979  34.8282959 113.2440017  66.6514633  33.5345570 111.1446017
  66.9822850  34.0673211 110.5386112  67.2247721  33.5884458 111.8007968
  66.7848312  33.6215139 111.1523799  61.8646522  31.3810473 111.8269597
  61.9593376  32.1199767 112.2809223  61.2405365  30.9527949 112.2604162
  61.7855552  31.4271794 111.9577745  62.1169543  33.2259213 105.0606549
  62.0349706  33.2961400 105.9261536  62.7549264  33.7888957 104.8690290
  62.1989381  33.3198184 105.1596499  55.4762714  32.9919951 114.5281076
  55.2181959  32.1591686 114.5012375  55.5311197  33.2177564 113.6873576
  55.4462492  32.9017722 114.4001212  60.5563765  25.0948402 114.6285168
  59.8520091  24.6057587 114.7869087  60.6048739  25.1070876 113.7573613
  60.4593816  25.0238050 114.5224508  54.4497427  30.5457713 115.0145970
  53.8747018  30.7049882 115.6509931  54.0733103  29.9093123 114.5514421
  54.3100239  30.4755526 115.0400529  67.7593984  28.7756067 112.6486179
  67.5030549  27.9636009 112.4584062  68.6023298  28.7833635 112.4216366
  67.8460010  28.6568065 112.5870996  59.2209653  33.2479667 108.0715156
  60.0350292  33.5394560 107.9597927  59.1568795  32.5939530 107.4973449
  59.3312392  33.1944862 107.9703993  65.4419144  35.9305663 122.4844731
  65.2057781  35.0993728 122.3656792  66.0862372  35.8791271 123.0699576
  65.5013814  35.8003351 122.5530625  55.0917562  36.7201185 113.1987468
  55.7291509  36.4812932 113.7439261  55.5172633  36.9238344 112.4640628
  55.2493728  36.7152195 113.1704625  49.7830204  38.9589521 117.0821772
  49.8234349  39.2304372 116.2541551  50.3424728  39.4831429 117.4979560
  49.8713550  39.0765276 117.0213660  55.7320377  31.9403475 107.5362357
  56.1165529  31.7211181 108.2878902  55.4831997  32.7666420 107.6663434
  55.7522449  32.0301621 107.6663434  66.4655564  35.7150112 118.5473026
  66.1601381  36.4478169 118.9086342  65.7461780  35.3088042 118.2665812
  66.3142906  35.7631845 118.5586163  57.4739034  37.1973607 114.8781254
  57.5478042  37.0348779 115.7323104  58.2908540  37.3863797 114.6341736
  57.6055392  37.2010350 114.9679280  72.1657356  32.3543113 117.8741370
  72.0981857  32.3739072 117.0043957  72.1513019  33.1973440 118.0997041
  72.1536113  32.4816848 117.7793847  51.2344790  37.5431470 111.9075698
  50.4082908  37.7893207 111.7809976  51.2956782  37.4643551 112.7737756
  51.1218957  37.5676419 112.0164642  56.0143619  40.1608350 109.6094728
  56.3041918  39.7697332 108.8853954  56.7447100  40.3425055 110.0500003
  56.1650504  40.1302164 109.5677535  69.9515974  31.1287499 116.1487965
  70.5023895  30.4955568 116.3885057  69.9360089  31.6602892 116.8403469
  70.0301170  31.1136447 116.2866823  53.9549535  42.1375733 112.6754877
  53.7349830  41.8473088 113.4681544  53.7344057  41.4790688 112.1472790
  53.8897129  41.9975441 112.7143786  52.8666482  34.2249049 114.9410579
  52.5779731  33.5986521 115.4756306  53.7349830  34.1669337 115.0075259
  52.9526734  34.1236594 115.0301533  63.6544380  29.3683833 115.2592561
  63.3109146  28.6474168 115.6099810  63.7537422  29.1597684 114.4170919
  63.6186423  29.2308036 115.1864241  56.1217491  43.5105123 111.4585570
  56.7741549  42.9781565 111.6876596  55.4243099  43.1573775 111.8453444
  56.1148209  43.3794646 111.5497737  53.0698755  35.8644300 110.8652944
  53.8244723  36.2457339 111.0788406  52.4769368  36.3155444 111.3199640
  53.0935469  35.9873128 110.9635822  64.1157409  35.8309537 110.8016549
  64.6815442  36.4902747 110.7175092  63.4685312  36.1759235 111.2732951
  64.1036165  35.9791478 110.8589305  54.3896982  37.0352862 116.2393059
  53.8677736  37.1753153 116.9244924  54.7771002  36.2763526 116.4295177
  54.3700683  36.9438386 116.3694136  51.3788166  27.0858670 110.3088014
  51.0912962  26.7159941 109.5719961  52.0658634  27.5553526 110.0471719
  51.4377063  27.1005640 110.1603090  60.5863987  38.7748321 110.2253628
  60.3450663  38.0416182 109.8180693  60.7665320  39.3235178 109.5719961
  60.5771611  38.7470712 110.0683851  55.8163308  34.0656881 111.6374550
  55.6206090  34.6731615 111.0434853  56.0397653  33.3724825 111.1566224
  55.8197949  34.0534406 111.4790631  54.2141838  30.9511619 111.7555419
  54.9364490  31.1152777 111.2959225  53.7349830  31.6721284 111.6494759
  54.2505568  31.0809848 111.6721033  62.1735345  27.2875417 117.1352104
  61.3346446  27.3136696 116.8990367  62.2439713  27.9346153 117.7157450
  62.0603739  27.3871543 117.1861221  60.6204624  24.1860795 111.8679720
  61.3230976  23.9868543 111.3899678  60.3548812  23.4136737 112.1748563
  60.6851256  24.0423761 111.8425161  66.0492869  32.4943404 114.4213345
  65.9626844  32.6498830 115.2748124  65.5943349  33.1381480 114.0472750
  65.9696126  32.6119159 114.4920452  48.9516361  27.8639883 111.1573295
  49.0532497  28.6666044 111.4854271  49.7472247  27.6627219 110.8596376
  49.0844266  27.9525782 111.1608650  59.9218685  29.8154151 113.0438905
  59.6753399  29.7349902 113.8775694  60.2503808  29.0307619 112.8501432
  59.9339929  29.6880417 113.1386428  63.8166734  36.5237511 116.8325686
  63.6781093  37.2218557 117.3374429  63.0366732  36.3686167 116.4761868
  63.6809961  36.6037677 116.8551960  54.9543467  40.7413642 119.3222915
  55.1033031  40.1816558 118.6696319  55.7343470  40.8205643 119.7055434
  55.0917561  40.6699207 119.2819864  65.3120107  35.8815764 107.5942185
  64.9326916  35.0952902 107.5871475  64.6486352  36.4302621 107.4513830
  65.1578582  35.8460588 107.5722982  57.4796768  40.9128285 120.6007406
  57.4040439  40.2437095 121.1558194  57.4086627  41.6146073 121.1148072
  57.4577375  40.9173192 120.7584254  58.1367015  39.4329284 111.4331012
  58.9016906  39.1638927 111.1113676  58.0345105  38.9479294 112.1501074
  58.2348510  39.3218848 111.4910839  60.6585676  36.4641467 103.4130961
  61.4258661  36.5241592 103.0036813  60.2116985  35.8921909 102.9287280
  60.7059103  36.3878043 103.2808671  61.5563471  35.2696123 115.6983693
  60.8808473  35.0381355 116.1997080  61.5655847  34.6617306 115.0725798
  61.4581976  35.1455048 115.6799846  63.5580206  38.1261256 107.9293871
  63.6400043  38.9328242 107.6055322  64.0429948  38.1457215 108.6534645
  63.6417364  38.2481918 107.9880770  57.3676709  32.8046091 116.5963949
  56.9438958  33.0050590 115.8602968  57.1921564  31.9574939 116.7088249
  57.2787590  32.7094873 116.5037639  56.8688402  44.3196604 119.0585406
  57.3584333  43.6207394 118.8761071  56.2972635  44.0220474 119.6461464
  56.8572932  44.1722828 119.1186447  52.6559154  33.2998143 112.0291922
  52.8123773  33.2344946 112.8847914  52.9959747  34.0746695 111.8170601
  52.7292389  33.4047341 112.1246516  59.1938299  32.6756026 110.8985285
  59.7353844  32.1726408 111.3623906  59.5084858  32.6221221 110.0874770
  59.3202696  32.5935447 110.8469097  57.3624748  38.0673378 108.1825313
  57.4317569  37.2087916 108.3218313  58.1413203  38.2845259 107.8544338
  57.4877598  37.9726242 108.1542470  61.7532236  40.4911079 112.3961806
  61.3612028  40.1877794 111.6784672  61.9085308  41.3280169 112.2066760
  61.7185826  40.5694916 112.2618303  49.2293415  30.4833093 112.3452689
  49.6092380  30.9017638 111.6812956  48.6548780  31.0646549 112.6521532
  49.2004740  30.6310952 112.2929430  61.9171911  37.0561068 112.3367837
  61.5586565  37.2275711 113.1131869  61.4310621  37.5174274 111.7795835
  61.7930607  37.1500039 112.3693106  56.7060276  32.7360234 104.8768071
  56.9952801  33.5125116 105.1511646  56.7932075  32.2248965 105.5782571
  56.7614532  32.7752152 105.0210569  63.0776650  37.9464964 123.2835038
  63.7156370  37.4525160 122.9497494  62.4350742  37.8742365 122.6987265
  63.0770876  37.8623973 123.1477393  64.8033650  29.7954110 117.8500953
  64.3761258  29.7080459 117.0949053  64.1659703  29.9031886 118.4355797
  64.6463257  29.7986770 117.8246395  63.1330907  38.6384772 119.9240394
  63.9223285  38.2873837 120.0442476  63.3074504  39.4521161 119.6617028
  63.2751188  38.7070629 119.9028262  61.9864731  22.6494329 114.4856813
  62.1914324  22.5816637 115.3313810  61.6591155  23.4553150 114.4177990
  61.9679979  22.7580269 114.6016468  56.6840882  29.9774897 116.2265781
  56.3804019  29.4230886 116.8276188  55.9820303  30.1567107 115.7393815
  56.5357092  29.9219680 116.2435486  55.7406979  27.2875417 110.7910483
  56.0166713  26.5694330 110.3788050  56.3405648  27.8860337 110.5831589
  55.8700244  27.2695788 110.6991244  65.2398418  23.2026093 113.9659578
  64.6272732  23.6896495 114.3513310  65.3362593  22.5269584 114.5097230
  65.1636316  23.1744402 114.1038437  59.2417499  24.9588934 109.0657078
  59.6961246  25.1299495 109.7904922  59.7157545  24.3457045 108.6654853
  59.3785820  24.8939820 109.1130839  52.7633025  34.4437260 118.3959816
  52.1720958  35.0846759 118.3662831  53.5254048  34.8674878 118.3691116
  52.7881285  34.6013099 118.3874963  68.8823446  34.2743030 119.3937094
  68.9406570  34.7229679 120.1397071  68.2489914  34.6841843 118.9567174
  68.7974741  34.4016765 119.4389643  62.5222541  39.8946572 115.8291841
  62.3242230  40.3837386 115.1348052  61.9010252  40.0987813 116.4075974
  62.4010105  39.9963110 115.8115064  56.5830519  31.6631469 110.1702085
  57.3272564  32.0505745 110.4085035  56.7291216  30.8188894 110.3342573
  56.7141105  31.5961942 110.2296055  59.5708395  27.2356942 116.0696004
  59.0968350  26.7098704 116.5801315  59.9426531  26.6886415 115.5010866
  59.5558284  27.0772939 116.0611151  65.8345126  32.2959318 117.4802785
  65.5943349  31.4565733 117.4845211  66.3137133  32.3759484 118.2043558
  65.8697310  32.1840717 117.5877587  61.4991895  28.1293497 109.1321758
  60.9714914  28.2122241 108.4427467  61.9587603  28.8711368 109.1286403
  61.4893745  28.2514159 109.0296453  67.8350313  29.0760775 115.4332044
  67.5960083  29.0356609 114.5952829  67.9984214  29.9231927 115.5597765
  67.8240616  29.1952860 115.3285526  64.4396343  33.4610724 121.3637089
  65.1630542  33.0083251 121.1848109  64.1746305  33.7415390 120.5809417
  64.5077616  33.4361693 121.2215804  53.4924960  26.3996016 104.1562653
  53.1437764  27.0515742 104.6194203  53.0121406  26.3853129 103.4286524
  53.3695204  26.4939070 104.1173744  61.0528977  36.6997060 108.2631415
  61.7763176  37.1655173 108.1195988  60.6129568  36.7670670 107.5129012
  61.0944670  36.7780897 108.1316196  60.2215132  33.5594603 119.5132104
  59.6072126  33.0152653 119.8080739  60.7382417  33.0458839 119.0337920
  60.2070795  33.4031012 119.4856332  59.4611430  34.6298873 117.2476403
  59.0339038  34.0048591 116.8141838  59.4536374  34.3473794 118.0735410
  59.3970571  34.4951653 117.3056230  53.8648869  29.0254547 109.6688698
  54.0051830  29.5227011 110.3717339  54.3631402  28.3240841 109.8102911
  53.9589950  28.9956525 109.7940277  53.8949091  29.8921658 106.9981275
  54.5294171  30.4882083 106.9330736  53.9774702  29.5925115 107.8127145
  54.0005642  29.9362566 107.1084361  66.8731657  32.4237135 119.8667639
  67.4649497  33.0634386 119.8985837  67.3090651  31.7260172 120.1559706
  67.0250088  32.4155485 119.9148471  55.4728074  25.8235633 106.9726717
  55.7943915  25.3438716 106.3185979  55.7355018  26.6335279 106.7817528
  55.5594099  25.8725531 106.8482209  58.7025047  36.8454507 120.4925533
  58.1950138  37.3990354 120.9366163  58.4051693  36.9062797 119.6744307
  58.5829932  36.9360819 120.4373989  50.4002079  32.0889498 110.2670821
  50.9094308  32.6854006 110.6482126  50.8736351  31.8215472 109.5847240
  50.5445455  32.1375314 110.2225343  61.3132827  40.7617765 108.4229476
  60.5962137  40.5878627 107.9576714  61.9639565  40.5270337 107.8904962
  61.3034678  40.7013558 108.2758694  59.3081452  21.6822927 112.7440773
  58.6649770  21.5320573 113.3125911  58.9680859  21.4365272 111.9789877
  59.1626529  21.6235049 112.7143788  63.8980798  29.6382354 112.1670781
  63.2271988  30.1812056 112.0383847  64.5920549  30.1077209 111.9252476
  63.9009666  29.7880625 112.1126309  57.9467532  41.7779066 117.3982540
  57.7233187  41.0197895 117.7666566  57.4577375  41.8077087 116.6762979
  57.8410981  41.6701290 117.3459281  64.0608926  26.0938237 115.0761154
  64.4136536  25.6667960 115.7506953  63.2023727  26.0089081 115.2062231
  63.9858370  26.0182978 115.1956165  52.7592611  28.7245757 113.1344001
  52.0404600  29.1409890 113.4016865  53.1304973  29.2899996 112.5835639
  52.7084543  28.8695038 113.0926808  56.5945989  41.9979524 114.8519624
  56.1806388  41.3353654 114.4623466  57.2793363  42.1457383 114.3315318
  56.6344361  41.9220182 114.7176121  59.9611283  41.1569609 115.6043241
  59.5627566  41.2671879 114.8364061  59.3462503  41.3651675 116.1869801
  59.8110172  41.2043177 115.5774540  58.5339185  27.7643757 108.4717380
  57.9404024  28.0860753 107.9201948  58.5714463  26.9184852 108.2638487
  58.4513574  27.6868085 108.3600152  61.4097002  27.7223261 111.9019131
  61.1810695  27.7455963 111.0597489  61.6695078  26.8980728 112.0214141
  61.4143190  27.6039341 111.7944328  54.4641764  26.2599808 113.1973326
  54.9399131  26.6216888 112.5623508  53.9630364  26.9156275 113.4773469
  54.4607123  26.4093996 113.1450067  67.6953126  35.7321576 108.9886331
  68.0786732  36.4812932 109.2184428  66.8997239  35.9787395 108.7298320
  67.6346908  35.8791270 108.9843905  56.5068417  28.4041008 106.5646710
  56.8867382  28.4220637 105.7797825  55.7661013  28.8494996 106.4437558
  56.4537255  28.4722782 106.4310279  64.1353708  26.7123199 112.1522289
  64.1347934  26.5571855 113.0106565  63.9309888  27.5586186 112.0963675
  64.1053486  26.8143819 112.2710228  61.8594560  31.3920701 115.8058496
  62.3548225  30.6743696 115.7662516  61.0494336  31.0891498 115.6912983
  61.8138453  31.2418347 115.7832222  57.3053171  35.2418514 107.9555500
  56.4964494  34.9185187 107.9088810  57.8128080  34.5351736 107.8883749
  57.2602838  35.0899830 107.9385795  47.9343449  32.6690707 113.6802865
  47.0688968  32.6576397 113.5685636  48.0342265  32.4820930 114.5274004
  47.8217616  32.6396768 113.7891809  63.9246379  34.1424388 118.4935625
  64.3501450  33.6198810 117.9406050  63.5603299  34.7405225 117.9724248
  63.9332981  34.1534615 118.3344634  53.5600459  42.4388606 117.2532970
  53.8747018  43.2524994 117.2610752  53.9693872  42.0538824 117.9215129
  53.6668557  42.5017308 117.3537062  60.5124978  37.8558652 114.8236782
  60.9836156  38.5698915 114.9926767  60.8485157  37.2557402 115.3596652
  60.6320093  37.8730117 114.9269158  61.1498925  37.6476586 121.5864475
  60.6019871  37.0234470 121.3184540  61.6111953  37.8370858 120.8708554
  61.1366134  37.5835637 121.4414906  56.4987588  24.6302536 109.2474342
  57.3203282  24.8000849 109.0056037  56.0357239  24.7849797 108.5240639
  56.5518750  24.6784269 109.1045986  50.9013479  36.3861714 116.9011579
  51.5058336  36.3457548 116.2725399  50.6940791  37.2332866 116.9315634
  50.9602376  36.5049716 116.8127695  60.7157251  38.6527659 118.1173816
  61.5355625  38.5090625 118.3790111  60.4351329  39.2773858 118.6590254
  60.7953994  38.7238011 118.2361755  77.1870901  46.3092511 111.0816692
  77.1564906  47.1637148 111.2534962  77.7852250  46.0087803 111.6402836
  77.2708059  46.3909007 111.1891495  70.3870586  45.3968162 115.8369623
  69.5308482  45.5576660 115.8878740  70.4338240  44.5260226 115.8574684
  70.2669698  45.2918964 115.8475689  64.7711726  54.9330880 111.6006854
  64.0194625  54.5546418 111.3722899  65.2197738  54.9649313 110.8525665
  64.7261393  54.8816487 111.4564356  73.6964303  51.6654687 125.4430079
  74.4031070  51.1706718 125.5717013  73.8852238  52.1063769 124.7132737
  73.8292208  51.6573038 125.3539124  70.2236686  55.3556249 107.0292401
  69.8888054  56.0333171 106.5936624  70.7363556  54.9661561 106.4409273
  70.2502267  55.3980827 106.8779193  69.7640977  57.3070518 112.9703513
  70.1480356  57.8757417 112.4308288  69.7000118  56.5820028 112.4909329
  69.8114404  57.2845981 112.8197376  73.2322407  47.4560206 118.4801274
  73.7778367  48.1345292 118.5395244  73.1739283  47.3147667 117.6202856
  73.3038322  47.5352207 118.3613335  66.3496482  54.9449272 113.8669627
  66.4506845  54.1349626 114.1766755  65.7538227  54.8506218 113.2369305
  66.2769021  54.8114300 113.8195865  75.0087476  48.8844813 109.3535002
  74.8927002  49.6352499 109.7827140  75.8043362  48.6268766 109.6031089
  75.1092065  48.9579660 109.4539094  66.1897222  59.8626861 115.2684483
  66.8334677  60.3040025 115.6580641  66.5153477  59.0580287 115.1814742
  66.3329050  59.8092056 115.3129960  59.5461526  50.9669558 113.4921960
  59.3111711  50.1337211 113.3854229  59.6847167  51.2474224 112.6783161
  59.5317189  50.8853062 113.3564315  61.8451614  43.1355289 116.3906268
  61.2256645  42.5447936 116.2216283  61.7435477  43.7266724 115.7570591
  61.7389289  43.1359372 116.2711258  66.8917801  52.8738836 110.6404345
  67.2133642  53.4144043 110.0365653  67.5389898  52.3035607 110.7726634
  67.0343857  52.8698011 110.5711380  68.9419509  44.8754831 110.7238731
  69.6399674  45.0542958 111.2160195  69.2571842  44.3525170 110.1009121
  69.0914847  44.8248603 110.7040741  61.5720747  46.6807571 118.6349837
  61.4479444  47.2670016 119.2699656  62.2239031  46.1867766 118.9362112
  61.6494396  46.6946375 118.7735766  69.1307445  51.2625276 110.7118523
  69.5701080  50.6542376 111.1573296  68.9812108  50.8832649 109.9403988
  69.1728910  51.1163747 110.6637690  66.5979088  49.8569288 117.9137348
  67.2428090  49.3641731 117.5948297  66.8380865  49.9994074 118.7403427
  66.7289673  49.8046730 117.9886881  69.1365179  52.7024194 117.5644241
  69.4188422  51.9075599 117.3430997  69.8651340  53.1804781 117.5849302
  69.2854743  52.6558790 117.5347256  67.1146373  40.2447228 114.8060006
  66.7849703  40.6958371 114.1363705  66.4391375  40.1663391 115.3533012
  66.9656809  40.2998363 114.7883229  72.7316781  49.6152457 107.6649292
  72.6468076  50.4713424 107.8098861  73.2201165  49.3396781 108.3331451
  72.7905679  49.7009779 107.7851374  74.3222781  36.2332750 113.0509617
  74.0076222  36.9236229 113.4830039  73.8049722  36.1777533 112.3495117
  74.1987251  36.3267639 113.0106566  73.6635215  46.2337251 109.1647027
  73.1346686  46.4496885 109.8244333  74.1860234  46.9273390 109.0847996
  73.6623668  46.3680388 109.2502626  79.1183267  51.8083556 114.5380072
  78.2880971  52.0194199 114.7013488  79.0692520  50.9820610 114.2622355
  78.9890003  51.7173162 114.5217437  65.5534822  50.1300468 107.9654495
  64.9692038  50.6350499 108.3720359  65.1504918  49.9042855 107.2251087
  65.4074126  50.1708716 107.9159520  61.1078851  55.8455229 114.7678167
  60.6246429  56.5705719 114.7437750  61.9202169  56.1431359 114.8788324
  61.1569599  55.9957583 114.7805446  67.1793005  54.6387410 117.3727981
  66.6619947  54.2794825 116.7689289  67.8767396  54.1149584 117.3834047
  67.2058586  54.5085098 117.2858240  70.8356597  55.0882224 123.3344154
  70.9239943  54.9008364 124.1822364  71.2646310  54.4419654 122.9349001
  70.9118699  54.9645232 123.4015906  68.4027057  54.3713384 122.3161816
  67.8397892  53.9585994 122.8401478  69.1648080  54.2966290 122.7354960
  68.4321505  54.2990785 122.4554817  70.0112037  46.3766120 106.4423416
  70.2508040  46.5844104 105.6298759  70.3327878  45.5723629 106.5512360
  70.0949195  46.2880221 106.3383969  65.3202327  38.3059516 110.2882954
  66.0748295  38.6737833 110.0500004  65.1429862  38.6799070 111.0562133
  65.4056805  38.4157704 110.3667842  63.9623048  56.3611405 114.9198446
  64.6643628  55.8463394 114.9771203  63.8820531  56.6885556 115.7245322
  64.0546809  56.3325631 115.0471239  78.6137226  44.4553956 118.3330493
  77.7765647  44.5256144 118.5678087  78.5825457  44.4578451 117.4604795
  78.4855508  44.4664183 118.2390041  65.0101955  46.5986992 124.0478862
  65.1822459  46.4892887 124.8964143  65.5471312  47.2441398 123.8110054
  65.1146959  46.6778994 124.1383958  63.2873824  52.5517757 114.4284055
  64.1262723  52.7840690 114.4757816  63.3185593  51.6822069 114.3591090
  63.4155541  52.4574704 114.4248699  63.9126527  52.9718632 118.7297360
  64.4524752  52.8289763 119.4000732  63.2296473  53.3715383 119.0981386
  63.8918681  53.0098303 118.8831782  69.3559111  37.7156246 110.0210090
  70.0845271  37.5372201 109.5748247  69.4454004  38.5574325 110.2317269
  69.4765773  37.8140124 109.9863608  73.3367412  48.6509633 113.9242384
  74.0924927  49.0841147 113.9631293  73.4429736  48.0014403 114.4977020
  73.4637582  48.6187117 114.0140410  76.3747583  52.4782910 114.6744787
  75.9382815  52.4819653 115.4303759  76.0410498  53.1588409 114.2424365
  76.2610203  52.5795366 114.7225620  70.9476656  54.5191243 125.9987938
  71.7317073  54.6322091 126.3643680  70.7473251  53.6932380 126.1946624
  71.0342682  54.4137962 126.0822324  59.3163672  49.1918923 118.8831782
  59.0502087  48.3758040 119.0422772  59.3302236  49.2372079 118.0127297
  59.2788394  49.0775828 118.7785264  76.2945066  39.5196738 116.9174215
  76.9370974  39.5894843 117.5036131  76.5468086  38.8525961 116.4153757
  76.4267198  39.4323087 116.9301495  64.0662278  42.7297301 121.5298789
  63.3734075  42.2594281 121.7759521  64.6822605  42.5035606 122.1040496
  64.0546808  42.6264433 121.6507942  71.1047050  56.4301345 119.6454393
  70.3062295  56.1900845 119.9028262  71.5533061  56.4815738 120.3921441
  71.0521661  56.4023736 119.7939318  79.5091929  49.1963830 113.5664425
  80.1708363  48.6354499 113.4660333  78.8683341  48.7015861 113.8917116
  79.5120796  49.0400239 113.5996765  70.3968737  52.4933962 105.8745348
  70.8119885  52.1618985 105.1829844  69.5660666  52.2602864 105.7465485
  70.3356745  52.4105217 105.7536195  59.7257085  49.9777703 116.1643526
  59.5432659  49.9524589 115.3115818  60.4606754  50.4476640 116.2032435
  59.8071149  50.0439065 116.0441444  75.7956760  50.2129213 113.3076413
  76.0312349  50.3574411 112.4803264  75.9446323  50.9771621 113.7007927
  75.8522563  50.3468267 113.2440017  62.7902837  46.6962705 122.6725634
  63.5142809  46.6815736 123.1590529  62.8918974  47.4058061 122.1747603
  62.9121046  46.7987409 122.6704421  77.6247216  49.0530878 111.1446017
  77.9555433  49.5858519 110.5386112  78.1980304  49.1069766 111.8007968
  77.7580895  49.1400447 111.1523799  70.1647786  50.1761790 127.5374581
  69.3720767  50.4905302 127.7227201  70.2796714  50.3913258 126.6995366
  70.0643197  50.2545627 127.4412916  72.8379105  46.8995781 111.8269597
  72.9325960  47.6385075 112.2809223  72.2137949  46.4713257 112.2604162
  72.7588136  46.9457102 111.9577745  71.0931579  50.0781994 122.4759878
  71.6670441  49.4409238 122.6308442  71.0146383  50.0786076 121.6069536
  71.1664814  49.9847105 122.3706289  59.6927996  46.8571203 116.3142592
  60.2701498  46.7207654 116.9534838  58.9942057  46.4006987 116.5688177
  59.6749017  46.7693469 116.4464882  73.0902127  48.7444521 105.0606549
  73.0082289  48.8146708 105.9261536  73.7281847  49.3074265 104.8690290
  73.1721964  48.8383492 105.1596499  66.4495298  48.5105259 114.5281076
  66.1914542  47.6776994 114.5012375  66.5043781  48.7362872 113.6873576
  66.4195076  48.4203030 114.4001212  71.5296348  40.6133710 114.6285168
  70.8252675  40.1242895 114.7869087  71.5781322  40.6256184 113.7573613
  71.4326400  40.5423358 114.5224508  65.4230010  46.0643021 115.0145970
  64.8479601  46.2235190 115.6509931  65.0465686  45.4278430 114.5514421
  65.2832822  45.9940834 115.0400529  69.0903299  44.5366371 119.8738349
  68.7017731  44.1120588 119.2190540  68.4257997  44.7848520 120.3815375
  68.9350226  44.5105092 119.8526217  78.7326568  44.2941375 112.6486179
  78.4763133  43.4821317 112.4584062  79.5755882  44.3018942 112.4216366
  78.8192593  44.1753373 112.5870996  55.1686829  45.7083096 113.0290411
  55.2547081  45.3314964 113.8103941  55.7962626  45.3343542 112.5510369
  55.2743380  45.5968578 113.0735888  72.9129660  38.2340999 117.3862333
  73.2940172  37.5519170 117.7730207  72.1092945  37.9450601 117.2037997
  72.8506122  38.0908048 117.4166389  70.1942237  48.7664975 108.0715156
  71.0082876  49.0579868 107.9597927  70.1301378  48.1124838 107.4973449
  70.3044976  48.7130170 107.9703993  76.4151727  51.4490971 122.4844731
  76.1790365  50.6179036 122.3656792  77.0594956  51.3976579 123.0699576
  76.4746398  51.3188659 122.5530625  66.0650145  52.2386493 113.1987468
  66.7024092  51.9998240 113.7439261  66.4905217  52.4423652 112.4640628
  66.2226311  52.2337503 113.1704625  60.7562788  54.4774829 117.0821772
  60.7966933  54.7489680 116.2541551  61.3157312  55.0016737 117.4979560
  60.8446134  54.5950584 117.0213660  66.7052960  47.4588782 107.5362357
  67.0898113  47.2396489 108.2878902  66.4564581  48.2851728 107.6663434
  66.7255033  47.5486929 107.6663434  66.8721501  40.7395198 127.2524941
  66.5574942  41.5094760 126.9894504  66.5511433  40.1765454 126.6677168
  66.7780420  40.7705466 127.1266291  77.4388148  51.2335420 118.5473026
  77.1333965  51.9663477 118.9086342  76.7194363  50.8273350 118.2665812
  77.2875490  51.2817153 118.5586163  68.4471617  52.7158915 114.8781254
  68.5210625  52.5534087 115.7323104  69.2641124  52.9049105 114.6341736
  68.5787976  52.7195658 114.9679280  83.1389940  47.8728421 117.8741370
  83.0714440  47.8924380 117.0043957  83.1245602  48.7158748 118.0997041
  83.1268696  48.0002155 117.7793847  64.4253398  39.1285719 112.8671138
  63.5575823  39.2008319 112.9328747  64.7128602  39.9307798 113.0559113
  64.3393146  39.2579866 112.9045904  73.5486286  39.2763578 121.1982460
  74.2939878  39.0873389 120.7845885  73.1323591  39.8021816 120.6396316
  73.5971261  39.3265724 121.0547033  66.9876203  55.6793658 109.6094728
  67.2774501  55.2882640 108.8853954  67.7179684  55.8610363 110.0500003
  67.1383087  55.6487472 109.5677535  80.9248557  46.6472807 116.1487965
  81.4756479  46.0140876 116.3885057  80.9092673  47.1788200 116.8403469
  81.0033754  46.6321755 116.2866823  67.5770948  50.4811404 120.6947858
  67.0782642  51.1927172 120.7732746  68.3871172  50.8012071 120.6566020
  67.6227055  50.6338253 120.7004427  64.9282118  57.6561041 112.6754877
  64.7082414  57.3658395 113.4681544  64.7076641  56.9975996 112.1472790
  64.8629713  57.5160749 112.7143786  63.8399066  49.7434357 114.9410579
  63.5512314  49.1171829 115.4756306  64.7082414  49.6854645 115.0075259
  63.9259318  49.6421902 115.0301533  74.6276963  44.8869141 115.2592561
  74.2841729  44.1659476 115.6099810  74.7270006  44.6782992 114.4170919
  74.5919006  44.7493344 115.1864241  67.0950074  59.0290431 111.4585570
  67.7474132  58.4966873 111.6876596  66.3975683  58.6759083 111.8453444
  67.0880792  58.8979954 111.5497737  75.0889993  51.3494845 110.8016549
  75.6548025  52.0088055 110.7175092  74.4417896  51.6944543 111.2732951
  75.0768749  51.4976786 110.8589305  66.5038006  43.3392449 125.9910156
  65.6937782  43.6450228 125.8799999  66.9812693  44.0598031 126.1062740
  66.4541485  43.4907050 125.9917227  65.3629566  52.5538170 116.2393059
  64.8410319  52.6938461 116.9244924  65.7503586  51.7948834 116.4295177
  65.3433267  52.4623694 116.3694136  62.3520750  42.6043978 110.3088014
  62.0645545  42.2345249 109.5719961  63.0391218  43.0738834 110.0471719
  62.4109647  42.6190948 110.1603090  71.5596571  54.2933629 110.2253628
  71.3183247  53.5601490 109.8180693  71.7397904  54.8420486 109.5719961
  71.5504195  54.2656020 110.0683851  66.7895891  49.5842189 111.6374550
  66.5938674  50.1916923 111.0434853  67.0130237  48.8910133 111.1566224
  66.7930532  49.5719714 111.4790631  65.1874421  46.4696927 111.7555419
  65.9097073  46.6338085 111.2959225  64.7082414  47.1906591 111.6494759
  65.2238152  46.5995156 111.6721033  73.1467929  42.8060725 117.1352104
  72.3079029  42.8322004 116.8990367  73.2172296  43.4531461 117.7157450
  73.0336322  42.9056851 117.1861221  62.8382038  48.8754999 120.8609559
  63.3503135  49.1539252 120.2118318  62.5518381  49.6144293 121.2272372
  62.8716901  49.0257353 120.8199437  71.5937207  39.7046102 111.8679720
  72.2963560  39.5053851 111.3899678  71.3281396  38.9322045 112.1748563
  71.6583839  39.5609068 111.8425161  77.0225453  48.0128712 114.4213345
  76.9359427  48.1684138 115.2748124  76.5675933  48.6566788 114.0472750
  76.9428709  48.1304467 114.4920452  59.9248944  43.3825191 111.1573295
  60.0265081  44.1851352 111.4854271  60.7204831  43.1812527 110.8596376
  60.0576850  43.4711090 111.1608650  66.3565763  40.9681388 120.9210600
  66.1648960  40.9836522 121.7710024  67.2064359  41.1645062 120.8977255
  66.4541485  40.9995739 121.0433895  60.7412676  43.4972369 118.8994417
  60.5998168  42.6456310 119.0238925  61.0253240  43.5401030 118.0756623
  60.7620522  43.3772119 118.7962041  70.8951269  45.3339459 113.0438905
  70.6485983  45.2535210 113.8775694  71.2236392  44.5492927 112.8501432
  70.9072512  45.2065725 113.1386428  74.7899318  52.0422819 116.8325686
  74.6513677  52.7403864 117.3374429  74.0099315  51.8871475 116.4761868
  74.6542544  52.1222985 116.8551960  73.1277403  48.3419194 123.0848068
  73.1225441  47.4699011 123.0890494  73.8338397  48.5407363 122.6117524
  73.2322407  48.2423068 123.0155103  66.8548296  48.0696178 122.4561888
  66.9991672  48.6497386 121.8204998  67.2023945  48.4472475 123.1611743
  66.9275757  48.2116882 122.4660883  69.0268213  47.2686346 120.2387020
  68.2791527  47.4617361 119.8335298  69.1809739  46.4431566 120.0011141
  68.9390641  47.1751458 120.1432425  65.9276051  56.2598950 119.3222915
  66.0765615  55.7001866 118.6696319  66.7076053  56.3390951 119.7055434
  66.0650145  56.1884515 119.2819864  76.2852690  51.4001072 107.5942185
  75.9059499  50.6138210 107.5871475  75.6218936  51.9487929 107.4513830
  76.1311165  51.3645896 107.5722982  68.4529352  56.4313593 120.6007406
  68.3773023  55.7622403 121.1558194  68.3819211  57.1331381 121.1148072
  68.4309959  56.4358500 120.7584254  69.2669990  41.1636897 121.1282423
  69.7242605  41.8960871 121.2555216  69.3426319  40.7403362 121.8869679
  69.3460960  41.2094135 121.2583500  61.5102982  41.4102717 122.2171867
  60.9745171  40.7983075 122.5332634  61.5720746  41.9850853 122.8705534
  61.4398614  41.4049644 122.3607294  73.7397316  34.3426772 114.9976266
  73.8580884  34.8003235 114.2643569  73.5659492  33.5372033 114.7112484
  73.7316487  34.2920544 114.8477200  69.1099599  54.9514591 111.4331012
  69.8749490  54.6824235 111.1113676  69.0077689  54.4664602 112.1501074
  69.2081094  54.8404156 111.4910839  67.1452368  43.1539001 117.9724247
  66.3548443  42.9730461 118.2941583  67.5412991  42.3765953 117.9554542
  67.0869245  43.0126462 118.0176796  71.6318259  51.9826775 103.4130961
  72.3991244  52.0426900 103.0036813  71.1849568  51.4107217 102.9287280
  71.6791686  51.9063351 103.2808671  72.5296055  50.7881431 115.6983693
  71.8541056  50.5566663 116.1997080  72.5388431  50.1802614 115.0725798
  72.4314559  50.6640356 115.6799846  69.6590199  45.6299260 122.4547746
  69.5949340  46.4909216 122.3267883  69.7987386  45.3131253 121.6543298
  69.6705669  45.7099427 122.3175959  74.5312789  53.6446563 107.9293871
  74.6132627  54.4513550 107.6055322  75.0162531  53.6642523 108.6534645
  74.6149947  53.7667226 107.9880770  68.3409293  48.3231399 116.5963949
  67.9171542  48.5235898 115.8602968  68.1654148  47.4760247 116.7088249
  68.2520173  48.2280181 116.5037639  67.8420986  59.8381912 119.0585406
  68.3316916  59.1392702 118.8761071  67.2705218  59.5405782 119.6461464
  67.8305516  59.6908136 119.1186447  63.6291737  48.8183451 112.0291922
  63.7856357  48.7530254 112.8847914  63.9692331  49.5932003 111.8170601
  63.7024972  48.9232649 112.1246516  70.1670882  48.1941334 110.8985285
  70.7086428  47.6911715 111.3623906  70.4817441  48.1406529 110.0874770
  70.2935279  48.1120755 110.8469097  74.0387990  52.4043982 128.0112197
  74.8522855  52.1329131 128.1717330  73.8782956  52.1051522 127.2072393
  74.1357938  52.3198908 127.9157603  68.3357332  53.5858686 108.1825313
  68.4050152  52.7273224 108.3218313  69.1145787  53.8030567 107.8544338
  68.4610182  53.4911550 108.1542470  71.3160151  43.0877639 120.9507585
  71.5302121  42.4488553 120.3970939  70.6994051  43.5323463 120.5215447
  71.2565481  43.0587783 120.8058017  72.7264819  56.0096387 112.3961806
  72.3344611  55.7063102 111.6784672  72.8817892  56.8465477 112.2066760
  72.6918409  56.0880224 112.2618303  60.2025999  46.0018401 112.3452689
  60.5824964  46.4202946 111.6812956  59.6281364  46.5831857 112.6521532
  60.1737324  46.1496260 112.2929430  73.4799239  44.6966704 121.8890892
  72.6675921  44.3892594 121.9704065  73.9389174  44.2165704 122.4533605
  73.4279624  44.5803196 121.9845487  72.8904494  52.5746376 112.3367837
  72.5319149  52.7461019 113.1131869  72.4043205  53.0359582 111.7795835
  72.7663191  52.6685347 112.3693106  70.7074880  36.1977575 115.9394928
  69.8368438  36.1716296 115.8928238  70.9615221  36.0254767 115.1220774
  70.6168440  36.1687718 115.8115065  67.6792860  48.2545541 104.8768071
  67.9685384  49.0310424 105.1511646  67.7664658  47.7434273 105.5782571
  67.7347116  48.2937460 105.0210569  70.5752747  46.1026776 126.6719595
  71.0452378  46.7268892 127.0587469  70.6214627  45.4343751 127.2312809
  70.6520623  46.0961456 126.8119666  67.7324021  38.2083803 117.3968399
  67.2162509  37.5163994 117.5219978  67.1717950  38.8754580 117.3430997
  67.5730534  38.2047061 117.4074465  69.8016254  38.7476763 119.2261251
  69.4148007  38.7725795 120.0074781  69.3149191  38.1818442 118.7735768
  69.6728763  38.6672514 119.2749155  74.0509234  53.4650272 123.2835038
  74.6888954  52.9710468 122.9497494  73.4083325  53.3927672 122.6987265
  74.0503460  53.3809281 123.1477393  75.7766234  45.3139418 117.8500953
  75.3493842  45.2265767 117.0949053  75.1392287  45.4217193 118.4355797
  75.6195841  45.3172078 117.8246395  69.4673396  35.6343749 121.5171511
  70.0966514  36.1704049 121.2392581  69.6359259  35.5421107 122.3685077
  69.5851190  35.7005111 121.6020039  69.2687311  40.4214943 123.7897923
  70.0960740  40.1500092 123.8456537  69.2895157  41.2175785 124.1461741
  69.3940161  40.4994697 123.8513106  74.1063490  54.1570080 119.9240394
  74.8955868  53.8059145 120.0442476  74.2807088  54.9706469 119.6617028
  74.2483772  54.2255937 119.9028262  63.8456801  47.5678806 116.9768183
  63.0044807  47.4682680 117.1847077  64.0546808  48.3374286 117.3282504
  63.7521493  47.6670849 117.0595498  61.3232367  45.1898343 114.8052934
  60.9289065  45.2641355 114.0303044  60.7672484  45.5756289 115.3561296
  61.1835180  45.2580118 114.7720594  72.9597314  38.1679637 114.4856813
  73.1646908  38.1001945 115.3313810  72.6323738  38.9738458 114.4177990
  72.9412562  38.2765577 114.6016468  67.6573465  45.4960205 116.2265781
  67.3536603  44.9416193 116.8276188  66.9552886  45.6752415 115.7393815
  67.5089675  45.4404988 116.2435486  66.7139562  42.8060725 110.7910483
  66.9899297  42.0879638 110.3788050  67.3138232  43.4045645 110.5831589
  66.8432827  42.7881096 110.6991244  65.7191816  52.7109926 120.9337879
  65.6112171  52.7211988 121.7999937  65.9287598  53.5364706 120.7442832
  65.7341927  52.8351001 121.0341970  76.2131002  38.7211401 113.9659578
  75.6005316  39.2081803 114.3513310  76.3095177  38.0454892 114.5097230
  76.1368900  38.6929710 114.1038437  70.2150083  40.4774242 109.0657078
  70.6693830  40.6484803 109.7904922  70.6890129  39.8642353 108.6654853
  70.3518403  40.4125128 109.1130839  63.7365608  49.9622568 118.3959816
  63.1453542  50.6032066 118.3662831  64.4986632  50.3860186 118.3691116
  63.7613869  50.1198407 118.3874963  64.1326231  41.1224566 119.0627834
  64.5927713  41.1963496 119.8002958  64.1782338  41.9205820 118.7127655
  64.2076787  41.2518713 119.1200590  65.7809581  41.7891261 123.6299861
  65.3895146  41.1424608 124.0655639  65.9495444  42.3802696 124.2494116
  65.7480491  41.7805529 123.7862567  79.8556030  49.7928338 119.3937094
  79.9139154  50.2414987 120.1397071  79.2222498  50.2027151 118.9567174
  79.7707325  49.9202073 119.4389643  73.4955125  55.4131880 115.8291841
  73.2974813  55.9022694 115.1348052  72.8742836  55.6173121 116.4075974
  73.3742689  55.5148418 115.8115064  67.5563103  47.1816777 110.1702085
  68.3005148  47.5691053 110.4085035  67.7023799  46.3374202 110.3342573
  67.6873688  47.1147250 110.2296055  69.4742678  38.9767036 115.2033946
  68.6278724  39.1489843 115.0775296  69.4713811  38.1716379 115.5399775
  69.3489828  38.8828065 115.2345073  70.5440979  42.7542250 116.0696004
  70.0700933  42.2284012 116.5801315  70.9159115  42.2071723 115.5010866
  70.5290868  42.5958247 116.0611151  60.9214009  44.7513757 121.4379550
  61.7839622  44.6509466 121.3516880  60.5905792  44.1708466 120.8765122
  60.9999205  44.6505383 121.3424956  76.8077709  47.8144626 117.4802785
  76.5675932  46.9751041 117.4845211  77.2869717  47.8944792 118.2043558
  76.8429893  47.7026025 117.5877587  72.4724479  43.6478805 109.1321758
  71.9447497  43.7307549 108.4427467  72.9320187  44.3896676 109.1286403
  72.4626329  43.7699467 109.0296453  78.8082896  44.5946083 115.4332044
  78.5692666  44.5541917 114.5952829  78.9716798  45.4417235 115.5597765
  78.7973200  44.7138168 115.3285526  75.4128927  48.9796032 121.3637089
  76.1363125  48.5268559 121.1848109  75.1478889  49.2600698 120.5809417
  75.4810200  48.9547001 121.2215804  64.2815795  43.5756206 118.0989968
  63.6568865  43.5874598 117.4915921  63.9461390  44.0516381 118.7481208
  64.1401287  43.6474723 118.1046537  60.9941470  51.6356666 119.5393733
  60.4641395  50.9449105 119.5888707  61.2666564  51.6266851 118.7106441
  60.9566193  51.5323798 119.4241148  72.0261561  52.2182368 108.2631415
  72.7495760  52.6840481 108.1195988  71.5862152  52.2855978 107.5129012
  72.0677253  52.2966205 108.1316196  71.1947716  49.0779910 119.5132104
  70.5804709  48.5337961 119.8080739  71.7115001  48.5644147 119.0337920
  71.1803378  48.9216319 119.4856332  70.4344013  50.1484180 117.2476403
  70.0071621  49.5233899 116.8141838  70.4268958  49.8659102 118.0735410
  70.3703154  50.0136961 117.3056230  63.5506540  45.1849354 120.3164837
  63.7100027  44.4292678 120.7216559  63.3699434  45.7340293 120.9705574
  63.5471899  45.1543167 120.4727543  71.4926843  37.3510589 120.8715626
  70.9967405  37.5474263 120.1807193  72.2495905  37.7503257 120.7004428
  71.5313668  37.4388323 120.7435763  68.7629723  41.0252935 117.4618937
  68.7872210  40.4913047 116.7731717  69.0141197  40.5170244 118.1244527
  68.8039642  40.8713839 117.4583581  56.2737313  48.3084430 116.8962081
  56.1680762  48.2631274 116.0314165  55.5237533  48.6538211 117.1776366
  56.1472916  48.3525338 116.8099411  65.0431045  39.7523753 116.8424681
  65.0829417  40.2532960 117.5559388  64.2180710  39.8434147 116.5730604
  64.9270571  39.8405570 116.9075219  67.2260658  49.3184493 124.9444976
  66.3756289  49.4556208 125.0802621  67.3888786  48.5848271 125.3892677
  67.1244522  49.2298594 125.0300575  66.4645409  46.2684263 119.1398580
  65.6337338  46.4358081 118.9333828  66.4096926  45.8920214 119.9247465
  66.3334823  46.2373994 119.2247108  64.2729192  39.7593156 124.7754991
  64.8981895  39.2155289 125.0484423  63.8179672  39.2788074 124.2062781
  64.2977452  39.6082637 124.7316585  64.8381452  44.5439855 109.6688698
  64.9784413  45.0412319 110.3717339  65.3363985  43.8426149 109.8102911
  64.9322533  44.5141833 109.7940277  64.8681675  45.4106966 106.9981275
  65.5026754  46.0067391 106.9330736  64.9507286  45.1110423 107.8127145
  64.9738226  45.4547874 107.1084361  77.8464241  47.9422443 119.8667639
  78.4382081  48.5819694 119.8985837  78.2823235  47.2445480 120.1559706
  77.9982672  47.9340793 119.9148471  69.6757630  52.3639815 120.4925533
  69.1682721  52.9175662 120.9366163  69.3784277  52.4248105 119.6744307
  69.5562515  52.4546127 120.4373989  71.8419813  40.7293135 119.3350196
  72.2674884  40.2765661 118.7233722  71.2276806  40.1753206 119.6114983
  71.8148458  40.5807111 119.2855221  61.3734663  47.6074806 110.2670821
  61.8826892  48.2039314 110.6482126  61.8468935  47.3400780 109.5847240
  61.5178038  47.6560622 110.2225343  72.2865411  56.2803073 108.4229476
  71.5694720  56.1063935 107.9576714  72.9372148  56.0455645 107.8904962
  72.2767261  56.2198866 108.2758694  70.2814035  37.2008235 112.7440773
  69.6382353  37.0505881 113.3125911  69.9413442  36.9550580 111.9789877
  70.1359113  37.1420357 112.7143788  74.8713382  45.1567662 112.1670781
  74.2004572  45.6997364 112.0383847  75.5653132  45.6262517 111.9252476
  74.8742249  45.3065933 112.1126309  68.9200116  57.2964374 117.3982540
  68.6965770  56.5383203 117.7666566  68.4309959  57.3262395 116.6762979
  68.8143565  57.1886598 117.3459281  75.0341509  41.6123545 115.0761154
  75.3869119  41.1853268 115.7506953  74.1756311  41.5274389 115.2062231
  74.9590954  41.5368286 115.1956165  63.7325194  44.2431065 113.1344001
  63.0137183  44.6595198 113.4016865  64.1037557  44.8085304 112.5835639
  63.6817126  44.3880346 113.0926808  73.0324775  44.8758914 119.0245997
  73.0122703  44.6942209 119.8780776  73.0803976  45.7470932 119.0005580
  73.0359416  44.9775452 119.1469291  70.9771105  51.4646106 124.9494473
  70.9366960  50.8195783 124.3639629  71.7894423  51.4082723 125.2619885
  71.0914259  51.3605073 124.9091422  67.5678573  57.5164832 114.8519624
  67.1538971  56.8538962 114.4623466  68.2525947  57.6642691 114.3315318
  67.6076944  57.4405490 114.7176121  70.9343867  56.6754917 115.6043241
  70.5360150  56.7857187 114.8364061  70.3195086  56.8836983 116.1869801
  70.7842756  56.7228485 115.5774540  69.5071769  43.2829065 108.4717380
  68.9136608  43.6046061 107.9201948  69.5447046  42.4370160 108.2638487
  69.4246158  43.2053393 108.3600152  76.4665569  36.7341957 116.0045467
  75.9596434  36.0271097 115.9366644  77.2633003  36.4035146 116.1346544
  76.5092809  36.5815108 116.0144462  72.3829585  43.2408569 111.9019131
  72.1543278  43.2641271 111.0597489  72.6427662  42.4166036 112.0214141
  72.3875773  43.1224649 111.7944328  66.6648814  45.0943042 121.5044231
  66.1527717  44.4864225 121.8629262  66.4928310  45.8099635 121.9718207
  66.5638451  45.1106342 121.6260455  61.5114528  43.5380618 124.1546593
  61.3417119  44.1981993 123.6094799  61.0680478  43.7487179 124.8759082
  61.4213862  43.6666600 124.1808222  65.4374348  41.7785116 113.1973326
  65.9131714  42.1402195 112.5623508  64.9362947  42.4341583 113.4773469
  65.4339707  41.9279304 113.1450067  78.6685709  51.2506884 108.9886331
  79.0519315  51.9998240 109.2184428  77.8729823  51.4972703 108.7298320
  78.6079492  51.3976578 108.9843905  70.5417884  43.0167287 123.9446486
  71.0989314  42.7881097 123.3124952  70.2178949  43.7772953 123.6681699
  70.5764294  43.0951124 123.8102984  58.4116593  46.4427483 119.4135083
  57.8643312  45.7728129 119.5315951  59.2008971  46.0757331 119.4778550
  58.4468777  46.2892470 119.4403783  68.2601001  46.1034940 124.9098494
  69.0112328  46.4186617 125.2238048  68.4523578  45.9014111 124.0832415
  68.3992416  46.1202322 124.8341889  67.4801001  43.9226315 106.5646710
  67.8599966  43.9405945 105.7797825  66.7393597  44.3680304 106.4437558
  67.4269839  43.9908090 106.4310279  75.1086292  42.2308507 112.1522289
  75.1080518  42.0757163 113.0106565  74.9042472  43.0771494 112.0963675
  75.0786069  42.3329127 112.2710228  57.1703562  45.6548291 116.5681106
  56.9925324  45.2024900 117.2936021  56.8822585  46.4574452 116.7519583
  57.1016516  45.7070849 116.7024608  72.8327144  46.9106008 115.8058496
  73.3280809  46.1929004 115.7662516  72.0226919  46.6076806 115.6912983
  72.7871037  46.7603655 115.7832222  68.2785755  50.7603822 107.9555500
  67.4697078  50.4370495 107.9088810  68.7860664  50.0537044 107.8883749
  68.2335422  50.6085138 107.9385795  58.9076032  48.1876015 113.6802865
  58.0421552  48.1761705 113.5685636  59.0074848  48.0006238 114.5274004
  58.7950199  48.1582076 113.7891809  74.8978962  49.6609696 118.4935625
  75.3234034  49.1384118 117.9406050  74.5335882  50.2590533 117.9724248
  74.9065565  49.6719923 118.3344634  64.5333042  57.9573913 117.2532970
  64.8479601  58.7710302 117.2610752  64.9426456  57.5724132 117.9215129
  64.6401140  58.0202616 117.3537062  71.4857562  53.3743960 114.8236782
  71.9568740  54.0884223 114.9926767  71.8217740  52.7742710 115.3596652
  71.6052677  53.3915425 114.9269158  73.5734546  54.9845274 127.0028854
  73.6831512  54.1953834 127.3585601  73.9025443  54.8951210 126.2003192
  73.6386952  54.8551127 126.9371245  68.4027057  38.1471431 121.7794877
  68.5354962  37.3502424 122.1075852  68.7872210  38.6737834 122.3593153
  68.4783386  38.1071348 121.9138380  72.1231508  53.1661894 121.5864475
  71.5752454  52.5419778 121.3184540  72.5844537  53.3556166 120.8708554
  72.1098718  53.1020945 121.4414906  71.4759412  35.0701757 118.3775970
  70.6705376  34.9599487 118.6943809  71.3466147  35.1714213 117.5205836
  71.3379545  35.0685427 118.2984011  74.9325373  41.2347249 118.9715667
  74.3488361  41.7356455 118.5593234  75.2529667  40.7276805 118.3379990
  74.8938548  41.2339084 118.8174174  67.4720172  40.1487844 109.2474342
  68.2935866  40.3186157 109.0056037  67.0089823  40.3035105 108.5240639
  67.5251334  40.1969577 109.1045986  66.0615504  38.1430606 120.0272771
  66.6059917  37.8021733 120.6177112  66.1152439  39.0016067 120.1694055
  66.1504623  38.2185865 120.1354644  61.8746062  51.9047022 116.9011579
  62.4790920  51.8642856 116.2725399  61.6673375  52.7518174 116.9315634
  61.9334960  52.0235024 116.8127695  71.6889834  54.1712967 118.1173816
  72.5088208  54.0275933 118.3790111  71.4083912  54.7959166 118.6590254
  71.7686578  54.2423319 118.2361755  57.1097345  50.8881639 116.7710502
  57.0121623  50.0777911 117.0800558  57.8926214  50.8673433 116.3856770
  57.2113481  50.7648730 116.7597365  88.1603485  61.8277819 111.0816692
  88.1297489  62.6822455 111.2534962  88.7584834  61.5273111 111.6402836
  88.2440643  61.9094315 111.1891495  81.3603170  60.9153470 115.8369623
  80.5041065  61.0761968 115.8878740  81.4070823  60.0445534 115.8574684
  81.2402281  60.8104272 115.8475689  75.7444309  70.4516188 111.6006854
  74.9927209  70.0731726 111.3722899  76.1930321  70.4834621 110.8525665
  75.6993976  70.4001795 111.4564356  84.6696886  67.1839995 125.4430079
  85.3763654  66.6892026 125.5717013  84.8584822  67.6249077 124.7132737
  84.8024792  67.1758346 125.3539124  81.1969269  70.8741557 107.0292401
  80.8620638  71.5518479 106.5936624  81.7096140  70.4846868 106.4409273
  81.2234850  70.9166135 106.8779193  80.7373561  72.8255826 112.9703513
  81.1212940  73.3942724 112.4308288  80.6732702  72.1005336 112.4909329
  80.7846988  72.8031289 112.8197376  84.2054991  62.9745514 118.4801274
  84.7510951  63.6530600 118.5395244  84.1471867  62.8332975 117.6202856
  84.2770905  63.0537515 118.3613335  77.3229066  70.4634580 113.8669627
  77.4239429  69.6534934 114.1766755  76.7270811  70.3691526 113.2369305
  77.2501604  70.3299608 113.8195865  85.9820059  64.4030121 109.3535002
  85.8659585  65.1537807 109.7827140  86.7775946  64.1454074 109.6031089
  86.0824649  64.4764968 109.4539094  77.1629805  75.3812169 115.2684483
  77.8067261  75.8225333 115.6580641  77.4886061  74.5765595 115.1814742
  77.3061634  75.3277364 115.3129960  70.5194110  66.4854866 113.4921960
  70.2844294  65.6522519 113.3854229  70.6579751  66.7659532 112.6783161
  70.5049772  66.4038370 113.3564315  72.8184197  58.6540597 116.3906268
  72.1989229  58.0633244 116.2216283  72.7168061  59.2452032 115.7570591
  72.7121873  58.6544679 116.2711258  77.8650385  68.3924144 110.6404345
  78.1866226  68.9329351 110.0365653  78.5122481  67.8220915 110.7726634
  78.0076440  68.3883319 110.5711380  79.9152093  60.3940139 110.7238731
  80.6132258  60.5728266 111.2160195  80.2304425  59.8710478 110.1009121
  80.0647430  60.3433911 110.7040741  72.5453330  62.1992879 118.6349837
  72.4212027  62.7855324 119.2699656  73.1971615  61.7053074 118.9362112
  72.6226980  62.2131683 118.7735766  80.1040028  66.7810584 110.7118523
  80.5433664  66.1727684 111.1573296  79.9544691  66.4017957 109.9403988
  80.1461494  66.6349055 110.6637690  77.5711671  65.3754596 117.9137348
  78.2160674  64.8827039 117.5948297  77.8113448  65.5179382 118.7403427
  77.7022256  65.3232038 117.9886881  80.1097763  68.2209501 117.5644241
  80.3921006  67.4260907 117.3430997  80.8383923  68.6990089 117.5849302
  80.2587326  68.1744098 117.5347256  78.0878957  55.7632535 114.8060006
  77.7582287  56.2143679 114.1363705  77.4123958  55.6848699 115.3533012
  77.9389393  55.8183671 114.7883229  83.7049365  65.1337765 107.6649292
  83.6200660  65.9898732 107.8098861  84.1933748  64.8582089 108.3331451
  83.7638262  65.2195086 107.7851374  85.2955364  51.7518058 113.0509617
  84.9808805  52.4421537 113.4830039  84.7782306  51.6962841 112.3495117
  85.1719835  51.8452947 113.0106566  84.6367798  61.7522559 109.1647027
  84.1079270  61.9682193 109.8244333  85.1592818  62.4458698 109.0847996
  84.6356251  61.8865696 109.2502626  90.0915851  67.3268864 114.5380072
  89.2613554  67.5379507 114.7013488  90.0425103  66.5005918 114.2622355
  89.9622586  67.2358470 114.5217437  76.5267406  65.6485776 107.9654495
  75.9424621  66.1535807 108.3720359  76.1237501  65.4228163 107.2251087
  76.3806710  65.6894024 107.9159520  72.0811435  71.3640537 114.7678167
  71.5979013  72.0891027 114.7437750  72.8934753  71.6616667 114.8788324
  72.1302182  71.5142891 114.7805446  78.1525589  70.1572718 117.3727981
  77.6352530  69.7980133 116.7689289  78.8499980  69.6334892 117.3834047
  78.1791170  70.0270406 117.2858240  81.8089181  70.6067532 123.3344154
  81.8972526  70.4193672 124.1822364  82.2378893  69.9604961 122.9349001
  81.8851283  70.4830540 123.4015906  79.3759640  69.8898692 122.3161816
  78.8130475  69.4771302 122.8401478  80.1380664  69.8151598 122.7354960
  79.4054089  69.8176092 122.4554817  80.9844620  61.8951428 106.4423416
  81.2240624  62.1029412 105.6298759  81.3060461  61.0908937 106.5512360
  81.0681778  61.8065529 106.3383969  76.2934911  53.8244824 110.2882954
  77.0480879  54.1923141 110.0500004  76.1162445  54.1984378 111.0562133
  76.3789389  53.9343012 110.3667842  74.9355632  71.8796713 114.9198446
  75.6376211  71.3648702 114.9771203  74.8553115  72.2070864 115.7245322
  75.0279392  71.8510939 115.0471239  89.5869809  59.9739264 118.3330493
  88.7498230  60.0441451 118.5678087  89.5558040  59.9763759 117.4604795
  89.4588092  59.9849491 118.2390041  75.9834538  62.1172300 124.0478862
  76.1555042  62.0078195 124.8964143  76.5203896  62.7626705 123.8110054
  76.0879542  62.1964302 124.1383958  74.6491975  56.2315143 106.9861067
  74.4667548  56.4487024 106.1602059  75.5117588  56.3454156 107.0419681
  74.7496565  56.2805041 106.8715554  74.2606407  68.0703065 114.4284055
  75.0995307  68.3025998 114.4757816  74.2918176  67.2007376 114.3591090
  74.3888125  67.9760012 114.4248699  74.8859110  68.4903940 118.7297360
  75.4257335  68.3475071 119.4000732  74.2029057  68.8900691 119.0981386
  74.8651264  68.5283611 118.8831782  80.3291694  53.2341554 110.0210090
  81.0577855  53.0557508 109.5748247  80.4186587  54.0759633 110.2317269
  80.4498357  53.3325432 109.9863608  84.3099995  64.1694941 113.9242384
  85.0657510  64.6026455 113.9631293  84.4162320  63.5199711 114.4977020
  84.4370166  64.1372425 114.0140410  87.3480166  67.9968218 114.6744787
  86.9115398  68.0004961 115.4303759  87.0143082  68.6773717 114.2424365
  87.2342786  68.0980674 114.7225620  81.9209240  70.0376551 125.9987938
  82.7049656  70.1507399 126.3643680  81.7205834  69.2117688 126.1946624
  82.0075265  69.9323270 126.0822324  70.2896255  64.7104231 118.8831782
  70.0234671  63.8943348 119.0422772  70.3034819  64.7557387 118.0127297
  70.2520978  64.5961136 118.7785264  87.2677649  55.0382046 116.9174215
  87.9103558  55.1080151 117.5036131  87.5200670  54.3711269 116.4153757
  87.3999781  54.9508395 116.9301495  74.1954002  59.5089315 105.4983540
  73.4812179  59.2227495 105.9105972  74.6797971  59.8485941 106.1389927
  74.1613366  59.5170965 105.6539175  75.0394862  58.2482609 121.5298789
  74.3466658  57.7779589 121.7759521  75.6555189  58.0220914 122.1040496
  75.0279392  58.1449741 121.6507942  82.0779633  71.9486653 119.6454393
  81.2794879  71.7086153 119.9028262  82.5265645  72.0001046 120.3921441
  82.0254244  71.9209044 119.7939318  90.4824512  64.7149138 113.5664425
  91.1440947  64.1539806 113.4660333  89.8415924  64.2201169 113.8917116
  90.4853380  64.5585547 113.5996765  81.3701320  68.0119269 105.8745348
  81.7852469  67.6804293 105.1829844  80.5393250  67.7788172 105.7465485
  81.3089329  67.9290525 105.7536195  70.6989669  65.4963010 116.1643526
  70.5165242  65.4709896 115.3115818  71.4339338  65.9661948 116.2032435
  70.7803733  65.5624373 116.0441444  86.7689343  65.7314520 113.3076413
  87.0044932  65.8759719 112.4803264  86.9178907  66.4956928 113.7007927
  86.8255146  65.8653575 113.2440017  73.7635421  62.2148013 122.6725634
  74.4875393  62.2001044 123.1590529  73.8651557  62.9243369 122.1747603
  73.8853630  62.3172717 122.6704421  88.5979800  64.5716186 111.1446017
  88.9288017  65.1043827 110.5386112  89.1712888  64.6255074 111.8007968
  88.7313479  64.6585755 111.1523799  81.1380370  65.6947098 127.5374581
  80.3453351  66.0090610 127.7227201  81.2529297  65.9098566 126.6995366
  81.0375781  65.7730935 127.4412916  83.8111689  62.4181089 111.8269597
  83.9058543  63.1570383 112.2809223  83.1870533  61.9898565 112.2604162
  83.7320719  62.4642410 111.9577745  82.0664163  65.5967302 122.4759878
  82.6403025  64.9594546 122.6308442  81.9878967  65.5971384 121.6069536
  82.1397398  65.5032413 122.3706289  70.6660579  62.3756511 116.3142592
  71.2434082  62.2392962 116.9534838  69.9674641  61.9192295 116.5688177
  70.6481601  62.2878777 116.4464882  84.0634710  64.2629829 105.0606549
  83.9814873  64.3332016 105.9261536  84.7014431  64.8259573 104.8690290
  84.1454548  64.3568800 105.1596499  77.4227881  64.0290567 114.5281076
  77.1647126  63.1962302 114.5012375  77.4776364  64.2548180 113.6873576
  77.3927659  63.9388338 114.4001212  82.5028932  56.1319017 114.6285168
  81.7985258  55.6428203 114.7869087  82.5513906  56.1441492 113.7573613
  82.4058983  56.0608665 114.5224508  76.3962594  61.5828329 115.0145970
  75.8212185  61.7420498 115.6509931  76.0198270  60.9463738 114.5514421
  76.2565406  61.5126142 115.0400529  80.0635882  60.0551679 119.8738349
  79.6750315  59.6305896 119.2190540  79.3990581  60.3033828 120.3815375
  79.9082810  60.0290400 119.8526217  89.7059151  59.8126683 112.6486179
  89.4495716  59.0006625 112.4584062  90.5488465  59.8204250 112.4216366
  89.7925177  59.6938681 112.5870996  66.1419413  61.2268404 113.0290411
  66.2279664  60.8500272 113.8103941  66.7695210  60.8528850 112.5510369
  66.2475964  61.1153886 113.0735888  83.8862244  53.7526307 117.3862333
  84.2672756  53.0704478 117.7730207  83.0825528  53.4635909 117.2037997
  83.8238706  53.6093356 117.4166389  81.1674821  64.2850283 108.0715156
  81.9815459  64.5765176 107.9597927  81.1033962  63.6310145 107.4973449
  81.2777560  64.2315478 107.9703993  87.3884311  66.9676279 122.4844731
  87.1522948  66.1364344 122.3656792  88.0327540  66.9161886 123.0699576
  87.4478981  66.8373967 122.5530625  77.0382729  67.7571801 113.1987468
  77.6756676  67.5183548 113.7439261  77.4637800  67.9608960 112.4640628
  77.1958895  67.7522811 113.1704625  71.7295371  69.9960137 117.0821772
  71.7699516  70.2674988 116.2541551  72.2889895  70.5202045 117.4979560
  71.8178717  70.1135892 117.0213660  77.6785544  62.9774090 107.5362357
  78.0630697  62.7581797 108.2878902  77.4297164  63.8037036 107.6663434
  77.6987616  63.0672237 107.6663434  77.8454084  56.2580506 127.2524941
  77.5307525  57.0280068 126.9894504  77.5244017  55.6950762 126.6677168
  77.7513003  56.2890774 127.1266291  88.4120731  66.7520728 118.5473026
  88.1066548  67.4848785 118.9086342  87.6926947  66.3458658 118.2665812
  88.2608074  66.8002461 118.5586163  79.4204201  68.2344223 114.8781254
  79.4943209  68.0719395 115.7323104  80.2373707  68.4234413 114.6341736
  79.5520559  68.2380966 114.9679280  94.1122523  63.3913729 117.8741370
  94.0447024  63.4109688 117.0043957  94.0978186  64.2344056 118.0997041
  94.1001280  63.5187463 117.7793847  73.1809957  68.5802086 111.9075698
  72.3548075  68.8263823 111.7809976  73.2421949  68.5014167 112.7737756
  73.0684124  68.6047035 112.0164642  75.3985981  54.6471027 112.8671138
  74.5308407  54.7193627 112.9328747  75.6861186  55.4493106 113.0559113
  75.3125729  54.7765174 112.9045904  84.5218870  54.7948886 121.1982460
  85.2672462  54.6058697 120.7845885  84.1056175  55.3207124 120.6396316
  84.5703844  54.8451032 121.0547033  77.9608786  71.1978966 109.6094728
  78.2507085  70.8067948 108.8853954  78.6912267  71.3795671 110.0500003
  78.1115671  71.1672780 109.5677535  91.8981141  62.1658115 116.1487965
  92.4489062  61.5326184 116.3885057  91.8825256  62.6973508 116.8403469
  91.9766337  62.1507063 116.2866823  78.5503532  65.9996712 120.6947858
  78.0515225  66.7112480 120.7732746  79.3603756  66.3197379 120.6566020
  78.5959638  66.1523561 120.7004427  75.9014702  73.1746349 112.6754877
  75.6814997  72.8843703 113.4681544  75.6809224  72.5161304 112.1472790
  75.8362296  73.0346057 112.7143786  74.8131649  65.2619665 114.9410579
  74.5244898  64.6357136 115.4756306  75.6814997  65.2039953 115.0075259
  74.8991901  65.1607209 115.0301533  85.6009547  60.4054449 115.2592561
  85.2574313  59.6844784 115.6099810  85.7002590  60.1968300 114.4170919
  85.5651590  60.2678652 115.1864241  78.0682658  74.5475739 111.4585570
  78.7206716  74.0152181 111.6876596  77.3708266  74.1944391 111.8453444
  78.0613376  74.4165262 111.5497737  75.0163923  66.9014916 110.8652944
  75.7709891  67.2827955 111.0788406  74.4234535  67.3526060 111.3199640
  75.0400636  67.0243744 110.9635822  86.0622576  66.8680153 110.8016549
  86.6280609  67.5273363 110.7175092  85.4150480  67.2129851 111.2732951
  86.0501333  67.0162094 110.8589305  77.4770590  58.8577757 125.9910156
  76.6670365  59.1635536 125.8799999  77.9545276  59.5783339 126.1062740
  77.4274068  59.0092358 125.9917227  76.3362149  68.0723478 116.2393059
  75.8142903  68.2123769 116.9244924  76.7236170  67.3134142 116.4295177
  76.3165850  67.9809001 116.3694136  73.3253333  58.1229286 110.3088014
  73.0378129  57.7530557 109.5719961  74.0123802  58.5924142 110.0471719
  73.3842231  58.1376256 110.1603090  82.5329154  69.8118937 110.2253628
  82.2915830  69.0786798 109.8180693  82.7130487  70.3605794 109.5719961
  82.5236778  69.7841328 110.0683851  77.7628475  65.1027497 111.6374550
  77.5671257  65.7102231 111.0434853  77.9862820  64.4095441 111.1566224
  77.7663116  65.0905022 111.4790631  76.1607005  61.9882235 111.7555419
  76.8829657  62.1523393 111.2959225  75.6814998  62.7091899 111.6494759
  76.1970736  62.1180464 111.6721033  84.1200512  58.3246033 117.1352104
  83.2811613  58.3507312 116.8990367  84.1904880  58.9716769 117.7157450
  84.0068906  58.4242159 117.1861221  73.8114622  64.3940307 120.8609559
  74.3235718  64.6724560 120.2118318  73.5250964  65.1329601 121.2272372
  73.8449485  64.5442661 120.8199437  82.5669791  55.2231410 111.8679720
  83.2696144  55.0239159 111.3899678  82.3013979  54.4507353 112.1748563
  82.6316423  55.0794376 111.8425161  87.9958036  63.5314020 114.4213345
  87.9092011  63.6869446 115.2748124  87.5408516  64.1752096 114.0472750
  87.9161293  63.6489775 114.4920452  70.8981528  58.9010499 111.1573295
  70.9997664  59.7036660 111.4854271  71.6937415  58.6997835 110.8596376
  71.0309434  58.9896398 111.1608650  77.3298347  56.4866696 120.9210600
  77.1381544  56.5021830 121.7710024  78.1796943  56.6830370 120.8977255
  77.4274069  56.5181047 121.0433895  71.7145260  59.0157677 118.8994417
  71.5730752  58.1641618 119.0238925  71.9985823  59.0586338 118.0756623
  71.7353106  58.8957427 118.7962041  81.8683852  60.8524767 113.0438905
  81.6218567  60.7720518 113.8775694  82.1968975  60.0678235 112.8501432
  81.8805096  60.7251033 113.1386428  85.7631901  67.5608127 116.8325686
  85.6246260  68.2589172 117.3374429  84.9831899  67.4056783 116.4761868
  85.6275128  67.6408293 116.8551960  84.1009986  63.8604502 123.0848068
  84.0958025  62.9884318 123.0890494  84.8070980  64.0592671 122.6117524
  84.2054990  63.7608376 123.0155103  77.8280880  63.5881486 122.4561888
  77.9724255  64.1682694 121.8204998  78.1756528  63.9657783 123.1611743
  77.9008341  63.7302190 122.4660883  80.0000797  62.7871654 120.2387020
  79.2524111  62.9802669 119.8335298  80.1542322  61.9616874 120.0011141
  79.9123225  62.6936766 120.1432425  76.9008635  71.7784258 119.3222915
  77.0498198  71.2187174 118.6696319  77.6808637  71.8576259 119.7055434
  77.0382728  71.7069823 119.2819864  87.2585274  66.9186380 107.5942185
  86.8792083  66.1323518 107.5871475  86.5951519  67.4673237 107.4513830
  87.1043749  66.8831204 107.5722982  79.4261935  71.9498901 120.6007406
  79.3505606  71.2807711 121.1558194  79.3551794  72.6516689 121.1148072
  79.4042542  71.9543808 120.7584254  80.2402574  56.6822205 121.1282423
  80.6975188  57.4146179 121.2555216  80.3158903  56.2588670 121.8869679
  80.3193544  56.7279443 121.2583500  72.4835565  56.9288025 122.2171867
  71.9477755  56.3168383 122.5332634  72.5453330  57.5036161 122.8705534
  72.4131198  56.9234952 122.3607294  84.7129900  49.8612080 114.9976266
  84.8313468  50.3188543 114.2643569  84.5392076  49.0557341 114.7112484
  84.7049071  49.8105852 114.8477200  80.0832182  70.4699899 111.4331012
  80.8482073  70.2009543 111.1113676  79.9810272  69.9849910 112.1501074
  80.1813678  70.3589464 111.4910839  78.1184952  58.6724309 117.9724247
  77.3281027  58.4915769 118.2941583  78.5145575  57.8951261 117.9554542
  78.0601828  58.5311770 118.0176796  82.6050843  67.5012083 103.4130961
  83.3723828  67.5612208 103.0036813  82.1582152  66.9292525 102.9287280
  82.6524270  67.4248659 103.2808671  83.5028638  66.3066739 115.6983693
  82.8273640  66.0751971 116.1997080  83.5121014  65.6987922 115.0725798
  83.4047143  66.1825664 115.6799846  80.6322782  61.1484568 122.4547746
  80.5681923  62.0094524 122.3267883  80.7719970  60.8316561 121.6543298
  80.6438252  61.2284735 122.3175959  85.5045373  69.1631871 107.9293871
  85.5865210  69.9698858 107.6055322  85.9895115  69.1827831 108.6534645
  85.5882531  69.2852534 107.9880770  79.3141876  63.8416707 116.5963949
  78.8904125  64.0421206 115.8602968  79.1386731  62.9945555 116.7088249
  79.2252757  63.7465489 116.5037639  78.8153570  75.3567220 119.0585406
  79.3049500  74.6578010 118.8761071  78.2437802  75.0591090 119.6461464
  78.8038099  75.2093444 119.1186447  74.6024321  64.3368759 112.0291922
  74.7588940  64.2715562 112.8847914  74.9424914  65.1117311 111.8170601
  74.6757556  64.4417957 112.1246516  81.1403466  63.7126642 110.8985285
  81.6819011  63.2097023 111.3623906  81.4550025  63.6591837 110.0874770
  81.2667863  63.6306063 110.8469097  79.3089915  69.1043994 108.1825313
  79.3782736  68.2458532 108.3218313  80.0878371  69.3215875 107.8544338
  79.4342765  69.0096858 108.1542470  82.2892735  58.6062947 120.9507585
  82.5034705  57.9673861 120.3970939  81.6726634  59.0508771 120.5215447
  82.2298064  58.5773091 120.8058017  83.6997403  71.5281695 112.3961806
  83.3077195  71.2248410 111.6784672  83.8550475  72.3650785 112.2066760
  83.6650993  71.6065532 112.2618303  71.1758583  61.5203709 112.3452689
  71.5557547  61.9388254 111.6812956  70.6013947  62.1017165 112.6521532
  71.1469907  61.6681568 112.2929430  84.4531823  60.2152012 121.8890892
  83.6408505  59.9077902 121.9704065  84.9121758  59.7351012 122.4533605
  84.4012208  60.0988504 121.9845487  83.8637078  68.0931684 112.3367837
  83.5051732  68.2646327 113.1131869  83.3775789  68.5544890 111.7795835
  83.7395775  68.1870655 112.3693106  81.6807464  51.7162882 115.9394928
  80.8101022  51.6901604 115.8928238  81.9347805  51.5440075 115.1220774
  81.5901024  51.6873026 115.8115065  78.6525443  63.7730849 104.8768071
  78.9417968  64.5495732 105.1511646  78.7397242  63.2619581 105.5782571
  78.7079699  63.8122768 105.0210569  81.5485331  61.6212083 126.6719595
  82.0184962  62.2454200 127.0587469  81.5947211  60.9529059 127.2312809
  81.6253206  61.6146764 126.8119666  78.7056604  53.7269111 117.3968399
  78.1895093  53.0349302 117.5219978  78.1450533  54.3939888 117.3430997
  78.5463117  53.7232369 117.4074465  80.7748838  54.2662071 119.2261251
  80.3880591  54.2911102 120.0074781  80.2881775  53.7003750 118.7735768
  80.6461347  54.1857822 119.2749155  85.0241817  68.9835580 123.2835038
  85.6621538  68.4895776 122.9497494  84.3815909  68.9112980 122.6987265
  85.0236044  68.8994588 123.1477393  86.7498817  60.8324726 117.8500953
  86.3226425  60.7451074 117.0949053  86.1124870  60.9402501 118.4355797
  86.5928424  60.8357386 117.8246395  80.4405979  51.1529056 121.5171511
  81.0699097  51.6889356 121.2392581  80.6091842  51.0606415 122.3685077
  80.5583774  51.2190419 121.6020039  80.2419894  55.9400251 123.7897923
  81.0693324  55.6685400 123.8456537  80.2627740  56.7361093 124.1461741
  80.3672744  56.0180005 123.8513106  85.0796074  69.6755388 119.9240394
  85.8688452  69.3244453 120.0442476  85.2539672  70.4891777 119.6617028
  85.2216355  69.7441245 119.9028262  74.8189384  63.0864114 116.9768183
  73.9777391  62.9867988 117.1847077  75.0279392  63.8559594 117.3282504
  74.7254077  63.1856157 117.0595498  72.2964951  60.7083651 114.8052934
  71.9021649  60.7826663 114.0303044  71.7405068  61.0941597 115.3561296
  72.1567763  60.7765426 114.7720594  83.9329898  53.6864945 114.4856813
  84.1379491  53.6187253 115.3313810  83.6056322  54.4923766 114.4177990
  83.9145146  53.7950885 114.6016468  78.6306049  61.0145513 116.2265781
  78.3269186  60.4601501 116.8276188  77.9285470  61.1937723 115.7393815
  78.4822259  60.9590295 116.2435486  77.6872146  58.3246033 110.7910483
  77.9631880  57.6064945 110.3788050  78.2870815  58.9230953 110.5831589
  77.8165411  58.3066404 110.6991244  76.6924400  68.2295234 120.9337879
  76.5844755  68.2397296 121.7999937  76.9020181  69.0550014 120.7442832
  76.7074511  68.3536309 121.0341970  87.1863586  54.2396709 113.9659578
  86.5737899  54.7267111 114.3513310  87.2827760  53.5640200 114.5097230
  87.1101483  54.2115018 114.1038437  81.1882667  55.9959550 109.0657078
  81.6426413  56.1670111 109.7904922  81.6622712  55.3827661 108.6654853
  81.3250987  55.9310436 109.1130839  74.7098192  65.4807876 118.3959816
  74.1186125  66.1217374 118.3662831  75.4719216  65.9045494 118.3691116
  74.7346453  65.6383715 118.3874963  75.1058815  56.6409874 119.0627834
  75.5660296  56.7148803 119.8002958  75.1514921  57.4391128 118.7127655
  75.1809370  56.7704021 119.1200590  76.7542165  57.3076569 123.6299861
  76.3627730  56.6609916 124.0655639  76.9228027  57.8988004 124.2494116
  76.7213075  57.2990837 123.7862567  90.8288614  65.3113646 119.3937094
  90.8871737  65.7600295 120.1397071  90.1955081  65.7212459 118.9567174
  90.7439909  65.4387381 119.4389643  84.4687708  70.9317188 115.8291841
  84.2707397  71.4208002 115.1348052  83.8475419  71.1358429 116.4075974
  84.3475273  71.0333726 115.8115064  78.5295687  62.7002085 110.1702085
  79.2737732  63.0876361 110.4085035  78.6756383  61.8559510 110.3342573
  78.6606272  62.6332557 110.2296055  80.4475262  54.4952344 115.2033946
  79.6011307  54.6675151 115.0775296  80.4446394  53.6901687 115.5399775
  80.3222412  54.4013373 115.2345073  81.5173562  58.2727558 116.0696004
  81.0433517  57.7469320 116.5801315  81.8891698  57.7257031 115.5010866
  81.5023451  58.1143555 116.0611151  71.8946593  60.2699065 121.4379550
  72.7572206  60.1694774 121.3516880  71.5638376  59.6893774 120.8765122
  71.9731789  60.1690691 121.3424956  87.7810293  63.3329934 117.4802785
  87.5408516  62.4936349 117.4845211  88.2602300  63.4130100 118.2043558
  87.8162477  63.2211333 117.5877587  83.4457062  59.1664113 109.1321758
  82.9180081  59.2492857 108.4427467  83.9052770  59.9081984 109.1286403
  83.4358913  59.2884775 109.0296453  89.7815480  60.1131391 115.4332044
  89.5425250  60.0727225 114.5952829  89.9449381  60.9602543 115.5597765
  89.7705783  60.2323476 115.3285526  86.3861510  64.4981340 121.3637089
  87.1095709  64.0453867 121.1848109  86.1211472  64.7786006 120.5809417
  86.4542783  64.4732309 121.2215804  75.2548379  59.0941514 118.0989968
  74.6301449  59.1059906 117.4915921  74.9193973  59.5701689 118.7481208
  75.1133870  59.1660031 118.1046537  75.4390127  57.4366632 104.1562653
  75.0902932  58.0886357 104.6194203  74.9586573  57.4223745 103.4286524
  75.3160371  57.5309686 104.1173744  71.9674054  67.1541974 119.5393733
  71.4373979  66.4634413 119.5888707  72.2399147  67.1452159 118.7106441
  71.9298776  67.0509106 119.4241148  82.9994145  67.7367676 108.2631415
  83.7228343  68.2025789 108.1195988  82.5594736  67.8041286 107.5129012
  83.0409837  67.8151513 108.1316196  82.1680300  64.5965218 119.5132104
  81.5537293  64.0523269 119.8080739  82.6847585  64.0829455 119.0337920
  82.1535962  64.4401627 119.4856332  81.4076597  65.6669488 117.2476403
  80.9804205  65.0419207 116.8141838  81.4001541  65.3844410 118.0735410
  81.3435738  65.5322269 117.3056230  74.5239124  60.7034661 120.3164837
  74.6832611  59.9477986 120.7216559  74.3432018  61.2525601 120.9705574
  74.5204483  60.6728475 120.4727543  82.4659427  52.8695897 120.8715626
  81.9699988  53.0659571 120.1807193  83.2228489  53.2688565 120.7004428
  82.5046252  52.9573631 120.7435763  79.7362306  56.5438243 117.4618937
  79.7604794  56.0098355 116.7731717  79.9873780  56.0355552 118.1244527
  79.7772225  56.3899147 117.4583581  67.2469896  63.8269738 116.8962081
  67.1413345  63.7816582 116.0314165  66.4970116  64.1723518 117.1776366
  67.1205499  63.8710646 116.8099411  76.0163629  55.2709061 116.8424681
  76.0562000  55.7718268 117.5559388  75.1913293  55.3619455 116.5730604
  75.9003155  55.3590878 116.9075219  78.1993242  64.8369801 124.9444976
  77.3488872  64.9741515 125.0802621  78.3621369  64.1033579 125.3892677
  78.0977105  64.7483902 125.0300575  77.4377992  61.7869571 119.1398580
  76.6069922  61.9543389 118.9333828  77.3829509  61.4105522 119.9247465
  77.3067407  61.7559302 119.2247108  75.2461775  55.2778464 124.7754991
  75.8714479  54.7340597 125.0484423  74.7912255  54.7973382 124.2062781
  75.2710036  55.1267945 124.7316585  75.8114036  60.0625163 109.6688698
  75.9516997  60.5597627 110.3717339  76.3096569  59.3611457 109.8102911
  75.9055117  60.0327141 109.7940277  75.8414258  60.9292274 106.9981275
  76.4759338  61.5252699 106.9330736  75.9239869  60.6295731 107.8127145
  75.9470809  60.9733182 107.1084361  88.8196824  63.4607751 119.8667639
  89.4114664  64.1005002 119.8985837  89.2555819  62.7630788 120.1559706
  88.9715255  63.4526101 119.9148471  77.4193241  56.8606249 106.9726717
  77.7409082  56.3809332 106.3185979  77.6820185  57.6705895 106.7817528
  77.5059267  56.9096147 106.8482209  80.6490214  67.8825123 120.4925533
  80.1415305  68.4360970 120.9366163  80.3516860  67.9433413 119.6744307
  80.5295099  67.9731435 120.4373989  82.8152396  56.2478443 119.3350196
  83.2407468  55.7950969 118.7233722  82.2009389  55.6938514 119.6114983
  82.7881042  56.0992419 119.2855221  72.3467246  63.1260114 110.2670821
  72.8559476  63.7224622 110.6482126  72.8201518  62.8586088 109.5847240
  72.4910622  63.1745930 110.2225343  83.2597994  71.7988381 108.4229476
  82.5427304  71.6249243 107.9576714  83.9104732  71.5640953 107.8904962
  83.2499845  71.7384174 108.2758694  81.2546619  52.7193543 112.7440773
  80.6114937  52.5691189 113.3125911  80.9146026  52.4735888 111.9789877
  81.1091696  52.6605665 112.7143788  85.8445965  60.6752970 112.1670781
  85.1737155  61.2182672 112.0383847  86.5385716  61.1447825 111.9252476
  85.8474833  60.8251241 112.1126309  79.8932699  72.8149682 117.3982540
  79.6698354  72.0568511 117.7666566  79.4042543  72.8447703 116.6762979
  79.7876148  72.7071906 117.3459281  86.0074093  57.1308853 115.0761154
  86.3601703  56.7038576 115.7506953  85.1488894  57.0459697 115.2062231
  85.9323538  57.0553594 115.1956165  74.7057778  59.7616373 113.1344001
  73.9869767  60.1780505 113.4016865  75.0770140  60.3270612 112.5835639
  74.6549710  59.9065654 113.0926808  84.0057359  60.3944222 119.0245997
  83.9855286  60.2127517 119.8780776  84.0536559  61.2656240 119.0005580
  84.0092000  60.4960760 119.1469291  81.9503689  66.9831414 124.9494473
  81.9099543  66.3381091 124.3639629  82.7627007  66.9268031 125.2619885
  82.0646842  66.8790381 124.9091422  78.5411156  73.0350140 114.8519624
  78.1271555  72.3724270 114.4623466  79.2258530  73.1827998 114.3315318
  78.5809528  72.9590798 114.7176121  81.9076450  72.1940225 115.6043241
  81.5092734  72.3042495 114.8364061  81.2927670  72.4022291 116.1869801
  81.7575340  72.2413793 115.5774540  80.4804352  58.8014373 108.4717380
  79.8869192  59.1231369 107.9201948  80.5179630  57.9555468 108.2638487
  80.3978741  58.7238701 108.3600152  87.4398153  52.2527265 116.0045467
  86.9329018  51.5456405 115.9366644  88.2365587  51.9220454 116.1346544
  87.4825392  52.1000416 116.0144462  83.3562169  58.7593877 111.9019131
  83.1275862  58.7826579 111.0597489  83.6160245  57.9351344 112.0214141
  83.3608357  58.6409957 111.7944328  77.6381397  60.6128350 121.5044231
  77.1260300  60.0049533 121.8629262  77.4660893  61.3284943 121.9718207
  77.5371034  60.6291650 121.6260455  72.4847112  59.0565926 124.1546593
  72.3149702  59.7167300 123.6094799  72.0413062  59.2672487 124.8759082
  72.3946446  59.1851908 124.1808222  76.4106931  57.2970424 113.1973326
  76.8864298  57.6587503 112.5623508  75.9095531  57.9526891 113.4773469
  76.4072290  57.4464612 113.1450067  89.6418293  66.7692192 108.9886331
  90.0251899  67.5183548 109.2184428  88.8462406  67.0158011 108.7298320
  89.5812075  66.9161886 108.9843905  81.5150468  58.5352595 123.9446486
  82.0721898  58.3066405 123.3124952  81.1911533  59.2958261 123.6681699
  81.5496878  58.6136432 123.8102984  69.3849177  61.9612791 119.4135083
  68.8375896  61.2913437 119.5315951  70.1741555  61.5942639 119.4778550
  69.4201360  61.8077778 119.4403783  79.2333585  61.6220248 124.9098494
  79.9844912  61.9371925 125.2238048  79.4256161  61.4199419 124.0832415
  79.3724999  61.6387630 124.8341889  78.4533585  59.4411623 106.5646710
  78.8332549  59.4591253 105.7797825  77.7126181  59.8865612 106.4437558
  78.4002422  59.5093398 106.4310279  86.0818875  57.7493815 112.1522289
  86.0813101  57.5942471 113.0106565  85.8775055  58.5956802 112.0963675
  86.0518653  57.8514435 112.2710228  68.1436146  61.1733599 116.5681106
  67.9657907  60.7210208 117.2936021  67.8555168  61.9759760 116.7519583
  68.0749099  61.2256157 116.7024608  83.8059727  62.4291316 115.8058496
  84.3013392  61.7114311 115.7662516  82.9959503  62.1262114 115.6912983
  83.7603620  62.2788963 115.7832222  79.2518339  66.2789130 107.9555500
  78.4429661  65.9555803 107.9088810  79.7593248  65.5722352 107.8883749
  79.2068005  66.1270446 107.9385795  69.8808616  63.7061323 113.6802865
  69.0154135  63.6947013 113.5685636  69.9807432  63.5191546 114.5274004
  69.7682783  63.6767384 113.7891809  85.8711546  65.1795004 118.4935625
  86.2966618  64.6569426 117.9406050  85.5068466  65.7775841 117.9724248
  85.8798149  65.1905231 118.3344634  75.5065626  73.4759221 117.2532970
  75.8212185  74.2895610 117.2610752  75.9159039  73.0909440 117.9215129
  75.6133724  73.5387924 117.3537062  82.4590145  68.8929268 114.8236782
  82.9301324  69.6069531 114.9926767  82.7950324  68.2928018 115.3596652
  82.5785260  68.9100732 114.9269158  79.3759640  53.6656739 121.7794877
  79.5087546  52.8687732 122.1075852  79.7604793  54.1923142 122.3593153
  79.4515969  53.6256655 121.9138380  83.0964092  68.6847202 121.5864475
  82.5485038  68.0605086 121.3184540  83.5577120  68.8741474 120.8708554
  83.0831301  68.6206252 121.4414906  82.4491996  50.5887065 118.3775970
  81.6437959  50.4784795 118.6943809  82.3198731  50.6899521 117.5205836
  82.3112128  50.5870735 118.2984011  85.9057956  56.7532557 118.9715667
  85.3220945  57.2541763 118.5593234  86.2262250  56.2462113 118.3379990
  85.8671131  56.7524392 118.8174174  78.4452755  55.6673152 109.2474342
  79.2668450  55.8371464 109.0056037  77.9822406  55.8220413 108.5240639
  78.4983918  55.7154885 109.1045986  77.0348087  53.6615914 120.0272771
  77.5792500  53.3207041 120.6177112  77.0885023  54.5201375 120.1694055
  77.1237207  53.7371173 120.1354644  72.8478646  67.4232330 116.9011579
  73.4523503  67.3828164 116.2725399  72.6405958  68.2703482 116.9315634
  72.9067543  67.5420332 116.8127695  82.6622418  69.6898275 118.1173816
  83.4820792  69.5461241 118.3790111  82.3816496  70.3144474 118.6590254
  82.7419161  69.7608627 118.2361755  68.0829928  66.4066947 116.7710502
  67.9854206  65.5963219 117.0800558  68.8658798  66.3858741 116.3856770
  68.1846065  66.2834038 116.7597365  99.1336068  77.3463127 111.0816692
  99.1030073  78.2007763 111.2534962  99.7317417  77.0458419 111.6402836
  99.2173226  77.4279623 111.1891495  92.3335753  76.4338778 115.8369623
  91.4773649  76.5947276 115.8878740  92.3803407  75.5630842 115.8574684
  92.2134865  76.3289580 115.8475689  86.7176893  85.9701496 111.6006854
  85.9659793  85.5917034 111.3722899  87.1662905  86.0019929 110.8525665
  86.6726560  85.9187103 111.4564356  92.1701853  86.3926865 107.0292401
  91.8353221  87.0703787 106.5936624  92.6828723  86.0032176 106.4409273
  92.1967434  86.4351443 106.8779193  91.7106144  88.3441134 112.9703513
  92.0945524  88.9128032 112.4308288  91.6465285  87.6190644 112.4909329
  91.7579571  88.3216597 112.8197376  88.2961649  85.9819888 113.8669627
  88.3972012  85.1720242 114.1766755  87.7003394  85.8876834 113.2369305
  88.2234188  85.8484916 113.8195865  96.9552643  79.9215429 109.3535002
  96.8392169  80.6723115 109.7827140  97.7508530  79.6639382 109.6031089
  97.0557232  79.9950276 109.4539094  81.4926693  82.0040174 113.4921960
  81.2576878  81.1707827 113.3854229  81.6312334  82.2844840 112.6783161
  81.4782356  81.9223678 113.3564315  83.7916781  74.1725905 116.3906268
  83.1721813  73.5818552 116.2216283  83.6900645  74.7637340 115.7570591
  83.6854456  74.1729987 116.2711258  88.8382968  83.9109452 110.6404345
  89.1598810  84.4514659 110.0365653  89.4855065  83.3406223 110.7726634
  88.9809024  83.9068627 110.5711380  90.8884677  75.9125447 110.7238731
  91.5864841  76.0913574 111.2160195  91.2037009  75.3895786 110.1009121
  91.0380014  75.8619219 110.7040741  83.5185914  77.7178187 118.6349837
  83.3944611  78.3040632 119.2699656  84.1704198  77.2238382 118.9362112
  83.5959563  77.7316991 118.7735766  91.0772612  82.2995892 110.7118523
  91.5166247  81.6912992 111.1573296  90.9277275  81.9203265 109.9403988
  91.1194078  82.1534363 110.6637690  88.5444255  80.8939904 117.9137348
  89.1893257  80.4012347 117.5948297  88.7846032  81.0364690 118.7403427
  88.6754840  80.8417346 117.9886881  89.0611540  71.2817843 114.8060006
  88.7314870  71.7328987 114.1363705  88.3856542  71.2034007 115.3533012
  88.9121976  71.3368979 114.7883229  94.6781949  80.6523073 107.6649292
  94.5933244  81.5084040 107.8098861  95.1666332  80.3767397 108.3331451
  94.7370846  80.7380394 107.7851374  96.2687948  67.2703366 113.0509617
  95.9541389  67.9606845 113.4830039  95.7514890  67.2148149 112.3495117
  96.1452418  67.3638255 113.0106566  95.6100382  77.2707867 109.1647027
  95.0811853  77.4867501 109.8244333  96.1325402  77.9644006 109.0847996
  95.6088835  77.4051004 109.2502626  87.4999990  81.1671084 107.9654495
  86.9157205  81.6721115 108.3720359  87.0970085  80.9413471 107.2251087
  87.3539293  81.2079332 107.9159520  83.0544018  86.8825845 114.7678167
  82.5711596  87.6076335 114.7437750  83.8667336  87.1801975 114.8788324
  83.1034766  87.0328199 114.7805446  91.9577204  77.4136736 106.4423416
  92.1973208  77.6214720 105.6298759  92.2793045  76.6094245 106.5512360
  92.0414362  77.3250837 106.3383969  87.2667494  69.3430132 110.2882954
  88.0213462  69.7108449 110.0500004  87.0895029  69.7169686 111.0562133
  87.3521973  69.4528320 110.3667842  85.9088215  87.3982021 114.9198446
  86.6108795  86.8834010 114.9771203  85.8285698  87.7256172 115.7245322
  86.0011976  87.3696247 115.0471239  85.6224559  71.7500451 106.9861067
  85.4400132  71.9672332 106.1602059  86.4850172  71.8639463 107.0419681
  85.7229148  71.7990349 106.8715554  85.2338991  83.5888373 114.4284055
  86.0727890  83.8211306 114.4757816  85.2650760  82.7192684 114.3591090
  85.3620708  83.4945319 114.4248699  91.3024278  68.7526861 110.0210090
  92.0310438  68.5742816 109.5748247  91.3919171  69.5944941 110.2317269
  91.4230940  68.8510740 109.9863608  95.2832579  79.6880249 113.9242384
  96.0390094  80.1211763 113.9631293  95.3894903  79.0385019 114.4977020
  95.4102749  79.6557733 114.0140410  81.2628839  80.2289539 118.8831782
  80.9967254  79.4128656 119.0422772  81.2767403  80.2742695 118.0127297
  81.2253561  80.1146444 118.7785264  98.2410233  70.5567354 116.9174215
  98.8836141  70.6265458 117.5036131  98.4933253  69.8896577 116.4153757
  98.3732365  70.4693703 116.9301495  85.1686586  75.0274623 105.4983540
  84.4544763  74.7412803 105.9105972  85.6530555  75.3671249 106.1389927
  85.1345949  75.0356273 105.6539175  86.0127445  73.7667917 121.5298789
  85.3199242  73.2964897 121.7759521  86.6287773  73.5406222 122.1040496
  86.0011975  73.6635049 121.6507942 101.4557096  80.2334446 113.5664425
 102.1173530  79.6725114 113.4660333 100.8148508  79.7386477 113.8917116
 101.4585964  80.0770855 113.5996765  92.3433904  83.5304577 105.8745348
  92.7585052  83.1989601 105.1829844  91.5125833  83.2973480 105.7465485
  92.2821913  83.4475833 105.7536195  81.6722253  81.0148318 116.1643526
  81.4897826  80.9895204 115.3115818  82.4071921  81.4847256 116.2032435
  81.7536316  81.0809681 116.0441444  97.7421927  81.2499828 113.3076413
  97.9777516  81.3945027 112.4803264  97.8911490  82.0142236 113.7007927
  97.7987730  81.3838883 113.2440017  99.5712383  80.0901494 111.1446017
  99.9020601  80.6229134 110.5386112 100.1445472  80.1440382 111.8007968
  99.7046063  80.1771063 111.1523799  94.7844273  77.9366397 111.8269597
  94.8791127  78.6755691 112.2809223  94.1603116  77.5083872 112.2604162
  94.7053303  77.9827718 111.9577745  81.6393163  77.8941819 116.3142592
  82.2166666  77.7578270 116.9534838  80.9407225  77.4377603 116.5688177
  81.6214184  77.8064085 116.4464882  95.0367294  79.7815137 105.0606549
  94.9547456  79.8517324 105.9261536  95.6747014  80.3444881 104.8690290
  95.1187131  79.8754108 105.1596499  88.3960465  79.5475875 114.5281076
  88.1379709  78.7147610 114.5012375  88.4508948  79.7733488 113.6873576
  88.3660243  79.4573646 114.4001212  93.4761515  71.6504325 114.6285168
  92.7717842  71.1613511 114.7869087  93.5246490  71.6626800 113.7573613
  93.3791567  71.5793973 114.5224508  87.3695177  77.1013637 115.0145970
  86.7944768  77.2605806 115.6509931  86.9930854  76.4649046 114.5514421
  87.2297990  77.0311450 115.0400529  91.0368466  75.5736986 119.8738349
  90.6482899  75.1491204 119.2190540  90.3723164  75.8219136 120.3815375
  90.8815394  75.5475708 119.8526217 100.6791735  75.3311991 112.6486179
 100.4228300  74.5191933 112.4584062 101.5221049  75.3389558 112.4216366
 100.7657760  75.2123989 112.5870996  77.1151996  76.7453712 113.0290411
  77.2012248  76.3685580 113.8103941  77.7427794  76.3714158 112.5510369
  77.2208547  76.6339194 113.0735888  94.8594827  69.2711615 117.3862333
  95.2405339  68.5889786 117.7730207  94.0558112  68.9821217 117.2037997
  94.7971289  69.1278664 117.4166389  92.1407404  79.8035591 108.0715156
  92.9548043  80.0950484 107.9597927  92.0766545  79.1495453 107.4973449
  92.2510143  79.7500786 107.9703993  88.0115312  83.2757109 113.1987468
  88.6489259  83.0368856 113.7439261  88.4370384  83.4794267 112.4640628
  88.1691479  83.2708119 113.1704625  82.7027955  85.5145445 117.0821772
  82.7432100  85.7860296 116.2541551  83.2622479  86.0387353 117.4979560
  82.7911301  85.6321200 117.0213660  88.6518127  78.4959398 107.5362357
  89.0363280  78.2767105 108.2878902  88.4029748  79.3222344 107.6663434
  88.6720200  78.5857545 107.6663434  90.3936784  83.7529531 114.8781254
  90.4675793  83.5904703 115.7323104  91.2106291  83.9419721 114.6341736
  90.5253143  83.7566274 114.9679280  84.1542541  84.0987394 111.9075698
  83.3280659  84.3449131 111.7809976  84.2154532  84.0199475 112.7737756
  84.0416708  84.1232343 112.0164642  86.3718565  70.1656335 112.8671138
  85.5040990  70.2378934 112.9328747  86.6593769  70.9678414 113.0559113
  86.2858313  70.2950482 112.9045904  95.4951454  70.3134194 121.1982460
  96.2405046  70.1244005 120.7845885  95.0788758  70.8392432 120.6396316
  95.5436428  70.3636340 121.0547033  88.9341370  86.7164274 109.6094728
  89.2239668  86.3253256 108.8853954  89.6644851  86.8980979 110.0500003
  89.0848254  86.6858088 109.5677535  86.8747286  88.6931657 112.6754877
  86.6547581  88.4029011 113.4681544  86.6541808  88.0346612 112.1472790
  86.8094880  88.5531365 112.7143786  85.7864233  80.7804973 114.9410579
  85.4977481  80.1542444 115.4756306  86.6547581  80.7225261 115.0075259
  85.8724485  80.6792517 115.0301533  96.5742131  75.9239757 115.2592561
  96.2306896  75.2030092 115.6099810  96.6735173  75.7153608 114.4170919
  96.5384173  75.7863960 115.1864241  89.0415241  90.0661047 111.4585570
  89.6939299  89.5337489 111.6876596  88.3440850  89.7129699 111.8453444
  89.0345959  89.9350570 111.5497737  85.9896506  82.4200224 110.8652944
  86.7442474  82.8013263 111.0788406  85.3967119  82.8711368 111.3199640
  86.0133220  82.5429052 110.9635822  97.0355160  82.3865461 110.8016549
  97.6013192  83.0458670 110.7175092  96.3883063  82.7315159 111.2732951
  97.0233916  82.5347402 110.8589305  87.3094733  83.5908786 116.2393059
  86.7875486  83.7309077 116.9244924  87.6968753  82.8319450 116.4295177
  87.2898434  83.4994309 116.3694136  84.2985917  73.6414594 110.3088014
  84.0110713  73.2715865 109.5719961  84.9856385  74.1109450 110.0471719
  84.3574814  73.6561564 110.1603090  93.5061738  85.3304245 110.2253628
  93.2648414  84.5972105 109.8180693  93.6863071  85.8791102 109.5719961
  93.4969362  85.3026636 110.0683851  88.7361058  80.6212805 111.6374550
  88.5403841  81.2287539 111.0434853  88.9595404  79.9280749 111.1566224
  88.7395699  80.6090330 111.4790631  87.1339588  77.5067543 111.7555419
  87.8562240  77.6708701 111.2959225  86.6547581  78.2277207 111.6494759
  87.1703319  77.6365772 111.6721033  95.0933096  73.8431341 117.1352104
  94.2544197  73.8692620 116.8990367  95.1637463  74.4902077 117.7157450
  94.9801490  73.9427467 117.1861221  93.5402374  70.7416718 111.8679720
  94.2428727  70.5424467 111.3899678  93.2746563  69.9692661 112.1748563
  93.6049007  70.5979684 111.8425161  98.9690620  79.0499328 114.4213345
  98.8824594  79.2054754 115.2748124  98.5141100  79.6937404 114.0472750
  98.8893876  79.1675083 114.4920452  81.8714111  74.4195807 111.1573295
  81.9730248  75.2221968 111.4854271  82.6669998  74.2183143 110.8596376
  82.0042017  74.5081706 111.1608650  88.3030931  72.0052003 120.9210600
  88.1114128  72.0207138 121.7710024  89.1529526  72.2015678 120.8977255
  88.4006652  72.0366355 121.0433895  82.6877844  74.5342985 118.8994417
  82.5463335  73.6826926 119.0238925  82.9718407  74.5771646 118.0756623
  82.7085690  74.4142735 118.7962041  92.8416436  76.3710075 113.0438905
  92.5951150  76.2905826 113.8775694  93.1701559  75.5863543 112.8501432
  92.8537679  76.2436340 113.1386428  98.2317858  82.4371688 107.5942185
  97.8524666  81.6508826 107.5871475  97.5684103  82.9858545 107.4513830
  98.0776332  82.4016512 107.5722982  91.2135158  72.2007513 121.1282423
  91.6707772  72.9331487 121.2555216  91.2891486  71.7773978 121.8869679
  91.2926127  72.2464751 121.2583500  83.4568149  72.4473333 122.2171867
  82.9210338  71.8353691 122.5332634  83.5185914  73.0221469 122.8705534
  83.3863781  72.4420260 122.3607294  95.6862484  65.3797388 114.9976266
  95.8046052  65.8373851 114.2643569  95.5124659  64.5742649 114.7112484
  95.6781654  65.3291160 114.8477200  91.0564766  85.9885207 111.4331012
  91.8214657  85.7194851 111.1113676  90.9542856  85.5035218 112.1501074
  91.1546261  85.8774772 111.4910839  89.0917535  74.1909617 117.9724247
  88.3013610  74.0101077 118.2941583  89.4878158  73.4136569 117.9554542
  89.0334412  74.0497078 118.0176796  93.5783426  83.0197391 103.4130961
  94.3456411  83.0797516 103.0036813  93.1314735  82.4477833 102.9287280
  93.6256854  82.9433967 103.2808671  94.4761222  81.8252047 115.6983693
  93.8006224  81.5937279 116.1997080  94.4853598  81.2173230 115.0725798
  94.3779726  81.7010972 115.6799846  96.4777956  84.6817179 107.9293871
  96.5597794  85.4884165 107.6055322  96.9627699  84.7013139 108.6534645
  96.5615114  84.8037842 107.9880770  90.2874460  79.3602015 116.5963949
  89.8636709  79.5606514 115.8602968  90.1119315  78.5130863 116.7088249
  90.1985340  79.2650797 116.5037639  85.5756905  79.8554067 112.0291922
  85.7321524  79.7900869 112.8847914  85.9157498  80.6302619 111.8170601
  85.6490139  79.9603265 112.1246516  92.1136049  79.2311950 110.8985285
  92.6551595  78.7282331 111.3623906  92.4282608  79.1777145 110.0874770
  92.2400446  79.1491371 110.8469097  90.2822499  84.6229302 108.1825313
  90.3515319  83.7643840 108.3218313  91.0610954  84.8401183 107.8544338
  90.4075349  84.5282166 108.1542470  93.2625319  74.1248255 120.9507585
  93.4767288  73.4859169 120.3970939  92.6459218  74.5694079 120.5215447
  93.2030648  74.0958398 120.8058017  94.6729987  87.0467003 112.3961806
  94.2809778  86.7433718 111.6784672  94.8283059  87.8836093 112.2066760
  94.6383576  87.1250840 112.2618303  82.1491166  77.0389017 112.3452689
  82.5290131  77.4573562 111.6812956  81.5746531  77.6202473 112.6521532
  82.1202491  77.1866876 112.2929430  94.8369661  83.6116992 112.3367837
  94.4784316  83.7831635 113.1131869  94.3508372  84.0730198 111.7795835
  94.7128358  83.7055963 112.3693106  92.6540047  67.2348190 115.9394928
  91.7833605  67.2086912 115.8928238  92.9080389  67.0625383 115.1220774
  92.5633607  67.2058334 115.8115065  89.6258027  79.2916157 104.8768071
  89.9150552  80.0681040 105.1511646  89.7129826  78.7804889 105.5782571
  89.6812283  79.3308076 105.0210569  89.6789188  69.2454419 117.3968399
  89.1627676  68.5534610 117.5219978  89.1183117  69.9125196 117.3430997
  89.5195701  69.2417676 117.4074465  91.7481421  69.7847379 119.2261251
  91.3613174  69.8096410 120.0074781  91.2614359  69.2189058 118.7735768
  91.6193930  69.7043130 119.2749155  91.4138563  66.6714364 121.5171511
  92.0431681  67.2074664 121.2392581  91.5824426  66.5791723 122.3685077
  91.5316358  66.7375727 121.6020039  85.7921968  78.6049422 116.9768183
  84.9509974  78.5053296 117.1847077  86.0011976  79.3744902 117.3282504
  85.6986660  78.7041465 117.0595498  83.2697535  76.2268959 114.8052934
  82.8754232  76.3011971 114.0303044  82.7137651  76.6126905 115.3561296
  83.1300347  76.2950733 114.7720594  94.9062481  69.2050253 114.4856813
  95.1112075  69.1372561 115.3313810  94.5788905  70.0109074 114.4177990
  94.8877729  69.3136193 114.6016468  89.6038633  76.5330821 116.2265781
  89.3001770  75.9786809 116.8276188  88.9018053  76.7123031 115.7393815
  89.4554842  76.4775603 116.2435486  88.6604730  73.8431341 110.7910483
  88.9364464  73.1250253 110.3788050  89.2603399  74.4416261 110.5831589
  88.7897994  73.8251712 110.6991244  98.1596169  69.7582017 113.9659578
  97.5470483  70.2452419 114.3513310  98.2560344  69.0825508 114.5097230
  98.0834067  69.7300326 114.1038437  92.1615250  71.5144858 109.0657078
  92.6158997  71.6855419 109.7904922  92.6355296  70.9012969 108.6654853
  92.2983570  71.4495743 109.1130839  85.6830776  80.9993184 118.3959816
  85.0918709  81.6402682 118.3662831  86.4451799  81.4230801 118.3691116
  85.7079036  81.1569023 118.3874963  86.0791398  72.1595182 119.0627834
  86.5392880  72.2334111 119.8002958  86.1247505  72.9576436 118.7127655
  86.1541954  72.2889329 119.1200590  89.5028270  78.2187393 110.1702085
  90.2470315  78.6061669 110.4085035  89.6488966  77.3744818 110.3342573
  89.6338855  78.1517865 110.2296055  91.4207846  70.0137652 115.2033946
  90.5743891  70.1860459 115.0775296  91.4178978  69.2086995 115.5399775
  91.2954996  69.9198680 115.2345073  92.4906146  73.7912866 116.0696004
  92.0166100  73.2654628 116.5801315  92.8624282  73.2442339 115.5010866
  92.4756035  73.6328863 116.0611151  82.8679176  75.7884373 121.4379550
  83.7304789  75.6880082 121.3516880  82.5370959  75.2079082 120.8765122
  82.9464373  75.6875999 121.3424956  94.4189646  74.6849420 109.1321758
  93.8912664  74.7678164 108.4427467  94.8785354  75.4267292 109.1286403
  94.4091496  74.8070083 109.0296453 100.7548064  75.6316699 115.4332044
 100.5157834  75.5912533 114.5952829 100.9181965  76.4787851 115.5597765
 100.7438367  75.7508784 115.3285526  86.2280962  74.6126822 118.0989968
  85.6034032  74.6245214 117.4915921  85.8926557  75.0886997 118.7481208
  86.0866454  74.6845339 118.1046537  86.4122711  72.9551940 104.1562653
  86.0635515  73.6071665 104.6194203  85.9319157  72.9409053 103.4286524
  86.2892955  73.0494994 104.1173744  82.9406638  82.6727282 119.5393733
  82.4106562  81.9819721 119.5888707  83.2131731  82.6637467 118.7106441
  82.9031360  82.5694414 119.4241148  93.9726728  83.2552984 108.2631415
  94.6960927  83.7211097 108.1195988  93.5327319  83.3226594 107.5129012
  94.0142420  83.3336821 108.1316196  85.4971707  76.2219969 120.3164837
  85.6565194  75.4663294 120.7216559  85.3164601  76.7710909 120.9705574
  85.4937066  76.1913783 120.4727543  93.4392010  68.3881205 120.8715626
  92.9432572  68.5844879 120.1807193  94.1961073  68.7873873 120.7004428
  93.4778835  68.4758939 120.7435763  90.7094890  72.0623551 117.4618937
  90.7337377  71.5283663 116.7731717  90.9606364  71.5540860 118.1244527
  90.7504809  71.9084455 117.4583581  78.2202480  79.3455046 116.8962081
  78.1145929  79.3001890 116.0314165  77.4702700  79.6908826 117.1776366
  78.0938083  79.3895954 116.8099411  86.9896212  70.7894369 116.8424681
  87.0294584  71.2903576 117.5559388  86.1645877  70.8804763 116.5730604
  86.8735738  70.8776185 116.9075219  88.4110576  77.3054879 119.1398580
  87.5802505  77.4728697 118.9333828  88.3562093  76.9290830 119.9247465
  88.2799991  77.2744610 119.2247108  86.2194359  70.7963772 124.7754991
  86.8447062  70.2525905 125.0484423  85.7644839  70.3158689 124.2062781
  86.2442620  70.6453253 124.7316585  86.7846620  75.5810471 109.6688698
  86.9249581  76.0782935 110.3717339  87.2829152  74.8796765 109.8102911
  86.8787700  75.5512449 109.7940277  86.8146842  76.4477582 106.9981275
  87.4491921  77.0438007 106.9330736  86.8972453  76.1481039 107.8127145
  86.9203393  76.4918490 107.1084361  88.3925825  72.3791557 106.9726717
  88.7141666  71.8994639 106.3185979  88.6552769  73.1891203 106.7817528
  88.4791850  72.4281455 106.8482209  93.7884980  71.7663751 119.3350196
  94.2140051  71.3136277 118.7233722  93.1741973  71.2123822 119.6114983
  93.7613625  71.6177727 119.2855221  83.3199830  78.6445422 110.2670821
  83.8292059  79.2409930 110.6482126  83.7934102  78.3771396 109.5847240
  83.4643205  78.6931238 110.2225343  94.2330578  87.3173689 108.4229476
  93.5159888  87.1434551 107.9576714  94.8837315  87.0826261 107.8904962
  94.2232428  87.2569481 108.2758694  92.2279203  68.2378851 112.7440773
  91.5847521  68.0876497 113.3125911  91.8878610  67.9921196 111.9789877
  92.0824280  68.1790973 112.7143788  96.8178549  76.1938278 112.1670781
  96.1469739  76.7367980 112.0383847  97.5118299  76.6633133 111.9252476
  96.8207417  76.3436549 112.1126309  96.9806677  72.6494161 115.0761154
  97.3334287  72.2223884 115.7506953  96.1221478  72.5645005 115.2062231
  96.9056121  72.5738902 115.1956165  85.6790362  75.2801681 113.1344001
  84.9602351  75.6965813 113.4016865  86.0502724  75.8455920 112.5835639
  85.6282293  75.4250962 113.0926808  91.4536936  74.3199681 108.4717380
  90.8601775  74.6416677 107.9201948  91.4912214  73.4740776 108.2638487
  91.3711325  74.2424009 108.3600152  98.4130737  67.7712573 116.0045467
  97.9061601  67.0641713 115.9366644  99.2098170  67.4405762 116.1346544
  98.4557976  67.6185724 116.0144462  94.3294752  74.2779185 111.9019131
  94.1008445  74.3011887 111.0597489  94.5892829  73.4536652 112.0214141
  94.3340941  74.1595265 111.7944328  87.3839515  72.8155732 113.1973326
  87.8596881  73.1772811 112.5623508  86.8828115  73.4712199 113.4773469
  87.3804874  72.9649920 113.1450067 100.6150877  82.2877500 108.9886331
 100.9984482  83.0368856 109.2184428  99.8194990  82.5343319 108.7298320
 100.5544659  82.4347193 108.9843905  80.3581760  77.4798099 119.4135083
  79.8108480  76.8098745 119.5315951  81.1474138  77.1127947 119.4778550
  80.3933944  77.3263086 119.4403783  89.4266168  74.9596931 106.5646710
  89.8065133  74.9776561 105.7797825  88.6858764  75.4050920 106.4437558
  89.3735006  75.0278706 106.4310279  97.0551459  73.2679123 112.1522289
  97.0545685  73.1127779 113.0106565  96.8507639  74.1142110 112.0963675
  97.0251237  73.3699743 112.2710228  79.1168730  76.6918907 116.5681106
  78.9390491  76.2395516 117.2936021  78.8287752  77.4945068 116.7519583
  79.0481683  76.7441465 116.7024608  94.7792311  77.9476624 115.8058496
  95.2745976  77.2299619 115.7662516  93.9692086  77.6447422 115.6912983
  94.7336204  77.7974271 115.7832222  90.2250922  81.7974438 107.9555500
  89.4162245  81.4741111 107.9088810  90.7325831  81.0907660 107.8883749
  90.1800589  81.6455754 107.9385795  80.8541199  79.2246631 113.6802865
  79.9886719  79.2132321 113.5685636  80.9540015  79.0376854 114.5274004
  80.7415366  79.1952692 113.7891809  90.3492224  69.1842047 121.7794877
  90.4820130  68.3873040 122.1075852  90.7337377  69.7108450 122.3593153
  90.4248553  69.1441963 121.9138380  93.4224579  66.1072373 118.3775970
  92.6170543  65.9970102 118.6943809  93.2931315  66.2084829 117.5205836
  93.2844712  66.1056043 118.2984011  96.8790540  72.2717865 118.9715667
  96.2953529  72.7727071 118.5593234  97.1994834  71.7647421 118.3379990
  96.8403715  72.2709700 118.8174174  89.4185339  71.1858460 109.2474342
  90.2401033  71.3556772 109.0056037  88.9554990  71.3405720 108.5240639
  89.4716501  71.2340192 109.1045986  88.0080671  69.1801222 120.0272771
  88.5525084  68.8392349 120.6177112  88.0617606  70.0386683 120.1694055
  88.0969790  69.2556481 120.1354644  83.8211230  82.9417638 116.9011579
  84.4256087  82.9013472 116.2725399  83.6138542  83.7888790 116.9315634
  83.8800127  83.0605640 116.8127695  79.0562512  81.9252255 116.7710502
  78.9586790  81.1148527 117.0800558  79.8391381  81.9044049 116.3856770
  79.1578648  81.8019345 116.7597365  98.2400078  84.8615440 110.2882954
  98.9946046  85.2293757 110.0500004  98.0627612  85.2354994 111.0562133
  98.3254556  84.9713628 110.3667842  96.5957142  87.2685759 106.9861067
  96.4132716  87.4857640 106.1602059  97.4582755  87.3824771 107.0419681
  96.6961732  87.3175657 106.8715554 102.2756862  84.2712169 110.0210090
 103.0043022  84.0928124 109.5748247 102.3651755  85.1130249 110.2317269
 102.3963524  84.3696048 109.9863608  96.1419169  90.5459931 105.4983540
  95.4277347  90.2598111 105.9105972  96.6263138  90.8856557 106.1389927
  96.1078533  90.5541581 105.6539175  95.2718500  89.1599902 110.3088014
  94.9843296  88.7901173 109.5719961  95.9588969  89.6294758 110.0471719
  95.3307398  89.1746872 110.1603090  92.8446695  89.9381115 111.1573295
  92.9462831  90.7407276 111.4854271  93.6402582  89.7368451 110.8596376
  92.9774601  90.0267013 111.1608650 100.5990610  94.8101465 104.8768071
 100.8883135  95.5866348 105.1511646 100.6862409  94.2990197 105.5782571
 100.6544867  94.8493384 105.0210569  97.3855294  88.4737248 104.1562653
  97.0368099  89.1256973 104.6194203  96.9051740  88.4594361 103.4286524
  97.2625538  88.5680302 104.1173744  97.7879425  91.9662889 106.9981275
  98.4224505  92.5623314 106.9330736  97.8705036  91.6666347 107.8127145
  97.8935976  92.0103798 107.1084361  99.3658408  87.8976865 106.9726717
  99.6874249  87.4179947 106.3185979  99.6285352  88.7076511 106.7817528
  99.4524434  87.9466763 106.8482209 100.3998752  90.4782239 106.5646710
 100.7797717  90.4961868 105.7797825  99.6591348  90.9236228 106.4437558
 100.3467589  90.5464014 106.4310279 100.3917922  86.7043767 109.2474342
 101.2133617  86.8742080 109.0056037  99.9287573  86.8591028 108.5240639
 100.4449085  86.7525500 109.1045986  47.9722343   1.2563765  93.9632448
  47.6373711   1.9340686  93.5276670  48.4849213   0.8669076  93.3749320
  47.9987924   1.2988343  93.8119240  50.4802438  -4.4840028  94.5989339
  50.3953733  -3.6279061  94.7438908  50.9686821  -4.7595703  95.2671498
  50.5391335  -4.3982706  94.7191420  48.1454393  -1.6058523  92.8085395
  48.5605542  -1.9373499  92.1169890  47.3146323  -1.8389621  92.6805531
  48.0842402  -1.6887267  92.6876242  50.8387784  -5.3547964  91.9946596
  50.7567946  -5.2845777  92.8601583  51.4767504  -4.7918220  91.8030337
  50.9207621  -5.2608993  92.0936546  49.3082227   0.1941144  97.1593675
  49.0668903  -0.5390995  96.7520740  49.4883560   0.7428001  96.5060008
  49.2989851   0.1663535  97.0023898  54.0338347  -2.6991412  94.5282232
  53.6545156  -3.4854274  94.5211522  53.3704593  -2.1504555  94.3853876
  53.8796822  -2.7346588  94.5063029  49.3803916  -2.1165709  90.3471008
  50.1476901  -2.0565584  89.9376860  48.9335225  -2.6885268  89.8627326
  49.4277343  -2.1929134  90.2148718  52.2798446  -0.4545921  94.8633918
  52.3618283   0.3521065  94.5395369  52.7648188  -0.4349962  95.5874692
  52.3635604  -0.3325259  94.9220817  46.0842989  -0.5133799  95.1165360
  46.1535809  -1.3719260  95.2558360  46.8631444  -0.2961918  94.7884384
  46.2095839  -0.6080935  95.0882517  49.7747218  -1.8810116  95.1971462
  50.4981417  -1.4152004  95.0536035  49.3347809  -1.8136507  94.4469059
  49.8162910  -1.8026280  95.0656243  50.0351067   2.1810588  95.3569523
  49.3180377   2.0071451  94.8916760  50.6857805   1.9463161  94.8245009
  50.0252918   2.1206381  95.2098741  56.4171366  -2.8485601  95.9226378
  56.8004972  -2.0994245  96.1524475  55.6215480  -2.6019781  95.6638367
  56.3565148  -2.7015907  95.9183952  65.9089142   7.7285334  98.0156739
  65.8783146   8.5829971  98.1875009  66.5070490   7.4280627  98.5742883
  65.9926300   7.8101831  98.1231541  59.1088827   6.8160985 102.7709670
  58.2526722   6.9769483 102.8218786  59.1556480   5.9453049 102.7914731
  58.9887938   6.7111787 102.7815736  53.4929966  16.3523703  98.5346901
  52.7412866  15.9739241  98.3062946  53.9415978  16.3842137  97.7865711
  53.4479633  16.3009310  98.3904403  58.9454926  16.7749072  93.9632448
  58.6106295  17.4525994  93.5276670  59.4581797  16.3854384  93.3749320
  58.9720507  16.8173651  93.8119240  58.4859217  18.7263341  99.9043560
  58.8698597  19.2950240  99.3648335  58.4218359  18.0012851  99.4249376
  58.5332645  18.7038805  99.7537422  61.9540648   8.8753029 105.4141321
  62.4996608   9.5538116 105.4735291  61.8957524   8.7340490 104.5542903
  62.0256562   8.9545031 105.2953382  55.0714722  16.3642095 100.8009674
  55.1725085  15.5542449 101.1106801  54.4756468  16.2699042 100.1709352
  54.9987261  16.2307123 100.7535912  63.7305716  10.3037636  96.2875049
  63.6145242  11.0545322  96.7167187  64.5261603  10.0461589  96.5371136
  63.8310306  10.3772483  96.3879141  54.9115462  21.2819684 102.2024530
  55.5552917  21.7232848 102.5920688  55.2371718  20.4773110 102.1154788
  55.0547291  21.2284879 102.2470007  48.2679767  12.3862382 100.4262007
  48.0329951  11.5530034 100.3194276  48.4065407  12.6667047  99.6123208
  48.2535429  12.3045885 100.2904362  55.6136042  14.2931659  97.5744391
  55.9351883  14.8336866  96.9705699  56.2608138  13.7228431  97.7066681
  55.7562097  14.2890834  97.5051427  57.6637750   6.2947654  97.6578778
  58.3617914   6.4735782  98.1500241  57.9790082   5.7717993  97.0349167
  57.8133087   6.2441426  97.6380788  57.8525685  12.6818099  97.6458570
  58.2919321  12.0735200  98.0913342  57.7030348  12.3025472  96.8744035
  57.8947151  12.5356570  97.5977737  55.3197328  11.2762111 104.8477395
  55.9646331  10.7834554 104.5288344  55.5599105  11.4186898 105.6743473
  55.4507913  11.2239553 104.9226928  57.8583420  14.1217017 104.4984288
  58.1406662  13.3268423 104.2771043  58.5869580  14.5997604 104.5189349
  58.0072983  14.0751614 104.4687303  61.4535022  11.0345280  94.5989339
  61.3686317  11.8906247  94.7438908  61.9419405  10.7589604  95.2671498
  61.5123919  11.1202602  94.7191420  63.0441021  -2.3474426  99.9849663
  62.7294462  -1.6570948 100.4170086  62.5267963  -2.4029644  99.2835164
  62.9205492  -2.2539538  99.9446612  62.3853455   7.6530075  96.0987074
  61.8564926   7.8689708  96.7584380  62.9078475   8.3466213  96.0188043
  62.3841908   7.7873211  96.1842673  67.8401508  13.2276379 101.4720118
  67.0099211  13.4387023 101.6353535  67.7910760  12.4013434 101.1962402
  67.7108243  13.1365985 101.4557484  54.2753063  11.5493291  94.8994542
  53.6910278  12.0543323  95.3060406  53.8723158  11.3235678  94.1591134
  54.1292367  11.5901540  94.8499567  49.8297091  17.2648052 101.7018213
  49.3464670  17.9898542 101.6777797  50.6420410  17.5624183 101.8128371
  49.8787839  17.4150406 101.7145493  55.9011245  16.0580233 104.3068028
  55.3838187  15.6987648 103.7029336  56.5985637  15.5342408 104.3174094
  55.9276827  15.9277921 104.2198287  58.7330277   7.7958943  93.3763463
  58.9726281   8.0036927  92.5638806  59.0546118   6.9916452  93.4852407
  58.8167435   7.7073045  93.2724016  54.0420567  -0.2747661  97.2223000
  54.7966535   0.0930656  96.9840051  53.8648102   0.0991894  97.9902180
  54.1275046  -0.1649473  97.3007889  52.6841289  17.7804228 101.8538493
  53.3861868  17.2656217 101.9111250  52.6038772  18.1078380 102.6585368
  52.7765049  17.7518455 101.9811285  67.3355466   5.8746780 105.2670540
  66.4983887   5.9448967 105.5018134  67.3043697   5.8771275 104.3944842
  67.2073749   5.8857007 105.1730088  52.3977632   2.1322658  93.9201113
  52.2153205   2.3494539  93.0942106  53.2603245   2.2461671  93.9759728
  52.4982222   2.1812556  93.8055600  52.0092064  13.9710580 101.3624101
  52.8480963  14.2033513 101.4097863  52.0403833  13.1014892 101.2931137
  52.1373782  13.8767527 101.3588746  52.6344767  14.3911456 105.6637407
  53.1742992  14.2482587 106.3340779  51.9514713  14.7908206 106.0321433
  52.6136921  14.4291127 105.8171829  58.0777351  -0.8650931  96.9550137
  58.8063512  -1.0434976  96.5088294  58.1672244  -0.0232851  97.1657315
  58.1984013  -0.7667053  96.9203655  62.0585652  10.0702456 100.8582431
  62.8143167  10.5033971 100.8971340  62.1647976   9.4207226 101.4317067
  62.1855823  10.0379940 100.9480457  65.0965823  13.8975733 101.6084834
  64.6601055  13.9012476 102.3643806  64.7628739  14.5781232 101.1764412
  64.9828443  13.9988189 101.6565667  65.0163306   0.9389561 103.8514262
  65.6589214   1.0087666 104.4376177  65.2686327   0.2718784 103.3493804
  65.1485438   0.8515910 103.8641541  51.9439659   5.4096831  92.4323586
  51.2297836   5.1235010  92.8446019  52.4283628   5.7493457  93.0729974
  51.9099022   5.4178480  92.5879221  59.8265290  17.8494168 106.5794440
  59.0280536  17.6093668 106.8368309  60.2751302  17.9008561 107.3261488
  59.7739901  17.8216560 106.7279364  68.2310169  10.6156653 100.5004471
  68.8926603  10.0547322 100.4000380  67.5901581  10.1208684 100.8257163
  68.2339037  10.4593062 100.5336812  59.1186977  13.9126785  92.8085395
  59.5338125  13.5811809  92.1169890  58.2878907  13.6795687  92.6805531
  59.0574986  13.8298041  92.6876242  48.4475326  11.3970526 103.0983573
  48.2650899  11.3717412 102.2455865  49.1824995  11.8669464 103.1372481
  48.5289390  11.4631888 102.9781491  64.5175000  11.6322036 100.2416460
  64.7530589  11.7767235  99.4143311  64.6664564  12.3964444 100.6347974
  64.5740803  11.7661090 100.1780064  66.3465457  10.4723702  98.0786064
  66.6773674  11.0051342  97.4726159  66.9198545  10.5262589  98.7348015
  66.4799136  10.5593271  98.0863846  61.5597346   8.3188604  98.7609644
  61.6544200   9.0577898  99.2149270  60.9356189   7.8906080  99.1944209
  61.4806376   8.3649925  98.8917792  61.8120367  10.1637344  91.9946596
  61.7300530  10.2339531  92.8601583  62.4500088  10.7267088  91.8030337
  61.8940205  10.2576315  92.0936546  55.1713538   9.9298082 101.4621122
  54.9132783   9.0969817 101.4352422  55.2262021  10.1555695 100.6213623
  55.1413316   9.8395853 101.3341259  60.2514588   2.0326533 101.5625215
  59.5470915   1.5435718 101.7209134  60.2999563   2.0449007 100.6913660
  60.1544640   1.9616181 101.4564555  54.1448250   7.4835845 101.9486017
  53.5697842   7.6428013 102.5849978  53.7683927   6.8471254 101.4854468
  54.0051063   7.4133658 101.9740576  67.4544808   5.7134199  99.5826226
  67.1981373   4.9014140  99.3924108  68.2974122   5.7211766  99.3556413
  67.5410834   5.5946196  99.5211043  58.9160477  10.1857798  95.0055203
  59.7301116  10.4772691  94.8937974  58.8519619   9.5317661  94.4313496
  59.0263216  10.1322993  94.9044040  65.1369967  12.8683795 109.4184778
  64.9008605  12.0371859 109.2996839  65.7813196  12.8169402 110.0039622
  65.1964638  12.7381483 109.4870672  54.7868386  13.6579316 100.1327515
  55.4242333  13.4191063 100.6779308  55.2123457  13.8616475  99.3980675
  54.9444552  13.6530326 100.1044672  49.4781028  15.8967652 104.0161818
  49.5185173  16.1682504 103.1881598  50.0375552  16.4209561 104.4319606
  49.5664374  16.0143407 103.9553707  55.4271201   8.8781606  94.4702404
  55.8116353   8.6589312  95.2218949  55.1782821   9.7044551  94.6003480
  55.4473273   8.9679752  94.6003481  66.1606388  12.6528243 105.4813073
  65.8552205  13.3856300 105.8426388  65.4412604  12.2466173 105.2005859
  66.0093730  12.7009976 105.4926210  57.1689858  14.1351739 101.8121301
  57.2428866  13.9726910 102.6663151  57.9859364  14.3241928 101.5681783
  57.3006216  14.1388481 101.9019327  71.8608180   9.2921244 104.8081417
  71.7932681   9.3117203 103.9384004  71.8463843  10.1351571 105.0337088
  71.8486937   9.4194979 104.7133894  50.9295614  14.4809601  98.8415744
  50.1033732  14.7271339  98.7150023  50.9907605  14.4021682  99.7077803
  50.8169781  14.5054550  98.9504689  55.7094443  17.0986482  96.5434774
  55.9992742  16.7075463  95.8194001  56.4397924  17.2803187  96.9840050
  55.8601327  17.0680295  96.5017581  69.6466798   8.0665630 103.0828011
  70.1974719   7.4333699 103.3225103  69.6310913   8.5981023 103.7743516
  69.7251994   8.0514578 103.2206870  53.6500359  19.0753864  99.6094924
  53.4300654  18.7851219 100.4021591  53.4294881  18.4168819  99.0812836
  53.5847953  18.9353572  99.6483833  52.5617306  11.1627181 101.8750626
  52.2730555  10.5364652 102.4096353  53.4300654  11.1047468 101.9415306
  52.6477558  11.0614725 101.9641580  63.3495204   6.3061964 102.1932608
  63.0059970   5.5852299 102.5439857  63.4488246   6.0975815 101.3510966
  63.3137247   6.1686167 102.1204288  55.8168315  20.4483254  98.3925616
  56.4692373  19.9159696  98.6216643  55.1193923  20.0951906  98.7793490
  55.8099033  20.3172777  98.4837784  52.7649579  12.8022432  97.7992991
  53.5195547  13.1835471  98.0128453  52.1720192  13.2533575  98.2539687
  52.7886293  12.9251259  97.8975869  63.8108233  12.7687668  97.7356596
  64.3766266  13.4280878  97.6515139  63.1636136  13.1137366  98.2072998
  63.7986989  12.9169609  97.7929352  54.0847806  13.9730993 103.1733106
  53.5628560  14.1131285 103.8584971  54.4721826  13.2141657 103.3635224
  54.0651507  13.8816517 103.3034183  51.0738990   4.0236802  97.2428061
  50.7863786   3.6538072  96.5060008  51.7609458   4.4931657  96.9811766
  51.1327887   4.0383771  97.0943137  60.2814811  15.7126452  97.1593675
  60.0401487  14.9794313  96.7520740  60.4616144  16.2613309  96.5060008
  60.2722435  15.6848843  97.0023898  55.5114132  11.0035012  98.5714597
  55.3156914  11.6109746  97.9774900  55.7348477  10.3102956  98.0906271
  55.5148773  10.9912537  98.4130678  53.9092662   7.8889750  98.6895466
  54.6315314   8.0530908  98.2299272  53.4300654   8.6099415  98.5834805
  53.9456392   8.0187979  98.6061080  61.8686169   4.2253549 104.0692150
  61.0297270   4.2514828 103.8330414  61.9390537   4.8724284 104.6497497
  61.7554563   4.3249675 104.1201267  60.3155448   1.1238926  98.8019766
  61.0181800   0.9246674  98.3239725  60.0499636   0.3514868  99.1088610
  60.3802080   0.9801892  98.7765208  65.7443693   9.4321535 101.3553392
  65.6577668   9.5876961 102.2088171  65.2894173  10.0759611 100.9812797
  65.6646950   9.5497291 101.4260499  48.6467185   4.8018014  98.0913342
  48.7483321   5.6044176  98.4194317  49.4423071   4.6005350  97.7936422
  48.7795090   4.8903913  98.0948697  59.6169509   6.7532283  99.9778952
  59.3704223   6.6728033 100.8115741  59.9454632   5.9685750  99.7841479
  59.6290753   6.6258548 100.0726475  63.5117558  13.4615642 103.7665733
  63.3731917  14.1596688 104.2714475  62.7317556  13.3064298 103.4101915
  63.3760785  13.5415809 103.7892007  54.6494291  17.6791773 106.2562962
  54.7983855  17.1194689 105.6036366  55.4294293  17.7583775 106.6395480
  54.7868385  17.6077338 106.2159911  65.0070931  12.8193896  94.5282232
  64.6277740  12.0331034  94.5211522  64.3437176  13.3680753  94.3853876
  64.8529406  12.7838720  94.5063029  57.1747592  17.8506416 107.5347452
  57.0991263  17.1815226 108.0898241  57.1037451  18.5524204 108.0488119
  57.1528199  17.8551323 107.6924301  57.8317839  16.3707415  98.3671058
  58.5967730  16.1017058  98.0453723  57.7295929  15.8857425  99.0841121
  57.9299334  16.2596979  98.4250886  60.3536499  13.4019598  90.3471008
  61.1209485  13.4619723  89.9376860  59.9067808  12.8300040  89.8627326
  60.4009927  13.3256174  90.2148718  61.2514295  12.2074254 102.6323740
  60.5759297  11.9759487 103.1337127  61.2606671  11.5995437 102.0065845
  61.1532800  12.0833180 102.6139892  63.2531030  15.0639387  94.8633918
  63.3350867  15.8706373  94.5395369  63.7380772  15.0835346  95.5874692
  63.3368187  15.1860049  94.9220817  57.0627533   9.7424223 103.5303996
  56.6389782   9.9428722 102.7943014  56.8872388   8.8953071 103.6428296
  56.9738413   9.6473004 103.4377686  56.5639226  21.2574736 105.9925453
  57.0535157  20.5585525 105.8101118  55.9923459  20.9598606 106.5801511
  56.5523756  21.1100959 106.0526494  52.3509978  10.2376274  98.9631969
  52.5074597  10.1723077  99.8187961  52.6910571  11.0124827  98.7510648
  52.4243213  10.3425472  99.0586563  58.8889122   9.6134158  97.8325332
  59.4304668   9.1104539  98.2963952  59.2035681   9.5599352  97.0214817
  59.0153520   9.5313579  97.7809144  57.0575572  15.0051509  95.1165360
  57.1268392  14.1466048  95.2558360  57.8364027  15.2223390  94.7884384
  57.1828422  14.9104373  95.0882517  61.4483060  17.4289210  99.3301853
  61.0562851  17.1255926  98.6124719  61.6036132  18.2658300  99.1406807
  61.4136650  17.5073047  99.1958350  48.9244239   7.4211225  99.2792736
  49.3043204   7.8395769  98.6153003  48.3499604   8.0024680  99.5861579
  48.8955564   7.5689083  99.2269477  61.6122735  13.9939199  99.2707884
  61.2537389  14.1653842 100.0471916  61.1261445  14.4552405  98.7135882
  61.4881431  14.0878170  99.3033153  56.4011100   9.6738365  91.8108118
  56.6903625  10.4503247  92.0851692  56.4882899   9.1627096  92.5122617
  56.4565356   9.7130283  91.9550616  62.7727474  14.8843095 110.2175084
  63.4107194  14.3903291 109.8837541  62.1301565  14.8120496 109.6327311
  62.7721700  14.8002104 110.0817439  64.4984474   6.7332241 104.7841000
  64.0712082   6.6458590 104.0289100  63.8610527   6.8410017 105.3695844
  64.3414081   6.7364901 104.7586442  62.8281730  15.5762904 106.8580441
  63.6174109  15.2251968 106.9782523  63.0025328  16.3899292 106.5957075
  62.9702012  15.6448761 106.8368309  61.6815555  -0.4127540 101.4196860
  61.8865148  -0.4805232 102.2653857  61.3541979   0.3931281 101.3518037
  61.6630803  -0.3041599 101.5356515  56.3791706   6.9153028 103.1605828
  56.0754843   6.3609017 103.7616235  55.6771127   7.0945238 102.6733862
  56.2307916   6.8597811 103.1775533  55.4357803   4.2253548  97.7250529
  55.7117537   3.5072461  97.3128097  56.0356472   4.8238468  97.5171636
  55.5651067   4.2073919  97.6331291  64.9349242   0.1404225 100.8999625
  64.3223556   0.6274627 101.2853357  65.0313417  -0.5352285 101.4437276
  64.8587140   0.1122533 101.0378483  58.9368323   1.8967066  95.9997125
  59.3912070   2.0677626  96.7244969  59.4108369   1.2835176  95.5994900
  59.0736643   1.8317951  96.0470886  68.5774270  11.2121161 106.3277141
  68.6357394  11.6607810 107.0737118  67.9440738  11.6219974 105.8907221
  68.4925565  11.3394896 106.3729690  62.2173365  16.8324703 102.7631887
  62.0193054  17.3215518 102.0688099  61.5961076  17.0365945 103.3416021
  62.0960929  16.9341241 102.7455111  56.2781343   8.6009600  97.1042132
  57.0223388   8.9883876  97.3425082  56.4242040   7.7567025  97.2682620
  56.4091928   8.5340073  97.1636101  65.5295950   9.2337449 104.4142832
  65.2894173   8.3943864 104.4185258  66.0087957   9.3137616 105.1383605
  65.5648133   9.1218849 104.5217634  61.1942719   5.0671628  96.0661805
  60.6665737   5.1500372  95.3767514  61.6538427   5.8089499  96.0626450
  61.1844569   5.1892290  95.9636500  67.5301137   6.0138906 102.3672091
  67.2910907   5.9734740 101.5292875  67.6935038   6.8610058 102.4937812
  67.5191440   6.1330991 102.2625573  64.1347167  10.3988855 108.2977136
  64.8581366   9.9461382 108.1188156  63.8697129  10.6793521 107.5149464
  64.2028440  10.3739824 108.1555851  53.1875784   3.3374147  91.0902700
  52.8388588   3.9893873  91.5534249  52.7072230   3.3231261  90.3626571
  53.0646028   3.4317201  91.0513791  60.7479801  13.6375191  95.1971462
  61.4714000  14.1033304  95.0536035  60.3080392  13.7048801  94.4469059
  60.7895494  13.7159028  95.0656243  59.9165956  10.4972734 106.4472151
  59.3022950   9.9530784 106.7420786  60.4333241   9.9836970 105.9677967
  59.9021619  10.3409143 106.4196379  59.1562254  11.5677004 104.1816450
  58.7289862  10.9426722 103.7481885  59.1487198  11.2851926 105.0075457
  59.0921395  11.4329784 104.2396277  53.5599693   5.9632678  96.6028745
  53.7002654   6.4605142  97.3057386  54.0582226   5.2618972  96.7442958
  53.6540774   5.9334657  96.7280324  53.5899915   6.8299789  93.9321321
  54.2244995   7.4260214  93.8670783  53.6725526   6.5303247  94.7467192
  53.6956466   6.8740697  94.0424408  66.5682481   9.3615266 106.8007686
  67.1600321  10.0012517 106.8325884  67.0041475   8.6638303 107.0899752
  66.7200912   9.3533617 106.8488518  55.1678898   2.7613764  93.9066763
  55.4894739   2.2816847  93.2526026  55.4305842   3.5713410  93.7157575
  55.2544923   2.8103662  93.7822255  58.3975871  13.7832639 107.4265580
  57.8900962  14.3368486 107.8706210  58.1002517  13.8440929 106.6084354
  58.2780756  13.8738950 107.3714036  50.0952903   9.0267630  97.2010867
  50.6045132   9.6232137  97.5822173  50.5687175   8.7593603  96.5187287
  50.2396279   9.0753445  97.1565390  61.0083651  17.6995896  95.3569523
  60.2912961  17.5256759  94.8916760  61.6590389  17.4648469  94.8245009
  60.9985502  17.6391689  95.2098741  59.0032276  -1.3798942  99.6780819
  58.3600594  -1.5301296 100.2465958  58.6631683  -1.6256597  98.9129924
  58.8577353  -1.4386819  99.6483835  63.5931622   6.5760485  99.1010828
  62.9222812   7.1190187  98.9723894  64.2871373   7.0455340  98.8592523
  63.5960490   6.7258756  99.0466356  57.6418356  18.7157197 104.3322586
  57.4184010  17.9576026 104.7006613  57.1528199  18.7455218 103.6103026
  57.5361805  18.6079421 104.2799327  63.7559750   3.0316369 102.0101201
  64.1087360   2.6046091 102.6847000  62.8974551   2.9467212 102.1402278
  63.6809194   2.9561109 102.1296212  52.4543435   5.6623888 100.0684048
  51.7355424   6.0788021 100.3356911  52.8255797   6.2278127  99.5175686
  52.4035367   5.8073170 100.0266855  56.2896813  18.9357655 101.7859671
  55.8757212  18.2731785 101.3963513  56.9744187  19.0835514 101.2655365
  56.3295185  18.8598313 101.6516168  59.6562107  18.0947740 102.5383288
  59.2578390  18.2050011 101.7704108  59.0413327  18.3029807 103.1209847
  59.5060996  18.1421308 102.5114587  58.2290009   4.7021888  95.4057427
  57.6354848   5.0238885  94.8541994  58.2665287   3.8562984  95.1978533
  58.1464398   4.6246216  95.2940199  61.1047826   4.6601393  98.8359178
  60.8761519   4.6834094  97.9937536  61.3645902   3.8358860  98.9554188
  61.1094014   4.5417473  98.7284375  54.1592588   3.1977939 100.1313373
  54.6349954   3.5595019  99.4963554  53.6581188   3.8534406 100.4113516
  54.1557947   3.3472128 100.0790114  67.3903950  12.6699707  95.9226378
  67.7737556  13.4191063  96.1524475  66.5948063  12.9165527  95.6638367
  67.3297732  12.8169401  95.9183952  56.2019241   5.3419139  93.4986757
  56.5818206   5.3598768  92.7137872  55.4611837   5.7873128  93.3777604
  56.1488079   5.4100913  93.3650325  63.8304532   3.6501330  99.0862336
  63.8298758   3.4949986  99.9446612  63.6260712   4.4964317  99.0303721
  63.8004310   3.7521951  99.2050275  61.5545384   8.3298832 102.7398543
  62.0499049   7.6121827 102.7002563  60.7445160   8.0269629 102.6253030
  61.5089277   8.1796478 102.7172269  57.0003995  12.1796645  94.8895547
  56.1915318  11.8563319  94.8428857  57.5078904  11.4729867  94.8223796
  56.9553662  12.0277961  94.8725842  47.6294273   9.6068838 100.6142911
  46.7639792   9.5954529 100.5025683  47.7293089   9.4199061 101.4614051
  47.5168440   9.5774899 100.7231856  63.6197203  11.0802519 105.4275671
  64.0452274  10.5576941 104.8746097  63.2554123  11.6783357 104.9064294
  63.6283805  11.0912746 105.2684681  53.2551283  19.3766737 104.1873017
  53.5697842  20.1903125 104.1950799  53.6644696  18.9916955 104.8555176
  53.3619381  19.4395439 104.2877109  60.2075802  14.7936783 101.7576829
  60.6786980  15.5077046 101.9266814  60.5435981  14.1935534 102.2936698
  60.3270917  14.8108248 101.8609205  60.8449749  14.5854718 108.5204522
  60.2970695  13.9612601 108.2524587  61.3062777  14.7748990 107.8048601
  60.8316958  14.5213768 108.3754953  56.1938412   1.5680667  96.1814389
  57.0154106   1.7378980  95.9396084  55.7308063   1.7227928  95.4580686
  56.2469574   1.6162400  96.0386033  50.5964303  13.3239845 103.8351625
  51.2009160  13.2835679 103.2065446  50.3891615  14.1710997 103.8655681
  50.6553200  13.4427848 103.7467742  60.4108075  15.5905790 105.0513863
  61.2306449  15.4468756 105.3130158  60.1302153  16.2151989 105.5930301
  60.4904818  15.6616142 105.1701802  76.8821725  23.2470642  98.0156739
  76.8515730  24.1015279  98.1875009  77.4803074  22.9465935  98.5742883
  76.9658883  23.3287139  98.1231541  70.0821410  22.3346293 102.7709670
  69.2259306  22.4954791 102.8218786  70.1289064  21.4638357 102.7914731
  69.9620522  22.2297095 102.7815736  64.4662550  31.8709011  98.5346901
  63.7145449  31.4924549  98.3062946  64.9148561  31.9027445  97.7865711
  64.4212217  31.8194618  98.3904403  73.3915127  28.6032819 112.3770126
  74.0981894  28.1084849 112.5057060  73.5803062  29.0441900 111.6472784
  73.5243032  28.5951169 112.2879171  72.9273231  24.3938337 105.4141321
  73.4729191  25.0723424 105.4735291  72.8690107  24.2525798 104.5542903
  72.9989145  24.4730339 105.2953382  66.0447306  31.8827403 100.8009674
  66.1457669  31.0727757 101.1106801  65.4489051  31.7884349 100.1709352
  65.9719845  31.7492431 100.7535912  74.7038300  25.8222944  96.2875049
  74.5877826  26.5730630  96.7167187  75.4994186  25.5646897  96.5371136
  74.8042889  25.8957791  96.3879141  65.8848046  36.8004992 102.2024530
  66.5285501  37.2418156 102.5920688  66.2104301  35.9958418 102.1154788
  66.0279874  36.7470187 102.2470007  59.2412350  27.9047690 100.4262007
  59.0062535  27.0715342 100.3194276  59.3797991  28.1852355  99.6123208
  59.2268013  27.8231193 100.2904362  61.5402438  20.0733420 103.3246315
  60.9207469  19.4826067 103.1556330  61.4386301  20.6644855 102.6910638
  61.4340113  20.0737503 103.2051305  66.5868625  29.8116967  97.5744391
  66.9084466  30.3522174  96.9705699  67.2340722  29.2413738  97.7066681
  66.7294680  29.8076142  97.5051427  68.6370333  21.8132962  97.6578778
  69.3350498  21.9921090  98.1500241  68.9522666  21.2903301  97.0349167
  68.7865671  21.7626734  97.6380788  61.2671571  23.6185702 105.5689884
  61.1430268  24.2048147 106.2039703  61.9189855  23.1245898 105.8702159
  61.3445220  23.6324506 105.7075813  68.8258269  28.2003407  97.6458570
  69.2651904  27.5920508  98.0913342  68.6762932  27.8210780  96.8744035
  68.8679734  28.0541878  97.5977737  66.2929912  26.7947419 104.8477395
  66.9378914  26.3019862 104.5288344  66.5331689  26.9372205 105.6743473
  66.4240497  26.7424861 104.9226928  68.8316003  29.6402325 104.4984288
  69.1139246  28.8453730 104.2771043  69.5602163  30.1182912 104.5189349
  68.9805567  29.5936922 104.4687303  66.8097197  17.1825359 101.7400053
  66.4800527  17.6336502 101.0703751  66.1342199  17.1041522 102.2873059
  66.6607633  17.2376494 101.7223276  72.4267605  26.5530588  94.5989339
  72.3418900  27.4091555  94.7438908  72.9151989  26.2774912  95.2671498
  72.4856503  26.6387910  94.7191420  74.0173605  13.1710882  99.9849663
  73.7027046  13.8614360 100.4170086  73.5000546  13.1155664  99.2835164
  73.8938075  13.2645770  99.9446612  73.3586038  23.1715383  96.0987074
  72.8297510  23.3875016  96.7584380  73.8811058  23.8651521  96.0188043
  73.3574491  23.3058519  96.1842673  65.2485646  27.0678599  94.8994542
  64.6642862  27.5728631  95.3060406  64.8455741  26.8420986  94.1591134
  65.1024950  27.1086848  94.8499567  60.8029675  32.7833360 101.7018213
  60.3197253  33.5083850 101.6777797  61.6152993  33.0809490 101.8128371
  60.8520423  32.9335714 101.7145493  66.8743829  31.5765541 104.3068028
  66.3570771  31.2172956 103.7029336  67.5718220  31.0527716 104.3174094
  66.9009410  31.4463229 104.2198287  70.5307421  32.0260355 110.2684201
  70.6190767  31.8386496 111.1162411  70.9597134  31.3797785 109.8689048
  70.6069523  31.9023363 110.3355952  68.0977881  31.3091515 109.2501863
  67.5348716  30.8964125 109.7741524  68.8598904  31.2344421 109.6695006
  68.1272329  31.2368916 109.3894863  69.7062861  23.3144251  93.3763463
  69.9458864  23.5222235  92.5638806  70.0278702  22.5101760  93.4852407
  69.7900019  23.2258353  93.2724016  65.0153151  15.2437647  97.2223000
  65.7699119  15.6115964  96.9840051  64.8380686  15.6177201  97.9902180
  65.1007629  15.3535835  97.3007889  63.6573872  33.2989536 101.8538493
  64.3594451  32.7841525 101.9111250  63.5771355  33.6263688 102.6585368
  63.7497633  33.2703763 101.9811285  78.3088050  21.3932088 105.2670540
  77.4716471  21.4634275 105.5018134  78.2776281  21.3956582 104.3944842
  78.1806332  21.4042315 105.1730088  64.7052779  23.5365123 110.9818908
  64.8773282  23.4271018 111.8304190  65.2422136  24.1819529 110.7450101
  64.8097783  23.6157125 111.0724005  63.3710216  17.6507966  93.9201113
  63.1885789  17.8679847  93.0942106  64.2335829  17.7646979  93.9759728
  63.4714805  17.6997864  93.8055600  62.9824648  29.4895888 101.3624101
  63.8213547  29.7218821 101.4097863  63.0136417  28.6200200 101.2931137
  63.1106365  29.3952835 101.3588746  63.6077351  29.9096764 105.6637407
  64.1475576  29.7667895 106.3340779  62.9247297  30.3093514 106.0321433
  63.5869505  29.9476434 105.8171829  69.0509935  14.6534377  96.9550137
  69.7796095  14.4750332  96.5088294  69.1404828  15.4952457  97.1657315
  69.1716597  14.7518255  96.9203655  73.0318236  25.5887764 100.8582431
  73.7875751  26.0219278 100.8971340  73.1380560  24.9392534 101.4317067
  73.1588406  25.5565248 100.9480457  70.6427480  31.4569374 112.9327985
  71.4267897  31.5700222 113.2983727  70.4424075  30.6310511 113.1286670
  70.7293506  31.3516094 113.0162371  59.0114496  26.1297054 105.8171828
  58.7452911  25.3136171 105.9762819  59.0253060  26.1750210 104.9467344
  58.9739218  26.0153959 105.7125310  75.9895890  16.4574869 103.8514262
  76.6321798  16.5272974 104.4376177  76.2418910  15.7904092 103.3493804
  76.1218022  16.3701218 103.8641541  62.9172243  20.9282139  92.4323586
  62.2030420  20.6420318  92.8446019  63.4016211  21.2678765  93.0729974
  62.8831606  20.9363788  92.5879221  63.7613102  19.6675433 108.4638836
  63.0684899  19.1972412 108.7099568  64.3773429  19.4413737 109.0380543
  63.7497632  19.5642564 108.5847989  70.7997874  33.3679476 106.5794440
  70.0013119  33.1278976 106.8368309  71.2483885  33.4193869 107.3261488
  70.7472485  33.3401867 106.7279364  79.2042753  26.1341961 100.5004471
  79.8659187  25.5732630 100.4000380  78.5634165  25.6393992 100.8257163
  79.2071620  25.9778370 100.5336812  70.0919561  29.4312093  92.8085395
  70.5070709  29.0997117  92.1169890  69.2611490  29.1980995  92.6805531
  70.0307569  29.3483349  92.6876242  59.4207909  26.9155834 103.0983573
  59.2383483  26.8902720 102.2455865  60.1557578  27.3854772 103.1372481
  59.5021973  26.9817196 102.9781491  75.4907584  27.1507344 100.2416460
  75.7263173  27.2952543  99.4143311  75.6397147  27.9149752 100.6347974
  75.5473387  27.2846398 100.1780064  62.4853661  23.6340837 109.6065681
  63.2093633  23.6193867 110.0930576  62.5869798  24.3436192 109.1087650
  62.6071870  23.7365540 109.6044468  77.3198040  25.9909010  98.0786064
  77.6506257  26.5236650  97.4726159  77.8931128  26.0447897  98.7348015
  77.4531719  26.0778578  98.0863846  69.8598610  27.1139921 114.4714628
  69.0671591  27.4283433 114.6567248  69.9747538  27.3291390 113.6335413
  69.7594021  27.1923758 114.3752963  72.5329929  23.8373912  98.7609644
  72.6276784  24.5763206  99.2149270  71.9088773  23.4091388  99.1944209
  72.4538960  23.8835233  98.8917792  70.7882403  27.0160125 109.4099925
  71.3621265  26.3787369 109.5648489  70.7097207  27.0164207 108.5409583
  70.8615638  26.9225236 109.3046336  59.3878820  23.7949334 103.2482639
  59.9652322  23.6585785 103.8874885  58.6892881  23.3385119 103.5028224
  59.3699841  23.7071601 103.3804929  72.7852951  25.6822652  91.9946596
  72.7033113  25.7524839  92.8601583  73.4232671  26.2452396  91.8030337
  72.8672788  25.7761623  92.0936546  66.1446122  25.4483390 101.4621122
  65.8865366  24.6155125 101.4352422  66.1994605  25.6741003 100.6213623
  66.1145900  25.3581161 101.3341259  71.2247172  17.5511841 101.5625215
  70.5203499  17.0621026 101.7209134  71.2732146  17.5634315 100.6913660
  71.1277224  17.4801489 101.4564555  65.1180834  23.0021153 101.9486017
  64.5430425  23.1613321 102.5849978  64.7416510  22.3656562 101.4854468
  64.9783646  22.9318965 101.9740576  68.7854123  21.4744502 106.8078396
  68.3968555  21.0498720 106.1530587  68.1208821  21.7226651 107.3155422
  68.6301050  21.4483223 106.7866264  78.4277392  21.2319506  99.5826226
  78.1713957  20.4199448  99.3924108  79.2706706  21.2397074  99.3556413
  78.5143417  21.1131504  99.5211043  54.8637653  22.6461227  99.9630458
  54.9497905  22.2693096 100.7443988  55.4913450  22.2721673  99.4850416
  54.9694204  22.5346709 100.0075935  72.6080484  15.1719131 104.3202380
  72.9890996  14.4897302 104.7070254  71.8043768  14.8828733 104.1378044
  72.5456946  15.0286179 104.3506436  69.8893061  25.7043106  95.0055203
  70.7033700  25.9957999  94.8937974  69.8252202  25.0502969  94.4313496
  69.9995800  25.6508301  94.9044040  76.1102551  28.3869103 109.4184778
  75.8741188  27.5557167 109.2996839  76.7545780  28.3354710 110.0039622
  76.1697222  28.2566790 109.4870672  65.7600969  29.1764624 100.1327515
  66.3974916  28.9376371 100.6779308  66.1856041  29.3801783  99.3980675
  65.9177135  29.1715634 100.1044672  60.4513612  31.4152960 104.0161818
  60.4917757  31.6867811 103.1881598  61.0108136  31.9394868 104.4319606
  60.5396957  31.5328715 103.9553707  66.4003784  24.3966914  94.4702404
  66.7848937  24.1774620  95.2218949  66.1515405  25.2229859  94.6003480
  66.4205857  24.4865060  94.6003481  66.5672325  17.6773329 114.1864988
  66.2525766  18.4472892 113.9234551  66.2462257  17.1143585 113.6017215
  66.4731244  17.7083598 114.0606338  77.1338972  28.1713551 105.4813073
  76.8284789  28.9041608 105.8426388  76.4145187  27.7651481 105.2005859
  76.9826314  28.2195284 105.4926210  68.1422441  29.6537046 101.8121301
  68.2161449  29.4912218 102.6663151  68.9591947  29.8427236 101.5681783
  68.2738800  29.6573789 101.9019327  82.8340764  24.8106552 104.8081417
  82.7665264  24.8302511 103.9384004  82.8196426  25.6536879 105.0337088
  82.8219520  24.9380287 104.7133894  61.9028198  29.9994909  98.8415744
  61.0766315  30.2456646  98.7150023  61.9640189  29.9206990  99.7077803
  61.7902365  30.0239858  98.9504689  64.1204222  16.0663850  99.8011185
  63.2526647  16.1386450  99.8668794  64.4079426  16.8685929  99.9899160
  64.0343970  16.1957997  99.8385951  73.2437110  16.2141710 108.1322506
  73.9890702  16.0251520 107.7185932  72.8274415  16.7399948 107.5736363
  73.2922085  16.2643855 107.9887080  80.6199381  23.5850938 103.0828011
  81.1707303  22.9519007 103.3225103  80.6043497  24.1166331 103.7743516
  80.6984578  23.5699886 103.2206870  67.2721772  27.4189535 107.6287905
  66.7733466  28.1305303 107.7072793  68.0821996  27.7390202 107.5906067
  67.3177879  27.5716384 107.6344473  64.6232942  34.5939172  99.6094924
  64.4033238  34.3036527 100.4021591  64.4027464  33.9354127  99.0812836
  64.5580537  34.4538880  99.6483833  63.5349890  26.6812488 101.8750626
  63.2463138  26.0549960 102.4096353  64.4033238  26.6232776 101.9415306
  63.6210142  26.5800033 101.9641580  74.3227787  21.8247272 102.1932608
  73.9792553  21.1037607 102.5439857  74.4220830  21.6161123 101.3510966
  74.2869830  21.6871475 102.1204288  66.7900898  35.9668562  98.3925616
  67.4424956  35.4345004  98.6216643  66.0926507  35.6137214  98.7793490
  66.7831616  35.8358085  98.4837784  63.7382163  28.3207740  97.7992991
  64.4928131  28.7020779  98.0128453  63.1452776  28.7718883  98.2539687
  63.7618877  28.4436567  97.8975869  74.7840816  28.2872976  97.7356596
  75.3498849  28.9466186  97.6515139  74.1368720  28.6322674  98.2072998
  74.7719573  28.4354917  97.7929352  66.1988830  20.2770580 112.9250203
  65.3888606  20.5828360 112.8140045  66.6763517  20.9976162 113.0402787
  66.1492309  20.4285181 112.9257274  65.0580390  29.4916301 103.1733106
  64.5361143  29.6316593 103.8584971  65.4454410  28.7326965 103.3635224
  65.0384091  29.4001825 103.3034183  62.0471574  19.5422110  97.2428061
  61.7596369  19.1723380  96.5060008  62.7342042  20.0116965  96.9811766
  62.1060471  19.5569079  97.0943137  66.4846715  26.5220320  98.5714597
  66.2889498  27.1295054  97.9774900  66.7081061  25.8288264  98.0906271
  66.4881356  26.5097845  98.4130678  64.8825245  23.4075058  98.6895466
  65.6047897  23.5716216  98.2299272  64.4033238  24.1284723  98.5834805
  64.9188976  23.5373287  98.6061080  72.8418753  19.7438857 104.0692150
  72.0029853  19.7700135 103.8330414  72.9123120  20.3909592 104.6497497
  72.7287146  19.8434982 104.1201267  62.5332862  25.8133130 107.7949605
  63.0453959  26.0917383 107.1458365  62.2469205  26.5522424 108.1612418
  62.5667725  25.9635484 107.7539483  71.2888031  16.6424234  98.8019766
  71.9914384  16.4431982  98.3239725  71.0232220  15.8700176  99.1088610
  71.3534663  16.4987200  98.7765208  76.7176277  24.9506843 101.3553392
  76.6310251  25.1062269 102.2088171  76.2626757  25.5944919 100.9812797
  76.6379533  25.0682598 101.4260499  59.6199768  20.3203322  98.0913342
  59.7215905  21.1229483  98.4194317  60.4155655  20.1190658  97.7936422
  59.7527674  20.4089221  98.0948697  66.0516587  17.9059519 107.8550647
  65.8599784  17.9214653 108.7050071  66.9015183  18.1023193 107.8317302
  66.1492309  17.9373870 107.9773942  60.4363500  20.4350500 105.8334463
  60.2948992  19.5834441 105.9578971  60.7204064  20.4779161 105.0096669
  60.4571346  20.3150250 105.7302088  70.5902093  22.2717590  99.9778952
  70.3436807  22.1913341 100.8115741  70.9187216  21.4871058  99.7841479
  70.6023336  22.1443856 100.0726475  74.4850142  28.9800950 103.7665733
  74.3464501  29.6781996 104.2714475  73.7050139  28.8249606 103.4101915
  74.3493368  29.0601116 103.7892007  72.8228227  25.2797325 110.0188115
  72.8176265  24.4077142 110.0230541  73.5289221  25.4785494 109.5457570
  72.9273231  25.1801199 109.9495150  66.5499120  25.0074309 109.3901935
  66.6942496  25.5875517 108.7545045  66.8974769  25.3850606 110.0951789
  66.6226581  25.1495013 109.4000930  68.7219037  24.2064477 107.1727066
  67.9742351  24.3995492 106.7675344  68.8760563  23.3809697 106.9351188
  68.6341465  24.1129589 107.0772472  65.6226875  33.1977081 106.2562962
  65.7716439  32.6379997 105.6036366  66.4026877  33.2769083 106.6395480
  65.7600969  33.1262646 106.2159911  75.9803514  28.3379204  94.5282232
  75.6010323  27.5516342  94.5211522  75.3169760  28.8866061  94.3853876
  75.8261989  28.3024028  94.5063029  68.1480176  33.3691724 107.5347452
  68.0723847  32.7000534 108.0898241  68.0770035  34.0709512 108.0488119
  68.1260782  33.3736631 107.6924301  68.9620814  18.1015028 108.0622470
  69.4193428  18.8339002 108.1895262  69.0377143  17.6781493 108.8209726
  69.0411784  18.1472266 108.1923547  61.2053806  18.3480848 109.1511914
  60.6695995  17.7361206 109.4672681  61.2671570  18.9228984 109.8045580
  61.1349438  18.3427776 109.2947341  73.4348140  11.2804903 101.9316313
  73.5531708  11.7381367 101.1983616  73.2610316  10.4750165 101.6452531
  73.4267311  11.2298675 101.7817247  66.8403192  20.0917132 104.9064294
  66.0499267  19.9108592 105.2281630  67.2363815  19.3144085 104.8894589
  66.7820068  19.9504593 104.9516843  71.3269083  28.9204906  90.3471008
  72.0942068  28.9805031  89.9376860  70.8800392  28.3485348  89.8627326
  71.3742510  28.8441482  90.2148718  72.2246879  27.7259562 102.6323740
  71.5491880  27.4944794 103.1337127  72.2339255  27.1180745 102.0065845
  72.1265383  27.6018487 102.6139892  69.3541023  22.5677391 109.3887793
  69.2900164  23.4287348 109.2607930  69.4938210  22.2509384 108.5883344
  69.3656493  22.6477558 109.2516006  68.0360116  25.2609531 103.5303996
  67.6122366  25.4614030 102.7943014  67.8604972  24.4138379 103.6428296
  67.9470997  25.1658312 103.4377686  63.3242561  25.7561582  98.9631969
  63.4807181  25.6908385  99.8187961  63.6643155  26.5310135  98.7510648
  63.3975796  25.8610780  99.0586563  69.8621706  25.1319466  97.8325332
  70.4037252  24.6289847  98.2963952  70.1768265  25.0784660  97.0214817
  69.9886103  25.0498886  97.7809144  73.7338813  29.3422113 114.9452244
  74.5473679  29.0707262 115.1057376  73.5733780  29.0429653 114.1412440
  73.8308762  29.2577039 114.8497650  71.0110975  20.0255770 107.8847632
  71.2252945  19.3866684 107.3310986  70.3944875  20.4701594 107.4555494
  70.9516305  19.9965914 107.7398063  59.8976823  22.9396532  99.2792736
  60.2775788  23.3581077  98.6153003  59.3232188  23.5209988  99.5861579
  59.8688148  23.0874391  99.2269477  73.1750063  21.6344835 108.8230939
  72.3626745  21.3270726 108.9044112  73.6339998  21.1543835 109.3873651
  73.1230448  21.5181328 108.9185533  72.5855318  29.5124507  99.2707884
  72.2269973  29.6839150 100.0471916  72.0994029  29.9737713  98.7135882
  72.4614015  29.6063478  99.3033153  70.4025704  13.1355706 102.8734975
  69.5319262  13.1094427 102.8268284  70.6566045  12.9632898 102.0560821
  70.3119264  13.1065849 102.7455112  67.3743683  25.1923673  91.8108118
  67.6636208  25.9688555  92.0851692  67.4615482  24.6812404  92.5122617
  67.4297940  25.2315591  91.9550616  70.2703571  23.0404907 113.6059642
  70.7403202  23.6647023 113.9927516  70.3165451  22.3721882 114.1652856
  70.3471447  23.0339587 113.7459713  67.4274845  15.1461934 104.3308445
  66.9113333  14.4542126 104.4560024  66.8668773  15.8132711 104.2771044
  67.2681358  15.1425192 104.3414511  69.4967078  15.6854894 106.1601298
  69.1098831  15.7103926 106.9414828  69.0100015  15.1196573 105.7075815
  69.3679587  15.6050645 106.2089202  73.7460057  30.4028403 110.2175084
  74.3839778  29.9088599 109.8837541  73.1034149  30.3305804 109.6327311
  73.7454284  30.3187412 110.0817439  75.4717058  22.2517549 104.7841000
  75.0444666  22.1643898 104.0289100  74.8343110  22.3595325 105.3695844
  75.3146665  22.2550209 104.7586442  69.1624220  12.5721880 108.4511558
  69.7917338  13.1082180 108.1732628  69.3310082  12.4799239 109.3025124
  69.2802014  12.6383242 108.5360086  68.9638135  17.3593074 110.7237969
  69.7911564  17.0878223 110.7796584  68.9845981  18.1553916 111.0801788
  69.0890985  17.4372829 110.7853152  73.8014314  31.0948211 106.8580441
  74.5906692  30.7437276 106.9782523  73.9757912  31.9084600 106.5957075
  73.9434596  31.1634069 106.8368309  63.5407624  24.5056937 103.9108230
  62.6995631  24.4060811 104.1187124  63.7497632  25.2752417 104.2622551
  63.4472317  24.6048981 103.9935545  61.0183191  22.1276474 101.7392981
  60.6239889  22.2019486 100.9643090  60.4623308  22.5134421 102.2901343
  60.8786004  22.1958249 101.7060641  72.6548138  15.1057768 101.4196860
  72.8597732  15.0380076 102.2653857  72.3274562  15.9116589 101.3518037
  72.6363386  15.2143709 101.5356515  67.3524289  22.4338336 103.1605828
  67.0487427  21.8794325 103.7616235  66.6503710  22.6130546 102.6733862
  67.2040499  22.3783119 103.1775533  66.4090386  19.7438856  97.7250529
  66.6850121  19.0257769  97.3128097  67.0089056  20.3423776  97.5171636
  66.5383651  19.7259227  97.6331291  65.4142640  29.6488057 107.8677925
  65.3062995  29.6590119 108.7339983  65.6238422  30.4742838 107.6782879
  65.4292751  29.7729132 107.9682017  75.9081826  15.6589532 100.8999625
  75.2956140  16.1459935 101.2853357  76.0046001  14.9833023 101.4437276
  75.8319724  15.6307841 101.0378483  69.9100907  17.4152374  95.9997125
  70.3644653  17.5862934  96.7244969  70.3840953  16.8020484  95.5994900
  70.0469227  17.3503259  96.0470886  63.4316432  26.9000700 105.3299863
  62.8404366  27.5410198 105.3002878  64.1937456  27.3238317 105.3031163
  63.4564693  27.0576538 105.3215010  63.8277055  18.0602697 105.9967881
  64.2878537  18.1341627 106.7343004  63.8733162  18.8583951 105.6467702
  63.9027610  18.1896844 106.0540637  65.4760405  18.7269392 110.5639908
  65.0845970  18.0802739 110.9995685  65.6446268  19.3180827 111.1834163
  65.4431315  18.7183660 110.7202614  79.5506854  26.7306469 106.3277141
  79.6089978  27.1793118 107.0737118  78.9173321  27.1405282 105.8907221
  79.4658149  26.8580204 106.3729690  67.2513927  24.1194908  97.1042132
  67.9955972  24.5069184  97.3425082  67.3974623  23.2752333  97.2682620
  67.3824512  24.0525381  97.1636101  69.1693502  15.9145167 102.1373993
  68.3229547  16.0867975 102.0115343  69.1664635  15.1094511 102.4739821
  69.0440652  15.8206196 102.1685120  70.2391803  19.6920381 103.0036051
  69.7651757  19.1662143 103.5141362  70.6109939  19.1449854 102.4350913
  70.2241692  19.5336378 102.9951198  60.6164833  21.6891888 108.3719597
  61.4790446  21.5887597 108.2856927  60.2856616  21.1086597 107.8105169
  60.6950029  21.5883515 108.2765003  76.5028533  24.7522757 104.4142832
  76.2626756  23.9129172 104.4185258  76.9820541  24.8322924 105.1383605
  76.5380717  24.6404157 104.5217634  72.1675302  20.5856936  96.0661805
  71.6398321  20.6685680  95.3767514  72.6271011  21.3274807  96.0626450
  72.1577153  20.7077598  95.9636500  78.5033720  21.5324214 102.3672091
  78.2643490  21.4920048 101.5292875  78.6667622  22.3795366 102.4937812
  78.4924024  21.6516299 102.2625573  75.1079750  25.9174163 108.2977136
  75.8313949  25.4646690 108.1188156  74.8429713  26.1978829 107.5149464
  75.1761024  25.8925132 108.1555851  63.9766619  20.5134337 105.0330015
  63.3519689  20.5252729 104.4255968  63.6412214  20.9894512 105.6821255
  63.8352111  20.5852854 105.0386584  64.1608368  18.8559455  91.0902700
  63.8121172  19.5079181  91.5534249  63.6804813  18.8416568  90.3626571
  64.0378612  18.9502509  91.0513791  60.6892294  28.5734797 106.4733779
  60.1592219  27.8827236 106.5228754  60.9617388  28.5644982 105.6446488
  60.6517017  28.4701929 106.3581195  71.7212385  29.1560499  95.1971462
  72.4446584  29.6218612  95.0536035  71.2812976  29.2234109  94.4469059
  71.7628077  29.2344336  95.0656243  70.8898540  26.0158042 106.4472151
  70.2755533  25.4716092 106.7420786  71.4065825  25.5022278 105.9677967
  70.8754202  25.8594451 106.4196379  70.1294837  27.0862312 104.1816450
  69.7022445  26.4612030 103.7481885  70.1219782  26.8037234 105.0075457
  70.0653978  26.9515092 104.2396277  63.2457364  22.1227485 107.2504884
  63.4050851  21.3670809 107.6556605  63.0650258  22.6718424 107.9045621
  63.2422723  22.0921298 107.4067590  71.1877667  14.2888720 107.8055673
  70.6918229  14.4852395 107.1147240  71.9446729  14.6881389 107.6344475
  71.2264492  14.3766454 107.6775810  68.4580547  17.9631066 104.3958984
  68.4823034  17.4291179 103.7071764  68.7092020  17.4548375 105.0584574
  68.4990466  17.8091970 104.3923628  55.9688137  25.2462561 103.8302128
  55.8631586  25.2009406 102.9654212  55.2188357  25.5916342 104.1116413
  55.8423740  25.2903469 103.7439457  64.7381869  16.6901884 103.7764728
  64.7780241  17.1911091 104.4899435  63.9131534  16.7812278 103.5070651
  64.6221395  16.7783701 103.8415266  66.9211482  26.2562624 111.8785022
  66.0707113  26.3934339 112.0142667  67.0839610  25.5226403 112.3232724
  66.8195346  26.1676726 111.9640622  66.1596232  23.2062394 106.0738627
  65.3288162  23.3736212 105.8673875  66.1047750  22.8298345 106.8587512
  66.0285647  23.1752126 106.1587155  63.9680016  16.6971287 111.7095038
  64.5932719  16.1533420 111.9824470  63.5130496  16.2166205 111.1402828
  63.9928276  16.5460769 111.6656631  64.5332276  21.4817986  96.6028745
  64.6735237  21.9790450  97.3057386  65.0314809  20.7804280  96.7442958
  64.6273357  21.4519965  96.7280324  64.5632499  22.3485097  93.9321321
  65.1977578  22.9445522  93.8670783  64.6458109  22.0488554  94.7467192
  64.6689050  22.3926005  94.0424408  77.5415064  24.8800574 106.8007686
  78.1332905  25.5197825 106.8325884  77.9774059  24.1823611 107.0899752
  77.6933496  24.8718925 106.8488518  66.1411482  18.2799072  93.9066763
  66.4627323  17.8002155  93.2526026  66.4038425  19.0898718  93.7157575
  66.2277507  18.3288970  93.7822255  69.3708454  29.3017947 107.4265580
  68.8633545  29.8553793 107.8706210  69.0735101  29.3626236 106.6084354
  69.2513339  29.3924258 107.3714036  71.5370637  17.6671266 106.2690242
  71.9625708  17.2143793 105.6573769  70.9227630  17.1131337 106.5455030
  71.5099282  17.5185242 106.2195268  61.0685487  24.5452938  97.2010867
  61.5777716  25.1417445  97.5822173  61.5419759  24.2778911  96.5187287
  61.2128862  24.5938753  97.1565390  69.9764859  14.1386366  99.6780819
  69.3333177  13.9884012 100.2465958  69.6364266  13.8928711  98.9129924
  69.8309937  14.0798488  99.6483835  74.5664206  22.0945793  99.1010828
  73.8955396  22.6375495  98.9723894  75.2603956  22.5640648  98.8592523
  74.5693073  22.2444064  99.0466356  68.6150940  34.2342505 104.3322586
  68.3916594  33.4761334 104.7006613  68.1260783  34.2640526 103.6103026
  68.5094389  34.1264729 104.2799327  74.7292333  18.5501676 102.0101201
  75.0819943  18.1231399 102.6847000  73.8707135  18.4652520 102.1402278
  74.6541778  18.4746417 102.1296212  63.4276018  21.1809196 100.0684048
  62.7088007  21.5973329 100.3356911  63.7988381  21.7463435  99.5175686
  63.3767950  21.3258478 100.0266855  72.7275599  21.8137045 105.9586044
  72.7073526  21.6320340 106.8120822  72.7754800  22.6849064 105.9345627
  72.7310240  21.9153583 106.0809338  70.6721929  28.4024237 111.8834520
  70.6317784  27.7573914 111.2979676  71.4845247  28.3460854 112.1959932
  70.7865083  28.2983204 111.8431469  67.2629397  34.4542963 101.7859671
  66.8489795  33.7917093 101.3963513  67.9476771  34.6020822 101.2655365
  67.3027768  34.3783621 101.6516168  69.2022593  20.2207196  95.4057427
  68.6087432  20.5424193  94.8541994  69.2397870  19.3748291  95.1978533
  69.1196982  20.1431524  95.2940199  76.1616393  13.6720088 102.9385514
  75.6547258  12.9649228 102.8706691  76.9583827  13.3413277 103.0686590
  76.2043633  13.5193240 102.9484509  72.0780409  20.1786701  98.8359178
  71.8494102  20.2019402  97.9937536  72.3378485  19.3544168  98.9554188
  72.0826597  20.0602780  98.7284375  66.3599638  22.0321174 108.4384278
  65.8478541  21.4242357 108.7969309  66.1879134  22.7477766 108.9058254
  66.2589275  22.0484473 108.5600501  61.2065352  20.4758749 111.0886640
  61.0367943  21.1360124 110.5434846  60.7631302  20.6865310 111.8099129
  61.1164686  20.6044731 111.1148269  65.1325172  18.7163247 100.1313373
  65.6082538  19.0780327  99.4963554  64.6313771  19.3719714 100.4113516
  65.1290531  18.8657436 100.0790114  78.3636533  28.1885015  95.9226378
  78.7470139  28.9376371  96.1524475  77.5680647  28.4350835  95.6638367
  78.3030316  28.3354709  95.9183952  70.2368708  19.9545418 110.8786533
  70.7940138  19.7259228 110.2464999  69.9129773  20.7151084 110.6021746
  70.2715118  20.0329255 110.7443030  58.1067417  23.3805614 106.3475129
  57.5594136  22.7106260 106.4655998  58.8959795  23.0135462 106.4118597
  58.1419601  23.2270601 106.3743830  67.9551825  23.0413072 111.8438540
  68.7063152  23.3564748 112.1578095  68.1474402  22.8392242 111.0172462
  68.0943239  23.0580453 111.7681936  67.1751825  20.8604447  93.4986757
  67.5550790  20.8784076  92.7137872  66.4344421  21.3058435  93.3777604
  67.1220663  20.9286221  93.3650325  74.8037115  19.1686638  99.0862336
  74.8031342  19.0135294  99.9446612  74.5993296  20.0149625  99.0303721
  74.7736893  19.2707259  99.2050275  56.8654386  22.5926422 103.5021152
  56.6876147  22.1403031 104.2276068  56.5773409  23.3952584 103.6859630
  56.7967340  22.6448980 103.6364655  72.5277967  23.8484140 102.7398543
  73.0231633  23.1307135 102.7002563  71.7177743  23.5454937 102.6253030
  72.4821861  23.6981786 102.7172269  67.9736579  27.6981953  94.8895547
  67.1647902  27.3748626  94.8428857  68.4811488  26.9915175  94.8223796
  67.9286246  27.5463269  94.8725842  58.6026856  25.1254146 100.6142911
  57.7372376  25.1139836 100.5025683  58.7025672  24.9384369 101.4614051
  58.4901023  25.0960207 100.7231856  74.5929786  26.5987827 105.4275671
  75.0184858  26.0762249 104.8746097  74.2286706  27.1968665 104.9064294
  74.6016389  26.6098054 105.2684681  64.2283866  34.8952045 104.1873017
  64.5430425  35.7088433 104.1950799  64.6377280  34.5102263 104.8555176
  64.3351964  34.9580747 104.2877109  71.1808386  30.3122091 101.7576829
  71.6519564  31.0262354 101.9266814  71.5168564  29.7120842 102.2936698
  71.3003501  30.3293556 101.8609205  73.2685370  31.9223405 113.9368901
  73.3782336  31.1331965 114.2925648  73.5976267  31.8329341 113.1343239
  73.3337776  31.7929258 113.8711292  68.0977881  15.0849562 108.7134924
  68.2305786  14.2880555 109.0415899  68.4823034  15.6115965 109.2933199
  68.1734210  15.0449479 108.8478427  71.8182332  30.1040026 108.5204522
  71.2703278  29.4797909 108.2524587  72.2795361  30.2934298 107.8048601
  71.8049542  30.0399076 108.3754953  71.1710236  12.0079888 105.3116017
  70.3656200  11.8977618 105.6283855  71.0416971  12.1092344 104.4545883
  71.0330369  12.0063558 105.2324057  74.6276196  18.1725380 105.9055714
  74.0439185  18.6734587 105.4933281  74.9480491  17.6654936 105.2720037
  74.5889372  18.1717215 105.7514221  67.1670996  17.0865975  96.1814389
  67.9886690  17.2564288  95.9396084  66.7040647  17.2413236  95.4580686
  67.2202158  17.1347708  96.0386033  65.7566328  15.0808737 106.9612817
  66.3010741  14.7399864 107.5517159  65.8103263  15.9394199 107.1034102
  65.8455447  15.1563996 107.0694691  61.5696886  28.8425153 103.8351625
  62.1741744  28.8020987 103.2065446  61.3624199  29.6896305 103.8655681
  61.6285784  28.9613156 103.7467742  71.3840658  31.1091098 105.0513863
  72.2039032  30.9654064 105.3130158  71.1034736  31.7337297 105.5930301
  71.4637402  31.1801450 105.1701802  56.8048169  27.8259771 103.7050549
  56.7072447  27.0156042 104.0140605  57.5877038  27.8051564 103.3196817
  56.9064305  27.7026861 103.6937411  87.8554309  38.7655950  98.0156739
  87.8248313  39.6200587  98.1875009  88.4535658  38.4651243  98.5742883
  87.9391467  38.8472447  98.1231541  81.0553994  37.8531601 102.7709670
  80.1991889  38.0140099 102.8218786  81.1021647  36.9823665 102.7914731
  80.9353105  37.7482403 102.7815736  84.3647710  44.1218127 112.3770126
  85.0714477  43.6270157 112.5057060  84.5535646  44.5627208 111.6472784
  84.4975616  44.1136477 112.2879171  80.8920093  47.8119688  93.9632448
  80.5571462  48.4896610  93.5276670  81.4046964  47.4225000  93.3749320
  80.9185674  47.8544267  93.8119240  83.9005815  39.9123645 105.4141321
  84.4461775  40.5908731 105.4735291  83.8422691  39.7711106 104.5542903
  83.9721729  39.9915647 105.2953382  85.6770883  41.3408252  96.2875049
  85.5610409  42.0915938  96.7167187  86.4726770  41.0832205  96.5371136
  85.7775473  41.4143099  96.3879141  79.7990852  43.7188715  97.6458570
  80.2384488  43.1105815  98.0913342  79.6495515  43.3396088  96.8744035
  79.8412318  43.5727186  97.5977737  79.8048587  45.1587633 104.4984288
  80.0871830  44.3639038 104.2771043  80.5334747  45.6368220 104.5189349
  79.9538150  45.1122230 104.4687303  83.4000189  42.0715896  94.5989339
  83.3151484  42.9276863  94.7438908  83.8884572  41.7960220  95.2671498
  83.4589086  42.1573218  94.7191420  84.9906188  28.6896189  99.9849663
  84.6759629  29.3799668 100.4170086  84.4733130  28.6340972  99.2835164
  84.8670659  28.7831078  99.9446612  84.3318622  38.6900690  96.0987074
  83.8030094  38.9060324  96.7584380  84.8543642  39.3836829  96.0188043
  84.3307075  38.8243827  96.1842673  89.7866675  44.2646995 101.4720118
  88.9564378  44.4757639 101.6353535  89.7375927  43.4384049 101.1962402
  89.6573410  44.1736601 101.4557484  77.8476413  47.0950849 104.3068028
  77.3303354  46.7358264 103.7029336  78.5450804  46.5713023 104.3174094
  77.8741994  46.9648537 104.2198287  81.5040005  47.5445663 110.2684201
  81.5923350  47.3571804 111.1162411  81.9329717  46.8983093 109.8689048
  81.5802107  47.4208671 110.3355952  79.0710464  46.8276823 109.2501863
  78.5081299  46.4149433 109.7741524  79.8331488  46.7529729 109.6695006
  79.1004913  46.7554224 109.3894863  80.6795444  38.8329559  93.3763463
  80.9191448  39.0407543  92.5638806  81.0011285  38.0287068  93.4852407
  80.7632602  38.7443660  93.2724016  89.2820633  36.9117396 105.2670540
  88.4449054  36.9819583 105.5018134  89.2508864  36.9141890 104.3944842
  89.1538916  36.9227623 105.1730088  75.6785362  39.0550431 110.9818908
  75.8505866  38.9456326 111.8304190  76.2154720  39.7004837 110.7450101
  75.7830366  39.1342433 111.0724005  74.3442799  33.1693274  93.9201113
  74.1618372  33.3865155  93.0942106  75.2068412  33.2832287  93.9759728
  74.4447389  33.2183172  93.8055600  73.9557231  45.0081196 101.3624101
  74.7946131  45.2404129 101.4097863  73.9869000  44.1385508 101.2931137
  74.0838949  44.9138143 101.3588746  74.5809934  45.4282071 105.6637407
  75.1208159  45.2853202 106.3340779  73.8979880  45.8278822 106.0321433
  74.5602088  45.4661742 105.8171829  84.0050819  41.1073072 100.8582431
  84.7608334  41.5404586 100.8971340  84.1113144  40.4577842 101.4317067
  84.1320990  41.0750556 100.9480457  87.0430990  44.9346349 101.6084834
  86.6066222  44.9383092 102.3643806  86.7093906  45.6151848 101.1764412
  86.9293610  45.0358805 101.6565667  81.6160064  46.9754682 112.9327985
  82.4000480  47.0885530 113.2983727  81.4156658  46.1495819 113.1286670
  81.7026089  46.8701402 113.0162371  86.9628473  31.9760177 103.8514262
  87.6054382  32.0458282 104.4376177  87.2151494  31.3089400 103.3493804
  87.0950605  31.8886526 103.8641541  74.7345686  35.1860741 108.4638836
  74.0417482  34.7157720 108.7099568  75.3506013  34.9599045 109.0380543
  74.7230216  35.0827872 108.5847989  81.7730457  48.8864784 106.5794440
  80.9745703  48.6464284 106.8368309  82.2216469  48.9379177 107.3261488
  81.7205068  48.8587175 106.7279364  90.1775336  41.6527269 100.5004471
  90.8391771  41.0917938 100.4000380  89.5366748  41.1579300 100.8257163
  90.1804204  41.4963678 100.5336812  81.0652144  44.9497401  92.8085395
  81.4803293  44.6182424  92.1169890  80.2344074  44.7166303  92.6805531
  81.0040153  44.8668657  92.6876242  86.4640167  42.6692652 100.2416460
  86.6995756  42.8137850  99.4143311  86.6129731  43.4335060 100.6347974
  86.5205970  42.8031706 100.1780064  73.4586245  39.1526144 109.6065681
  74.1826217  39.1379175 110.0930576  73.5602381  39.8621500 109.1087650
  73.5804454  39.2550848 109.6044468  88.2930624  41.5094318  98.0786064
  88.6238841  42.0421958  97.4726159  88.8663712  41.5633205  98.7348015
  88.4264303  41.5963886  98.0863846  80.8331194  42.6325229 114.4714628
  80.0404175  42.9468741 114.6567248  80.9480121  42.8476698 113.6335413
  80.7326605  42.7109066 114.3752963  83.5062513  39.3559220  98.7609644
  83.6009367  40.0948514  99.2149270  82.8821357  38.9276696  99.1944209
  83.4271543  39.4020541  98.8917792  81.7614987  42.5345433 109.4099925
  82.3353848  41.8972677 109.5648489  81.6829791  42.5349515 108.5409583
  81.8348222  42.4410544 109.3046336  83.7585534  41.2007960  91.9946596
  83.6765697  41.2710147  92.8601583  84.3965255  41.7637704  91.8030337
  83.8405372  41.2946931  92.0936546  82.1979756  33.0697149 101.5625215
  81.4936082  32.5806334 101.7209134  82.2464730  33.0819623 100.6913660
  82.1009807  32.9986797 101.4564555  79.7586706  36.9929810 106.8078396
  79.3701139  36.5684027 106.1530587  79.0941405  37.2411959 107.3155422
  79.6033634  36.9668531 106.7866264  89.4009975  36.7504814  99.5826226
  89.1446540  35.9384756  99.3924108  90.2439289  36.7582382  99.3556413
  89.4876001  36.6316812  99.5211043  65.8370236  38.1646535  99.9630458
  65.9230488  37.7878404 100.7443988  66.4646034  37.7906981  99.4850416
  65.9426787  38.0532017 100.0075935  83.5813068  30.6904438 104.3202380
  83.9623580  30.0082610 104.7070254  82.7776352  30.4014041 104.1378044
  83.5189529  30.5471487 104.3506436  87.0835135  43.9054410 109.4184778
  86.8473772  43.0742475 109.2996839  87.7278364  43.8540018 110.0039622
  87.1429805  43.7752098 109.4870672  71.4246195  46.9338268 104.0161818
  71.4650340  47.2053119 103.1881598  71.9840719  47.4580176 104.4319606
  71.5129541  47.0514023 103.9553707  77.5404908  33.1958637 114.1864988
  77.2258349  33.9658199 113.9234551  77.2194841  32.6328893 113.6017215
  77.4463827  33.2268905 114.0606338  88.1071555  43.6898859 105.4813073
  87.8017372  44.4226916 105.8426388  87.3877771  43.2836789 105.2005859
  87.9558898  43.7380592 105.4926210  79.1155025  45.1722354 101.8121301
  79.1894033  45.0097526 102.6663151  79.9324531  45.3612544 101.5681783
  79.2471383  45.1759097 101.9019327  93.8073347  40.3291860 104.8081417
  93.7397848  40.3487819 103.9384004  93.7929010  41.1722187 105.0337088
  93.7952104  40.4565595 104.7133894  84.2169694  31.7327018 108.1322506
  84.9623286  31.5436828 107.7185932  83.8006999  32.2585256 107.5736363
  84.2654668  31.7829163 107.9887080  91.5931965  39.1036246 103.0828011
  92.1439886  38.4704315 103.3225103  91.5776080  39.6351639 103.7743516
  91.6717161  39.0885194 103.2206870  78.2454356  42.9374843 107.6287905
  77.7466049  43.6490611 107.7072793  79.0554580  43.2575510 107.5906067
  78.2910462  43.0901692 107.6344473  85.2960371  37.3432580 102.1932608
  84.9525137  36.6222915 102.5439857  85.3953414  37.1346431 101.3510966
  85.2602414  37.2056783 102.1204288  85.7573400  43.8058284  97.7356596
  86.3231433  44.4651494  97.6515139  85.1101303  44.1507982  98.2072998
  85.7452156  43.9540225  97.7929352  77.1721414  35.7955888 112.9250203
  76.3621189  36.1013667 112.8140045  77.6496100  36.5161470 113.0402787
  77.1224892  35.9470489 112.9257274  76.0312973  45.0101609 103.1733106
  75.5093727  45.1501900 103.8584971  76.4186993  44.2512273 103.3635224
  76.0116674  44.9187133 103.3034183  82.2279978  46.7497068  97.1593675
  81.9866654  46.0164929  96.7520740  82.4081311  47.2983925  96.5060008
  82.2187602  46.7219459  97.0023898  83.8151336  35.2624165 104.0692150
  82.9762437  35.2885443 103.8330414  83.8855704  35.9094900 104.6497497
  83.7019730  35.3620290 104.1201267  73.5065445  41.3318438 107.7949605
  74.0186542  41.6102691 107.1458365  73.2201788  42.0707732 108.1612418
  73.5400309  41.4820792 107.7539483  82.2620615  32.1609542  98.8019766
  82.9646967  31.9617290  98.3239725  81.9964803  31.3885484  99.1088610
  82.3267247  32.0172508  98.7765208  87.6908860  40.4692151 101.3553392
  87.6042835  40.6247577 102.2088171  87.2359340  41.1130227 100.9812797
  87.6112117  40.5867906 101.4260499  77.0249171  33.4244827 107.8550647
  76.8332368  33.4399961 108.7050071  77.8747767  33.6208501 107.8317302
  77.1224893  33.4559178 107.9773942  85.4582725  44.4986258 103.7665733
  85.3197084  45.1967304 104.2714475  84.6782723  44.3434914 103.4101915
  85.3225952  44.5786424 103.7892007  83.7960810  40.7982633 110.0188115
  83.7908849  39.9262450 110.0230541  84.5021804  40.9970802 109.5457570
  83.9005814  40.6986507 109.9495150  77.5231704  40.5259617 109.3901935
  77.6675079  41.1060825 108.7545045  77.8707352  40.9035914 110.0951789
  77.5959165  40.6680321 109.4000930  79.6951621  39.7249785 107.1727066
  78.9474935  39.9180800 106.7675344  79.8493146  38.8995005 106.9351188
  79.6074049  39.6314897 107.0772472  76.5959459  48.7162389 106.2562962
  76.7449022  48.1565305 105.6036366  77.3759461  48.7954391 106.6395480
  76.7333552  48.6447954 106.2159911  86.9536098  43.8564512  94.5282232
  86.5742907  43.0701649  94.5211522  86.2902343  44.4051369  94.3853876
  86.7994573  43.8209335  94.5063029  79.1212759  48.8877032 107.5347452
  79.0456430  48.2185842 108.0898241  79.0502618  49.5894820 108.0488119
  79.0993366  48.8921939 107.6924301  79.9353398  33.6200336 108.0622470
  80.3926012  34.3524310 108.1895262  80.0109727  33.1966801 108.8209726
  80.0144368  33.6657574 108.1923547  72.1786389  33.8666156 109.1511914
  71.6428579  33.2546514 109.4672681  72.2404154  34.4414292 109.8045580
  72.1082022  33.8613084 109.2947341  84.4080724  26.7990211 101.9316313
  84.5264292  27.2566675 101.1983616  84.2342900  25.9935472 101.6452531
  84.3999895  26.7483983 101.7817247  83.1979462  43.2444870 102.6323740
  82.5224464  43.0130102 103.1337127  83.2071838  42.6366053 102.0065845
  83.0997967  43.1203795 102.6139892  80.3273606  38.0862699 109.3887793
  80.2632747  38.9472656 109.2607930  80.4670794  37.7694692 108.5883344
  80.3389076  38.1662866 109.2516006  85.1996197  46.1010003  94.8633918
  85.2816034  46.9076989  94.5395369  85.6845939  46.1205962  95.5874692
  85.2833355  46.2230665  94.9220817  79.0092700  40.7794838 103.5303996
  78.5854949  40.9799338 102.7943014  78.8337555  39.9323686 103.6428296
  78.9203581  40.6843620 103.4377686  78.5104393  52.2945351 105.9925453
  79.0000324  51.5956141 105.8101118  77.9388626  51.9969221 106.5801511
  78.4988923  52.1471575 106.0526494  84.7071397  44.8607421 114.9452244
  85.5206262  44.5892570 115.1057376  84.5466363  44.5614961 114.1412440
  84.8041345  44.7762347 114.8497650  79.0040739  46.0422125  95.1165360
  79.0733560  45.1836663  95.2558360  79.7829194  46.2594006  94.7884384
  79.1293589  45.9474989  95.0882517  81.9843559  35.5441078 107.8847632
  82.1985529  34.9051992 107.3310986  81.3677458  35.9886902 107.4555494
  81.9248888  35.5151222 107.7398063  83.3948227  48.4659826  99.3301853
  83.0028019  48.1626541  98.6124719  83.5501299  49.3028916  99.1406807
  83.3601817  48.5443663  99.1958350  84.1482647  37.1530143 108.8230939
  83.3359329  36.8456034 108.9044112  84.6072582  36.6729143 109.3873651
  84.0963032  37.0366636 108.9185533  83.5587902  45.0309815  99.2707884
  83.2002556  45.2024458 100.0471916  83.0726612  45.4923021  98.7135882
  83.4346599  45.1248786  99.3033153  81.3758288  28.6541014 102.8734975
  80.5051846  28.6279735 102.8268284  81.6298629  28.4818206 102.0560821
  81.2851848  28.6251157 102.7455112  81.2436155  38.5590215 113.6059642
  81.7135786  39.1832331 113.9927516  81.2898035  37.8907190 114.1652856
  81.3204030  38.5524895 113.7459713  80.4699662  31.2040202 106.1601298
  80.0831415  31.2289234 106.9414828  79.9832599  30.6381881 105.7075815
  80.3412171  31.1235953 106.2089202  84.7192641  45.9213711 110.2175084
  85.3572362  45.4273907 109.8837541  84.0766733  45.8491112 109.6327311
  84.7186868  45.8372720 110.0817439  86.4449641  37.7702857 104.7841000
  86.0177249  37.6829206 104.0289100  85.8075694  37.8780633 105.3695844
  86.2879248  37.7735517 104.7586442  80.1356803  28.0907188 108.4511558
  80.7649921  28.6267488 108.1732628  80.3042666  27.9984547 109.3025124
  80.2534598  28.1568550 108.5360086  79.9370718  32.8778382 110.7237969
  80.7644148  32.6063531 110.7796584  79.9578564  33.6739224 111.0801788
  80.0623568  32.9558137 110.7853152  84.7746898  46.6133519 106.8580441
  85.5639276  46.2622584 106.9782523  84.9490495  47.4269908 106.5957075
  84.9167179  46.6819377 106.8368309  83.6280722  30.6243076 101.4196860
  83.8330315  30.5565384 102.2653857  83.3007146  31.4301897 101.3518037
  83.6095970  30.7329017 101.5356515  76.3875224  45.1673365 107.8677925
  76.2795579  45.1775427 108.7339983  76.5971005  45.9928145 107.6782879
  76.4025335  45.2914440 107.9682017  86.8814410  31.1774840 100.8999625
  86.2688723  31.6645242 101.2853357  86.9778584  30.5018331 101.4437276
  86.8052307  31.1493149 101.0378483  80.8833491  32.9337681  95.9997125
  81.3377237  33.1048242  96.7244969  81.3573536  32.3205792  95.5994900
  81.0201811  32.8688567  96.0470886  76.4492988  34.2454700 110.5639908
  76.0578554  33.5988047 110.9995685  76.6178851  34.8366135 111.1834163
  76.4163899  34.2368968 110.7202614  90.5239437  42.2491777 106.3277141
  90.5822561  42.6978426 107.0737118  89.8905905  42.6590590 105.8907221
  90.4390733  42.3765512 106.3729690  84.1638532  47.8695319 102.7631887
  83.9658221  48.3586133 102.0688099  83.5426243  48.0736561 103.3416021
  84.0426097  47.9711857 102.7455111  81.2124386  35.2105689 103.0036051
  80.7384341  34.6847451 103.5141362  81.5842522  34.6635162 102.4350913
  81.1974275  35.0521686 102.9951198  71.5897416  37.2077196 108.3719597
  72.4523030  37.1072905 108.2856927  71.2589200  36.6271905 107.8105169
  71.6682613  37.1068823 108.2765003  87.4761117  40.2708065 104.4142832
  87.2359340  39.4314480 104.4185258  87.9553124  40.3508232 105.1383605
  87.5113301  40.1589465 104.5217634  83.1407886  36.1042244  96.0661805
  82.6130905  36.1870988  95.3767514  83.6003594  36.8460115  96.0626450
  83.1309736  36.2262906  95.9636500  89.4766304  37.0509522 102.3672091
  89.2376074  37.0105356 101.5292875  89.6400205  37.8980674 102.4937812
  89.4656607  37.1701607 102.2625573  86.0812334  41.4359471 108.2977136
  86.8046533  40.9831998 108.1188156  85.8162296  41.7164137 107.5149464
  86.1493607  41.4110440 108.1555851  75.1340951  34.3744763  91.0902700
  74.7853755  35.0264489  91.5534249  74.6537397  34.3601876  90.3626571
  75.0111195  34.4687817  91.0513791  71.6624878  44.0920105 106.4733779
  71.1324803  43.4012544 106.5228754  71.9349971  44.0830290 105.6446488
  71.6249600  43.9887237 106.3581195  82.6944969  44.6745807  95.1971462
  83.4179167  45.1403920  95.0536035  82.2545560  44.7419417  94.4469059
  82.7360661  44.7529644  95.0656243  81.8631124  41.5343350 106.4472151
  81.2488117  40.9901400 106.7420786  82.3798409  41.0207586 105.9677967
  81.8486786  41.3779759 106.4196379  81.1027421  42.6047620 104.1816450
  80.6755029  41.9797338 103.7481885  81.0952365  42.3222541 105.0075457
  81.0386562  42.4700400 104.2396277  82.1610251  29.8074028 107.8055673
  81.6650812  30.0037702 107.1147240  82.9179313  30.2066696 107.6344475
  82.1997076  29.8951762 107.6775810  77.8944066  41.7747932 111.8785022
  77.0439696  41.9119647 112.0142667  78.0572193  41.0411711 112.3232724
  77.7927929  41.6862034 111.9640622  77.1328816  38.7247702 106.0738627
  76.3020746  38.8921520 105.8673875  77.0780333  38.3483653 106.8587512
  77.0018231  38.6937433 106.1587155  74.9412599  32.2156595 111.7095038
  75.5665303  31.6718728 111.9824470  74.4863079  31.7351513 111.1402828
  74.9660860  32.0646076 111.6656631  88.5147648  40.3985882 106.8007686
  89.1065488  41.0383133 106.8325884  88.9506643  39.7008919 107.0899752
  88.6666079  40.3904232 106.8488518  80.3441038  44.8203255 107.4265580
  79.8366129  45.3739101 107.8706210  80.0467684  44.8811544 106.6084354
  80.2245923  44.9109566 107.3714036  82.5103220  33.1856574 106.2690242
  82.9358292  32.7329101 105.6573769  81.8960213  32.6316645 106.5455030
  82.4831865  33.0370550 106.2195268  82.9548818  48.7366512  95.3569523
  82.2378128  48.5627374  94.8916760  83.6055556  48.5019085  94.8245009
  82.9450669  48.6762305  95.2098741  80.9497443  29.6571674  99.6780819
  80.3065761  29.5069320 100.2465958  80.6096850  29.4114019  98.9129924
  80.8042520  29.5983796  99.6483835  85.5396789  37.6131101  99.1010828
  84.8687979  38.1560803  98.9723894  86.2336540  38.0825956  98.8592523
  85.5425657  37.7629372  99.0466356  79.5883523  49.7527813 104.3322586
  79.3649178  48.9946642 104.7006613  79.0993366  49.7825834 103.6103026
  79.4826972  49.6450037 104.2799327  85.7024917  34.0686984 102.0101201
  86.0552527  33.6416707 102.6847000  84.8439718  33.9837828 102.1402278
  85.6274362  33.9931725 102.1296212  83.7008183  37.3322353 105.9586044
  83.6806110  37.1505648 106.8120822  83.7487383  38.2034371 105.9345627
  83.7042824  37.4338891 106.0809338  81.6454513  43.9209545 111.8834520
  81.6050367  43.2759222 111.2979676  82.4577831  43.8646162 112.1959932
  81.7597666  43.8168512 111.8431469  81.6027274  49.1318356 102.5383288
  81.2043557  49.2420626 101.7704108  80.9878494  49.3400422 103.1209847
  81.4526164  49.1791924 102.5114587  87.1348977  29.1905396 102.9385514
  86.6279842  28.4834536 102.8706691  87.9316411  28.8598585 103.0686590
  87.1776216  29.0378548 102.9484509  83.0512993  35.6972008  98.8359178
  82.8226686  35.7204710  97.9937536  83.3111069  34.8729475  98.9554188
  83.0559181  35.5788088  98.7284375  77.3332221  37.5506481 108.4384278
  76.8211124  36.9427664 108.7969309  77.1611717  38.2663074 108.9058254
  77.2321858  37.5669781 108.5600501  72.1797936  35.9944057 111.0886640
  72.0100526  36.6545432 110.5434846  71.7363886  36.2050618 111.8099129
  72.0897270  36.1230039 111.1148269  89.3369117  43.7070323  95.9226378
  89.7202723  44.4561679  96.1524475  88.5413230  43.9536143  95.6638367
  89.2762899  43.8540017  95.9183952  81.2101292  35.4730726 110.8786533
  81.7672722  35.2444536 110.2464999  80.8862357  36.2336392 110.6021746
  81.2447702  35.5514563 110.7443030  78.9284409  38.5598379 111.8438540
  79.6795736  38.8750056 112.1578095  79.1206985  38.3577550 111.0172462
  79.0675823  38.5765761 111.7681936  85.7769699  34.6871946  99.0862336
  85.7763925  34.5320602  99.9446612  85.5725879  35.5334933  99.0303721
  85.7469477  34.7892567  99.2050275  83.5010551  39.3669448 102.7398543
  83.9964216  38.6492443 102.7002563  82.6910327  39.0640245 102.6253030
  83.4554444  39.2167094 102.7172269  85.5662370  42.1173135 105.4275671
  85.9917441  41.5947557 104.8746097  85.2019290  42.7153972 104.9064294
  85.5748972  42.1283362 105.2684681  75.2016450  50.4137353 104.1873017
  75.5163009  51.2273741 104.1950799  75.6109863  50.0287571 104.8555176
  75.3084548  50.4766055 104.2877109  82.1540969  45.8307399 101.7576829
  82.6252148  46.5447662 101.9266814  82.4901148  45.2306149 102.2936698
  82.2736084  45.8478864 101.8609205  84.2417954  47.4408713 113.9368901
  84.3514919  46.6517273 114.2925648  84.5708851  47.3514649 113.1343239
  84.3070360  47.3114566 113.8711292  79.0710464  30.6034870 108.7134924
  79.2038370  29.8065863 109.0415899  79.4555617  31.1301273 109.2933199
  79.1466793  30.5634787 108.8478427  82.7914916  45.6225333 108.5204522
  82.2435862  44.9983217 108.2524587  83.2527944  45.8119606 107.8048601
  82.7782125  45.5584384 108.3754953  82.1442819  27.5265196 105.3116017
  81.3388783  27.4162926 105.6283855  82.0149555  27.6277652 104.4545883
  82.0062952  27.5248866 105.2324057  85.6008780  33.6910688 105.9055714
  85.0171769  34.1919894 105.4933281  85.9213074  33.1840244 105.2720037
  85.5621955  33.6902523 105.7514221  76.7298911  30.5994045 106.9612817
  77.2743324  30.2585172 107.5517159  76.7835847  31.4579507 107.1034102
  76.8188031  30.6749304 107.0694691  82.3573242  46.6276406 105.0513863
  83.1771616  46.4839372 105.3130158  82.0767320  47.2522605 105.5930301
  82.4369985  46.6986758 105.1701802  98.8286892  54.2841258  98.0156739
  98.7980897  55.1385895  98.1875009  99.4268241  53.9836550  98.5742883
  98.9124050  54.3657754  98.1231541  92.0286577  53.3716909 102.7709670
  91.1724473  53.5325407 102.8218786  92.0754231  52.5008973 102.7914731
  91.9085689  53.2667711 102.7815736  86.4127717  62.9079627  98.5346901
  85.6610616  62.5295165  98.3062946  86.8613729  62.9398060  97.7865711
  86.3677384  62.8565234  98.3904403  95.3380294  59.6403435 112.3770126
  96.0447061  59.1455465 112.5057060  95.5268229  60.0812516 111.6472784
  95.4708199  59.6321785 112.2879171  91.4056968  65.2819265  99.9043560
  91.7896347  65.8506164  99.3648335  91.3416109  64.5568775  99.4249376
  91.4530395  65.2594728  99.7537422  94.8738398  55.4308953 105.4141321
  95.4194358  56.1094039 105.4735291  94.8155275  55.2896414 104.5542903
  94.9454313  55.5100955 105.2953382  87.9912473  62.9198019 100.8009674
  88.0922836  62.1098373 101.1106801  87.3954218  62.8254965 100.1709352
  87.9185012  62.7863047 100.7535912  96.6503467  56.8593560  96.2875049
  96.5342993  57.6101246  96.7167187  97.4459354  56.6017513  96.5371136
  96.7508056  56.9328407  96.3879141  87.8313213  67.8375608 102.2024530
  88.4750668  68.2788772 102.5920688  88.1569468  67.0329034 102.1154788
  87.9745041  67.7840803 102.2470007  81.1877517  58.9418305 100.4262007
  80.9527702  58.1085958 100.3194276  81.3263158  59.2222971  99.6123208
  81.1733180  58.8601809 100.2904362  83.4867605  51.1104036 103.3246315
  82.8672636  50.5196683 103.1556330  83.3851468  51.7015471 102.6910638
  83.3805280  51.1108119 103.2051305  88.5333792  60.8487583  97.5744391
  88.8549633  61.3892790  96.9705699  89.1805889  60.2784354  97.7066681
  88.6759848  60.8446758  97.5051427  90.5835500  52.8503578  97.6578778
  91.2815665  53.0291705  98.1500241  90.8987833  52.3273917  97.0349167
  90.7330838  52.7997350  97.6380788  83.2136738  54.6556318 105.5689884
  83.0895435  55.2418763 106.2039703  83.8655022  54.1616514 105.8702159
  83.2910387  54.6695122 105.7075813  90.7723436  59.2374023  97.6458570
  91.2117071  58.6291123  98.0913342  90.6228099  58.8581396  96.8744035
  90.8144902  59.0912494  97.5977737  88.2395079  57.8318035 104.8477395
  88.8844081  57.3390478 104.5288344  88.4796856  57.9742821 105.6743473
  88.3705664  57.7795477 104.9226928  90.7781170  60.6772941 104.4984288
  91.0604413  59.8824346 104.2771043  91.5067331  61.1553528 104.5189349
  90.9270734  60.6307538 104.4687303  88.7562364  48.2195975 101.7400053
  88.4265694  48.6707118 101.0703751  88.0807366  48.1412138 102.2873059
  88.6072800  48.2747110 101.7223276  94.3732772  57.5901204  94.5989339
  94.2884068  58.4462171  94.7438908  94.8617156  57.3145528  95.2671498
  94.4321670  57.6758526  94.7191420  95.9638772  44.2081497  99.9849663
  95.6492213  44.8984976 100.4170086  95.4465714  44.1526280  99.2835164
  95.8403242  44.3016386  99.9446612  95.3051206  54.2085998  96.0987074
  94.7762677  54.4245632  96.7584380  95.8276226  54.9022137  96.0188043
  95.3039659  54.3429135  96.1842673 100.7599259  59.7832303 101.4720118
  99.9296962  59.9942946 101.6353535 100.7108511  58.9569357 101.1962402
 100.6305994  59.6921909 101.4557484  82.7494842  63.8203976 101.7018213
  82.2662420  64.5454466 101.6777797  83.5618160  64.1180106 101.8128371
  82.7985590  63.9706330 101.7145493  88.8208996  62.6136157 104.3068028
  88.3035938  62.2543572 103.7029336  89.5183387  62.0898331 104.3174094
  88.8474577  62.4833845 104.2198287  92.4772588  63.0630971 110.2684201
  92.5655934  62.8757111 111.1162411  92.9062301  62.4168401 109.8689048
  92.5534690  62.9393979 110.3355952  90.0443048  62.3462131 109.2501863
  89.4813883  61.9334741 109.7741524  90.8064071  62.2715037 109.6695006
  90.0737496  62.2739532 109.3894863  91.6528028  54.3514867  93.3763463
  91.8924032  54.5592851  92.5638806  91.9743869  53.5472376  93.4852407
  91.7365186  54.2628968  93.2724016  86.9618318  46.2808263  97.2223000
  87.7164286  46.6486580  96.9840051  86.7845853  46.6547817  97.9902180
  87.0472797  46.3906451  97.3007889  85.6039039  64.3360152 101.8538493
  86.3059619  63.8212141 101.9111250  85.5236522  64.6634304 102.6585368
  85.6962800  64.3074378 101.9811285 100.2553217  52.4302703 105.2670540
  99.4181638  52.5004891 105.5018134 100.2241448  52.4327198 104.3944842
 100.1271499  52.4412930 105.1730088  86.6517946  54.5735739 110.9818908
  86.8238450  54.4641634 111.8304190  87.1887303  55.2190145 110.7450101
  86.7562950  54.6527741 111.0724005  85.3175383  48.6878582  93.9201113
  85.1350956  48.9050463  93.0942106  86.1800996  48.8017595  93.9759728
  85.4179972  48.7368480  93.8055600  84.9289815  60.5266504 101.3624101
  85.7678714  60.7589437 101.4097863  84.9601584  59.6570816 101.2931137
  85.0571532  60.4323451 101.3588746  85.5542518  60.9467379 105.6637407
  86.0940743  60.8038510 106.3340779  84.8712464  61.3464130 106.0321433
  85.5334672  60.9847050 105.8171829  90.9975102  45.6904993  96.9550137
  91.7261262  45.5120948  96.5088294  91.0869995  46.5323072  97.1657315
  91.1181764  45.7888871  96.9203655  94.9783403  56.6258380 100.8582431
  95.7340918  57.0589894 100.8971340  95.0845727  55.9763150 101.4317067
  95.1053573  56.5935864 100.9480457  98.0163574  60.4531657 101.6084834
  97.5798806  60.4568400 102.3643806  97.6826489  61.1337156 101.1764412
  97.9026194  60.5544113 101.6565667  92.5892647  62.4939990 112.9327985
  93.3733064  62.6070838 113.2983727  92.3889242  61.6681127 113.1286670
  92.6758673  62.3886709 113.0162371  80.9579663  57.1667670 105.8171828
  80.6918078  56.3506787 105.9762819  80.9718227  57.2120826 104.9467344
  80.9204385  57.0524575 105.7125310  97.9361057  47.4945485 103.8514262
  98.5786965  47.5643590 104.4376177  98.1884077  46.8274708 103.3493804
  98.0683189  47.4071834 103.8641541  84.8637410  51.9652755  92.4323586
  84.1495587  51.6790934  92.8446019  85.3481379  52.3049380  93.0729974
  84.8296773  51.9734404  92.5879221  85.7078269  50.7046048 108.4638836
  85.0150066  50.2343028 108.7099568  86.3238597  50.4784353 109.0380543
  85.6962799  50.6013180 108.5847989  92.7463041  64.4050092 106.5794440
  91.9478286  64.1649592 106.8368309  93.1949052  64.4564485 107.3261488
  92.6937652  64.3772483 106.7279364 101.1507920  57.1712577 100.5004471
 101.8124354  56.6103246 100.4000380 100.5099332  56.6764608 100.8257163
 101.1536787  57.0148986 100.5336812  92.0384728  60.4682709  92.8085395
  92.4535876  60.1367732  92.1169890  91.2076657  60.2351611  92.6805531
  91.9772736  60.3853965  92.6876242  81.3673076  57.9526450 103.0983573
  81.1848650  57.9273336 102.2455865  82.1022745  58.4225387 103.1372481
  81.4487140  58.0187812 102.9781491  97.4372751  58.1877960 100.2416460
  97.6728340  58.3323158  99.4143311  97.5862314  58.9520368 100.6347974
  97.4938554  58.3217014 100.1780064  84.4318828  54.6711452 109.6065681
  85.1558800  54.6564483 110.0930576  84.5334965  55.3806808 109.1087650
  84.5537037  54.7736156 109.6044468  99.2663207  57.0279625  98.0786064
  99.5971425  57.5607266  97.4726159  99.8396296  57.0818513  98.7348015
  99.3996887  57.1149194  98.0863846  91.8063778  58.1510537 114.4714628
  91.0136758  58.4654049 114.6567248  91.9212705  58.3662005 113.6335413
  91.7059188  58.2294374 114.3752963  94.4795097  54.8744528  98.7609644
  94.5741951  55.6133822  99.2149270  93.8553940  54.4462004  99.1944209
  94.4004127  54.9205849  98.8917792  92.7347570  58.0530741 109.4099925
  93.3086432  57.4157985 109.5648489  92.6562374  58.0534823 108.5409583
  92.8080805  57.9595852 109.3046336  81.3343987  54.8319950 103.2482639
  81.9117489  54.6956401 103.8874885  80.6358049  54.3755734 103.5028224
  81.3165008  54.7442216 103.3804929  88.0911289  56.4854006 101.4621122
  87.8330533  55.6525741 101.4352422  88.1459772  56.7111619 100.6213623
  88.0611067  56.3951777 101.3341259  93.1712339  48.5882457 101.5625215
  92.4668666  48.0991642 101.7209134  93.2197313  48.6004931 100.6913660
  93.0742391  48.5172105 101.4564555  87.0646001  54.0391768 101.9486017
  86.4895592  54.1983937 102.5849978  86.6881677  53.4027177 101.4854468
  86.9248814  53.9689581 101.9740576  90.7319290  52.5115118 106.8078396
  90.3433723  52.0869335 106.1530587  90.0673988  52.7597267 107.3155422
  90.5766218  52.4853839 106.7866264 100.3742559  52.2690122  99.5826226
 100.1179124  51.4570064  99.3924108 101.2171873  52.2767689  99.3556413
 100.4608584  52.1502120  99.5211043  94.5545651  46.2089746 104.3202380
  94.9356163  45.5267918 104.7070254  93.7508936  45.9199349 104.1378044
  94.4922113  46.0656795 104.3506436  91.8358228  56.7413722  95.0055203
  92.6498867  57.0328615  94.8937974  91.7717369  56.0873585  94.4313496
  91.9460967  56.6878917  94.9044040  98.0567718  59.4239718 109.4184778
  97.8206356  58.5927783 109.2996839  98.7010947  59.3725326 110.0039622
  98.1162389  59.2937406 109.4870672  87.7066136  60.2135240 100.1327515
  88.3440083  59.9746987 100.6779308  88.1321208  60.4172399  99.3980675
  87.8642303  60.2086250 100.1044672  82.3978779  62.4523576 104.0161818
  82.4382924  62.7238427 103.1881598  82.9573303  62.9765484 104.4319606
  82.4862125  62.5699331 103.9553707  88.5137492  48.7143945 114.1864988
  88.1990933  49.4843507 113.9234551  88.1927424  48.1514201 113.6017215
  88.4196411  48.7454213 114.0606338  99.0804139  59.2084167 105.4813073
  98.7749956  59.9412224 105.8426388  98.3610355  58.8022097 105.2005859
  98.9291481  59.2565900 105.4926210  90.0887608  60.6907662 101.8121301
  90.1626617  60.5282834 102.6663151  90.9057115  60.8797852 101.5681783
  90.2203967  60.6944405 101.9019327 104.7805931  55.8477168 104.8081417
 104.7130431  55.8673127 103.9384004 104.7661593  56.6907495 105.0337088
 104.7684687  55.9750902 104.7133894  83.8493365  61.0365525  98.8415744
  83.0231483  61.2827262  98.7150023  83.9105356  60.9577606  99.7077803
  83.7367532  61.0610474  98.9504689  86.0669389  47.1034466  99.8011185
  85.1991814  47.1757066  99.8668794  86.3544593  47.9056545  99.9899160
  85.9809137  47.2328613  99.8385951  95.1902277  47.2512326 108.1322506
  95.9355869  47.0622136 107.7185932  94.7739582  47.7770563 107.5736363
  95.2387252  47.3014471 107.9887080 102.5664548  54.6221554 103.0828011
 103.1172470  53.9889623 103.3225103 102.5508664  55.1536947 103.7743516
 102.6449745  54.6070502 103.2206870  89.2186939  58.4560151 107.6287905
  88.7198633  59.1675919 107.7072793  90.0287163  58.7760818 107.5906067
  89.2643046  58.6087000 107.6344473  86.5698110  65.6309788  99.6094924
  86.3498405  65.3407143 100.4021591  86.3492632  64.9724743  99.0812836
  86.5045704  65.4909496  99.6483833  85.4815057  57.7183104 101.8750626
  85.1928305  57.0920576 102.4096353  86.3498405  57.6603392 101.9415306
  85.5675309  57.6170649 101.9641580  96.2692955  52.8617888 102.1932608
  95.9257720  52.1408223 102.5439857  96.3685997  52.6531739 101.3510966
  96.2334997  52.7242091 102.1204288  88.7366065  67.0039178  98.3925616
  89.3890123  66.4715620  98.6216643  88.0391674  66.6507830  98.7793490
  88.7296783  66.8728701  98.4837784  85.6847330  59.3578355  97.7992991
  86.4393298  59.7391394  98.0128453  85.0917943  59.8089499  98.2539687
  85.7084044  59.4807183  97.8975869  96.7305984  59.3243592  97.7356596
  97.2964016  59.9836802  97.6515139  96.0833887  59.6693290  98.2072998
  96.7184740  59.4725533  97.7929352  88.1453997  51.3141196 112.9250203
  87.3353773  51.6198975 112.8140045  88.6228684  52.0346778 113.0402787
  88.0957476  51.4655797 112.9257274  87.0045557  60.5286917 103.1733106
  86.4826310  60.6687208 103.8584971  87.3919577  59.7697581 103.3635224
  86.9849258  60.4372441 103.3034183  83.9936741  50.5792725  97.2428061
  83.7061537  50.2093996  96.5060008  84.6807209  51.0487581  96.9811766
  84.0525638  50.5939695  97.0943137  93.2012562  62.2682376  97.1593675
  92.9599238  61.5350237  96.7520740  93.3813895  62.8169233  96.5060008
  93.1920186  62.2404767  97.0023898  88.4311882  57.5590936  98.5714597
  88.2354665  58.1665670  97.9774900  88.6546228  56.8658880  98.0906271
  88.4346523  57.5468461  98.4130678  86.8290412  54.4445674  98.6895466
  87.5513064  54.6086832  98.2299272  86.3498405  55.1655338  98.5834805
  86.8654143  54.5743903  98.6061080  94.7883920  50.7809472 104.0692150
  93.9495021  50.8070751 103.8330414  94.8588287  51.4280208 104.6497497
  94.6752313  50.8805598 104.1201267  84.4798029  56.8503746 107.7949605
  84.9919126  57.1287999 107.1458365  84.1934372  57.5893040 108.1612418
  84.5132892  57.0006100 107.7539483  93.2353198  47.6794849  98.8019766
  93.9379551  47.4802598  98.3239725  92.9697387  46.9070792  99.1088610
  93.2999831  47.5357815  98.7765208  98.6641444  55.9877459 101.3553392
  98.5775418  56.1432885 102.2088171  98.2091924  56.6315535 100.9812797
  98.5844700  56.1053214 101.4260499  87.9981754  48.9430135 107.8550647
  87.8064951  48.9585269 108.7050071  88.8480350  49.1393809 107.8317302
  88.0957476  48.9744486 107.9773942  82.3828667  51.4721116 105.8334463
  82.2414159  50.6205057 105.9578971  82.6669231  51.5149777 105.0096669
  82.4036514  51.3520866 105.7302088  92.5367260  53.3088206  99.9778952
  92.2901974  53.2283957 100.8115741  92.8652383  52.5241674  99.7841479
  92.5488503  53.1814472 100.0726475  96.4315309  60.0171566 103.7665733
  96.2929668  60.7152611 104.2714475  95.6515307  59.8620222 103.4101915
  96.2958536  60.0971732 103.7892007  94.7693394  56.3167941 110.0188115
  94.7641432  55.4447758 110.0230541  95.4754388  56.5156110 109.5457570
  94.8738398  56.2171815 109.9495150  88.4964287  56.0444925 109.3901935
  88.6407663  56.6246133 108.7545045  88.8439936  56.4221222 110.0951789
  88.5691748  56.1865629 109.4000930  90.6684204  55.2435093 107.1727066
  89.9207519  55.4366108 106.7675344  90.8225730  54.4180313 106.9351188
  90.5806632  55.1500205 107.0772472  87.5692042  64.2347697 106.2562962
  87.7181606  63.6750613 105.6036366  88.3492044  64.3139698 106.6395480
  87.7066136  64.1633262 106.2159911  97.9268682  59.3749819  94.5282232
  97.5475490  58.5886957  94.5211522  97.2634927  59.9236676  94.3853876
  97.7727156  59.3394643  94.5063029  90.0945343  64.4062340 107.5347452
  90.0189014  63.7371150 108.0898241  90.0235202  65.1080128 108.0488119
  90.0725950  64.4107247 107.6924301  90.9085982  49.1385644 108.0622470
  91.3658596  49.8709618 108.1895262  90.9842310  48.7152109 108.8209726
  90.9876951  49.1842882 108.1923547  83.1518973  49.3851464 109.1511914
  82.6161162  48.7731822 109.4672681  83.2136737  49.9599600 109.8045580
  83.0814605  49.3798391 109.2947341  95.3813307  42.3175519 101.9316313
  95.4996876  42.7751983 101.1983616  95.2075483  41.5120780 101.6452531
  95.3732478  42.2669291 101.7817247  90.7515590  62.9263338  98.3671058
  91.5165481  62.6572982  98.0453723  90.6493680  62.4413349  99.0841121
  90.8497085  62.8152903  98.4250886  88.7868359  51.1287748 104.9064294
  87.9964434  50.9479208 105.2281630  89.1828982  50.3514700 104.8894589
  88.7285236  50.9875209 104.9516843  94.1712046  58.7630178 102.6323740
  93.4957048  58.5315410 103.1337127  94.1804422  58.1551361 102.0065845
  94.0730550  58.6389103 102.6139892  91.3006190  53.6048007 109.3887793
  91.2365331  54.4657963 109.2607930  91.4403377  53.2880000 108.5883344
  91.3121660  53.6848174 109.2516006  96.1728780  61.6195310  94.8633918
  96.2548618  62.4262297  94.5395369  96.6578523  61.6391270  95.5874692
  96.2565938  61.7415973  94.9220817  89.9825284  56.2980146 103.5303996
  89.5587533  56.4984645 102.7943014  89.8070139  55.4508994 103.6428296
  89.8936164  56.2028928 103.4377686  89.4836977  67.8130659 105.9925453
  89.9732907  67.1141449 105.8101118  88.9121209  67.5154529 106.5801511
  89.4721507  67.6656883 106.0526494  85.2707729  56.7932198  98.9631969
  85.4272348  56.7279001  99.8187961  85.6108322  57.5680750  98.7510648
  85.3440963  56.8981396  99.0586563  91.8086873  56.1690081  97.8325332
  92.3502419  55.6660463  98.2963952  92.1233432  56.1155276  97.0214817
  91.9351270  56.0869502  97.7809144  95.6803981  60.3792729 114.9452244
  96.4938846  60.1077878 115.1057376  95.5198947  60.0800269 114.1412440
  95.7773929  60.2947655 114.8497650  92.9576143  51.0626386 107.8847632
  93.1718112  50.4237300 107.3310986  92.3410042  51.5072210 107.4555494
  92.8981472  51.0336530 107.7398063  94.3680810  63.9845134  99.3301853
  93.9760602  63.6811849  98.6124719  94.5233883  64.8214224  99.1406807
  94.3334400  64.0628971  99.1958350  81.8441990  53.9767148  99.2792736
  82.2240955  54.3951693  98.6153003  81.2697355  54.5580604  99.5861579
  81.8153315  54.1245007  99.2269477  95.1215231  52.6715451 108.8230939
  94.3091912  52.3641341 108.9044112  95.5805165  52.1914451 109.3873651
  95.0695615  52.5551943 108.9185533  94.5320485  60.5495123  99.2707884
  94.1735140  60.7209766 100.0471916  94.0459196  61.0108329  98.7135882
  94.4079182  60.6434094  99.3033153  92.3490871  44.1726322 102.8734975
  91.4784429  44.1465043 102.8268284  92.6031212  44.0003514 102.0560821
  92.2584431  44.1436465 102.7455112  92.2168738  54.0775523 113.6059642
  92.6868369  54.7017639 113.9927516  92.2630618  53.4092498 114.1652856
  92.2936614  54.0710203 113.7459713  89.3740012  46.1832550 104.3308445
  88.8578500  45.4912741 104.4560024  88.8133941  46.8503327 104.2771044
  89.2146525  46.1795808 104.3414511  91.4432245  46.7225510 106.1601298
  91.0563998  46.7474542 106.9414828  90.9565182  46.1567189 105.7075815
  91.3144754  46.6421261 106.2089202  95.6925225  61.4399019 110.2175084
  96.3304945  60.9459215 109.8837541  95.0499316  61.3676420 109.6327311
  95.6919451  61.3558028 110.0817439  97.4182225  53.2888165 104.7841000
  96.9909833  53.2014514 104.0289100  96.7808278  53.3965941 105.3695844
  97.2611832  53.2920825 104.7586442  91.1089387  43.6092496 108.4511558
  91.7382505  44.1452796 108.1732628  91.2775250  43.5169854 109.3025124
  91.2267181  43.6753858 108.5360086  90.9103302  48.3963690 110.7237969
  91.7376731  48.1248839 110.7796584  90.9311148  49.1924532 111.0801788
  91.0356152  48.4743444 110.7853152  95.7479481  62.1318827 106.8580441
  96.5371859  61.7807892 106.9782523  95.9223079  62.9455216 106.5957075
  95.8899763  62.2004684 106.8368309  85.4872792  55.5427553 103.9108230
  84.6460798  55.4431427 104.1187124  85.6962800  56.3123033 104.2622551
  85.3937484  55.6419596 103.9935545  82.9648359  53.1647090 101.7392981
  82.5705056  53.2390102 100.9643090  82.4088475  53.5505036 102.2901343
  82.8251171  53.2328865 101.7060641  94.6013305  46.1428384 101.4196860
  94.8062899  46.0750692 102.2653857  94.2739729  46.9487205 101.3518037
  94.5828553  46.2514324 101.5356515  89.2989456  53.4708952 103.1605828
  88.9952594  52.9164941 103.7616235  88.5968877  53.6501162 102.6733862
  89.1505666  53.4153735 103.1775533  88.3555554  50.7809472  97.7250529
  88.6315288  50.0628385  97.3128097  88.9554223  51.3794392  97.5171636
  88.4848818  50.7629843  97.6331291  87.3607807  60.6858673 107.8677925
  87.2528162  60.6960735 108.7339983  87.5703589  61.5113453 107.6782879
  87.3757919  60.8099748 107.9682017  97.8546993  46.6960148 100.8999625
  97.2421307  47.1830550 101.2853357  97.9511168  46.0203639 101.4437276
  97.7784891  46.6678457 101.0378483  91.8566074  48.4522989  95.9997125
  92.3109821  48.6233550  96.7244969  92.3306120  47.8391100  95.5994900
  91.9934394  48.3873875  96.0470886  85.3781599  57.9371315 105.3299863
  84.7869533  58.5780814 105.3002878  86.1402623  58.3608933 105.3031163
  85.4029860  58.0947154 105.3215010  85.7742222  49.0973313 105.9967881
  86.2343704  49.1712243 106.7343004  85.8198329  49.8954567 105.6467702
  85.8492778  49.2267460 106.0540637  87.4225572  49.7640008 110.5639908
  87.0311137  49.1173355 110.9995685  87.5911435  50.3551443 111.1834163
  87.3896482  49.7554276 110.7202614 101.4972021  57.7677085 106.3277141
 101.5555145  58.2163734 107.0737118 100.8638489  58.1775898 105.8907221
 101.4123316  57.8950820 106.3729690  95.1371116  63.3880627 102.7631887
  94.9390804  63.8771441 102.0688099  94.5158827  63.5921868 103.3416021
  95.0158680  63.4897165 102.7455111  89.1979094  55.1565524  97.1042132
  89.9421139  55.5439800  97.3425082  89.3439790  54.3122949  97.2682620
  89.3289679  55.0895997  97.1636101  91.1158670  46.9515783 102.1373993
  90.2694715  47.1238590 102.0115343  91.1129802  46.1465126 102.4739821
  90.9905819  46.8576812 102.1685120  92.1856970  50.7290997 103.0036051
  91.7116924  50.2032759 103.5141362  92.5575106  50.1820470 102.4350913
  92.1706859  50.5706994 102.9951198  82.5630000  52.7262504 108.3719597
  83.4255613  52.6258213 108.2856927  82.2321783  52.1457213 107.8105169
  82.6415196  52.6254130 108.2765003  98.4493701  55.7893373 104.4142832
  98.2091923  54.9499788 104.4185258  98.9285708  55.8693539 105.1383605
  98.4845884  55.6774772 104.5217634  94.1140470  51.6227552  96.0661805
  93.5863488  51.7056296  95.3767514  94.5736178  52.3645423  96.0626450
  94.1042320  51.7448214  95.9636500 100.4498888  52.5694830 102.3672091
 100.2108658  52.5290664 101.5292875 100.6132789  53.4165982 102.4937812
 100.4389191  52.6886915 102.2625573  97.0544918  56.9544779 108.2977136
  97.7779117  56.5017306 108.1188156  96.7894880  57.2349445 107.5149464
  97.1226191  56.9295748 108.1555851  85.9231786  51.5504953 105.0330015
  85.2984856  51.5623345 104.4255968  85.5877381  52.0265128 105.6821255
  85.7817278  51.6223470 105.0386584  86.1073535  49.8930071  91.0902700
  85.7586339  50.5449796  91.5534249  85.6269981  49.8787184  90.3626571
  85.9843779  49.9873125  91.0513791  82.6357462  59.6105413 106.4733779
  82.1057386  58.9197852 106.5228754  82.9082555  59.6015598 105.6446488
  82.5982184  59.5072545 106.3581195  93.6677552  60.1931115  95.1971462
  94.3911751  60.6589228  95.0536035  93.2278143  60.2604725  94.4469059
  93.7093244  60.2714952  95.0656243  92.8363707  57.0528657 106.4472151
  92.2220700  56.5086708 106.7420786  93.3530992  56.5392894 105.9677967
  92.8219370  56.8965067 106.4196379  92.0760004  58.1232927 104.1816450
  91.6487612  57.4982646 103.7481885  92.0684949  57.8407849 105.0075457
  92.0119146  57.9885708 104.2396277  85.1922531  53.1598101 107.2504884
  85.3516018  52.4041425 107.6556605  85.0115425  53.7089040 107.9045621
  85.1887890  53.1291914 107.4067590  93.1342834  45.3259336 107.8055673
  92.6383396  45.5223010 107.1147240  93.8911896  45.7252004 107.6344475
  93.1729659  45.4137070 107.6775810  90.4045714  49.0001682 104.3958984
  90.4288201  48.4661794 103.7071764  90.6557188  48.4918991 105.0584574
  90.4455633  48.8462586 104.3923628  77.9153304  56.2833177 103.8302128
  77.8096753  56.2380021 102.9654212  77.1653524  56.6286958 104.1116413
  77.7888907  56.3274085 103.7439457  86.6847036  47.7272500 103.7764728
  86.7245408  48.2281707 104.4899435  85.8596701  47.8182894 103.5070651
  86.5686562  47.8154317 103.8415266  88.8676649  57.2933240 111.8785022
  88.0172280  57.4304955 112.0142667  89.0304777  56.5597019 112.3232724
  88.7660513  57.2047341 111.9640622  88.1061400  54.2433010 106.0738627
  87.2753329  54.4106828 105.8673875  88.0512917  53.8668961 106.8587512
  87.9750815  54.2122741 106.1587155  85.9145183  47.7341903 111.7095038
  86.5397886  47.1904036 111.9824470  85.4595663  47.2536821 111.1402828
  85.9393444  47.5831384 111.6656631  86.4797443  52.5188602  96.6028745
  86.6200405  53.0161066  97.3057386  86.9779976  51.8174896  96.7442958
  86.5738524  52.4890580  96.7280324  86.5097666  53.3855713  93.9321321
  87.1442745  53.9816138  93.8670783  86.5923277  53.0859170  94.7467192
  86.6154217  53.4296621  94.0424408  99.4880232  55.9171190 106.8007686
 100.0798072  56.5568441 106.8325884  99.9239226  55.2194227 107.0899752
  99.6398663  55.9089540 106.8488518  88.0876649  49.3169688  93.9066763
  88.4092490  48.8372771  93.2526026  88.3503592  50.1269334  93.7157575
  88.1742674  49.3659586  93.7822255  91.3173621  60.3388562 107.4265580
  90.8098713  60.8924409 107.8706210  91.0200268  60.3996852 106.6084354
  91.1978506  60.4294874 107.3714036  93.4835804  48.7041882 106.2690242
  93.9090875  48.2514408 105.6573769  92.8692797  48.1501953 106.5455030
  93.4564449  48.5555858 106.2195268  83.0150654  55.5823553  97.2010867
  83.5242883  56.1788061  97.5822173  83.4884926  55.3149527  96.5187287
  83.1594029  55.6309369  97.1565390  93.9281402  64.2551820  95.3569523
  93.2110711  64.0812682  94.8916760  94.5788139  64.0204392  94.8245009
  93.9183252  64.1947613  95.2098741  91.9230027  45.1756982  99.6780819
  91.2798344  45.0254628 100.2465958  91.5829434  44.9299327  98.9129924
  91.7775104  45.1169104  99.6483835  96.5129373  53.1316409  99.1010828
  95.8420563  53.6746111  98.9723894  97.2069123  53.6011264  98.8592523
  96.5158241  53.2814680  99.0466356  90.5616107  65.2713121 104.3322586
  90.3381761  64.5131950 104.7006613  90.0725950  65.3011142 103.6103026
  90.4559556  65.1635345 104.2799327  96.6757500  49.5872292 102.0101201
  97.0285111  49.1602015 102.6847000  95.8172302  49.5023136 102.1402278
  96.6006945  49.5117033 102.1296212  85.3741185  52.2179812 100.0684048
  84.6553175  52.6343945 100.3356911  85.7453548  52.7834051  99.5175686
  85.3233117  52.3629093 100.0266855  94.6740766  52.8507661 105.9586044
  94.6538694  52.6690956 106.8120822  94.7219967  53.7219679 105.9345627
  94.6775407  52.9524199 106.0809338  92.6187096  59.4394853 111.8834520
  92.5782951  58.7944530 111.2979676  93.4310414  59.3831470 112.1959932
  92.7330250  59.3353820 111.8431469  89.2094564  65.4913579 101.7859671
  88.7954962  64.8287709 101.3963513  89.8941938  65.6391438 101.2655365
  89.2492935  65.4154237 101.6516168  92.5759858  64.6503664 102.5383288
  92.1776141  64.7605934 101.7704108  91.9611077  64.8585730 103.1209847
  92.4258747  64.6977232 102.5114587  91.1487760  51.2577812  95.4057427
  90.5552599  51.5794808  94.8541994  91.1863038  50.4118907  95.1978533
  91.0662149  51.1802140  95.2940199  98.1081561  44.7090704 102.9385514
  97.6012425  44.0019844 102.8706691  98.9048994  44.3783893 103.0686590
  98.1508800  44.5563856 102.9484509  94.0245576  51.2157316  98.8359178
  93.7959269  51.2390018  97.9937536  94.2843653  50.3914783  98.9554188
  94.0291764  51.0973396  98.7284375  88.3064805  53.0691789 108.4384278
  87.7943708  52.4612972 108.7969309  88.1344301  53.7848382 108.9058254
  88.2054442  53.0855089 108.5600501  83.1530520  51.5129365 111.0886640
  82.9833110  52.1730740 110.5434846  82.7096469  51.7235926 111.8099129
  83.0629853  51.6415347 111.1148269  87.0790339  49.7533863 100.1313373
  87.5547705  50.1150943  99.4963554  86.5778939  50.4090330 100.4113516
  87.0755698  49.9028051 100.0790114 100.3101700  59.2255631  95.9226378
 100.6935306  59.9746987  96.1524475  99.5145814  59.4721450  95.6638367
 100.2495483  59.3725325  95.9183952  92.1833875  50.9916034 110.8786533
  92.7405305  50.7629844 110.2464999  91.8594940  51.7521700 110.6021746
  92.2180285  51.0699871 110.7443030  80.0532584  54.4176230 106.3475129
  79.5059304  53.7476876 106.4655998  80.8424962  54.0506078 106.4118597
  80.0884768  54.2641217 106.3743830  89.9016992  54.0783687 111.8438540
  90.6528319  54.3935364 112.1578095  90.0939569  53.8762858 111.0172462
  90.0408407  54.0951069 111.7681936  89.1216992  51.8975062  93.4986757
  89.5015957  51.9154692  92.7137872  88.3809588  52.3429051  93.3777604
  89.0685830  51.9656837  93.3650325  96.7502283  50.2057254  99.0862336
  96.7496509  50.0505910  99.9446612  96.5458463  51.0520241  99.0303721
  96.7202060  50.3077874  99.2050275  78.8119554  53.6297038 103.5021152
  78.6341315  53.1773647 104.2276068  78.5238576  54.4323200 103.6859630
  78.7432507  53.6819596 103.6364655  94.4743135  54.8854755 102.7398543
  94.9696800  54.1677751 102.7002563  93.6642910  54.5825553 102.6253030
  94.4287028  54.7352402 102.7172269  80.5492023  56.1624762 100.6142911
  79.6837543  56.1510452 100.5025683  80.6490839  55.9754985 101.4614051
  80.4366190  56.1330823 100.7231856  96.5394954  57.6358443 105.4275671
  96.9650025  57.1132865 104.8746097  96.1751873  58.2339280 104.9064294
  96.5481556  57.6468670 105.2684681  86.1749033  65.9322661 104.1873017
  86.4895592  66.7459049 104.1950799  86.5842447  65.5472879 104.8555176
  86.2817131  65.9951363 104.2877109  93.1273553  61.3492707 101.7576829
  93.5984731  62.0632970 101.9266814  93.4633731  60.7491457 102.2936698
  93.2468668  61.3664172 101.8609205  95.2150538  62.9594021 113.9368901
  95.3247503  62.1702581 114.2925648  95.5441434  62.8699957 113.1343239
  95.2802943  62.8299874 113.8711292  90.0443048  46.1220178 108.7134924
  90.1770954  45.3251171 109.0415899  90.4288201  46.6486581 109.2933199
  90.1199377  46.0820095 108.8478427  93.7647499  61.1410641 108.5204522
  93.2168445  60.5168525 108.2524587  94.2260528  61.3304913 107.8048601
  93.7514709  61.0769692 108.3754953  93.1175403  43.0450504 105.3116017
  92.3121367  42.9348234 105.6283855  92.9882139  43.1462960 104.4545883
  92.9795536  43.0434174 105.2324057  96.5741364  49.2095996 105.9055714
  95.9904352  49.7105202 105.4933281  96.8945658  48.7025552 105.2720037
  96.5354539  49.2087831 105.7514221  89.1136163  48.1236591  96.1814389
  89.9351857  48.2934904  95.9396084  88.6505814  48.2783852  95.4580686
  89.1667325  48.1718324  96.0386033  87.7031495  46.1179353 106.9612817
  88.2475908  45.7770480 107.5517159  87.7568430  46.9764814 107.1034102
  87.7920614  46.1934612 107.0694691  83.5162053  59.8795769 103.8351625
  84.1206911  59.8391603 103.2065446  83.3089366  60.7266921 103.8655681
  83.5750951  59.9983771 103.7467742  93.3305826  62.1461714 105.0513863
  94.1504199  62.0024680 105.3130158  93.0499903  62.7707913 105.5930301
  93.4102569  62.2172066 105.1701802  78.7513336  58.8630386 103.7050549
  78.6537614  58.0526658 104.0140605  79.5342205  58.8422180 103.3196817
  78.8529472  58.7397477 103.6937411 109.8019476  69.8026566  98.0156739
 109.7713480  70.6571203  98.1875009 110.4000825  69.5021858  98.5742883
 109.8856634  69.8843062  98.1231541 103.0019161  68.8902217 102.7709670
 102.1457056  69.0510715 102.8218786 103.0486815  68.0194281 102.7914731
 102.8818272  68.7853019 102.7815736  97.3860301  78.4264935  98.5346901
  96.6343200  78.0480473  98.3062946  97.8346312  78.4583368  97.7865711
  97.3409967  78.3750542  98.3904403 106.3112877  75.1588742 112.3770126
 107.0179645  74.6640773 112.5057060 106.5000813  75.5997824 111.6472784
 106.4440783  75.1507093 112.2879171 102.8385260  78.8490304  93.9632448
 102.5036629  79.5267226  93.5276670 103.3512131  78.4595615  93.3749320
 102.8650842  78.8914882  93.8119240 102.3789552  80.8004573  99.9043560
 102.7628931  81.3691472  99.3648335 102.3148693  80.0754083  99.4249376
 102.4262979  80.7780036  99.7537422 105.8470982  70.9494261 105.4141321
 106.3926942  71.6279347 105.4735291 105.7887858  70.8081722 104.5542903
 105.9186896  71.0286262 105.2953382  98.9645057  78.4383327 100.8009674
  99.0655420  77.6283681 101.1106801  98.3686802  78.3440273 100.1709352
  98.8917595  78.3048355 100.7535912 107.6236050  72.3778868  96.2875049
 107.5075576  73.1286554  96.7167187 108.4191937  72.1202821  96.5371136
 107.7240640  72.4513715  96.3879141  98.8045796  83.3560916 102.2024530
  99.4483252  83.7974080 102.5920688  99.1302052  82.5514342 102.1154788
  98.9477625  83.3026111 102.2470007  92.1610101  74.4603613 100.4262007
  91.9260285  73.6271266 100.3194276  92.2995742  74.7408279  99.6123208
  92.1465763  74.3787117 100.2904362  94.4600188  66.6289344 103.3246315
  93.8405220  66.0381991 103.1556330  94.3584052  67.2200779 102.6910638
  94.3537864  66.6293427 103.2051305  99.5066376  76.3672891  97.5744391
  99.8282217  76.9078098  96.9705699 100.1538473  75.7969662  97.7066681
  99.6492431  76.3632066  97.5051427 101.5568084  68.3688886  97.6578778
 102.2548249  68.5477013  98.1500241 101.8720417  67.8459225  97.0349167
 101.7063421  68.3182658  97.6380788  94.1869321  70.1741626 105.5689884
  94.0628018  70.7604071 106.2039703  94.8387606  69.6801821 105.8702159
  94.2642971  70.1880430 105.7075813 101.7456019  74.7559331  97.6458570
 102.1849655  74.1476431  98.0913342 101.5960682  74.3766704  96.8744035
 101.7877485  74.6097802  97.5977737  99.2127662  73.3503343 104.8477395
  99.8576665  72.8575786 104.5288344  99.4529439  73.4928129 105.6743473
  99.3438248  73.2980785 104.9226928 101.7513754  76.1958249 104.4984288
 102.0336997  75.4009654 104.2771043 102.4799914  76.6738836 104.5189349
 101.9003318  76.1492845 104.4687303  99.7294948  63.7381282 101.7400053
  99.3998278  64.1892426 101.0703751  99.0539949  63.6597446 102.2873059
  99.5805384  63.7932418 101.7223276 105.3465356  73.1086512  94.5989339
 105.2616651  73.9647479  94.7438908 105.8349739  72.8330836  95.2671498
 105.4054253  73.1943834  94.7191420 106.9371355  59.7266805  99.9849663
 106.6224796  60.4170284 100.4170086 106.4198297  59.6711588  99.2835164
 106.8135826  59.8201694  99.9446612 106.2783789  69.7271306  96.0987074
 105.7495261  69.9430940  96.7584380 106.8008809  70.4207445  96.0188043
 106.2772242  69.8614443  96.1842673 111.7331842  75.3017611 101.4720118
 110.9029545  75.5128254 101.6353535 111.6841094  74.4754665 101.1962402
 111.6038578  75.2107217 101.4557484  98.1683397  73.6234523  94.8994542
  97.5840612  74.1284554  95.3060406  97.7653492  73.3976910  94.1591134
  98.0222701  73.6642771  94.8499567  93.7227426  79.3389284 101.7018213
  93.2395004  80.0639774 101.6777797  94.5350744  79.6365414 101.8128371
  93.7718173  79.4891638 101.7145493  99.7941580  78.1321465 104.3068028
  99.2768521  77.7728880 103.7029336 100.4915971  77.6083639 104.3174094
  99.8207161  78.0019153 104.2198287 103.4505172  78.5816279 110.2684201
 103.5388518  78.3942419 111.1162411 103.8794884  77.9353709 109.8689048
 103.5267274  78.4579287 110.3355952 101.0175631  77.8647439 109.2501863
 100.4546466  77.4520049 109.7741524 101.7796655  77.7900345 109.6695006
 101.0470080  77.7924839 109.3894863 102.6260611  69.8700175  93.3763463
 102.8656615  70.0778159  92.5638806 102.9476452  69.0657684  93.4852407
 102.7097769  69.7814276  93.2724016  97.9350902  61.7993571  97.2223000
  98.6896870  62.1671888  96.9840051  97.7578436  62.1733125  97.9902180
  98.0205380  61.9091759  97.3007889  96.5771623  79.8545460 101.8538493
  97.2792202  79.3397449 101.9111250  96.4969106  80.1819611 102.6585368
  96.6695383  79.8259686 101.9811285 111.2285800  67.9488011 105.2670540
 110.3914222  68.0190198 105.5018134 111.1974031  67.9512506 104.3944842
 111.1004083  67.9598238 105.1730088  97.6250529  70.0921047 110.9818908
  97.7971033  69.9826942 111.8304190  98.1619887  70.7375452 110.7450101
  97.7295533  70.1713049 111.0724005  96.2907966  64.2063890  93.9201113
  96.1083540  64.4235771  93.0942106  97.1533579  64.3202903  93.9759728
  96.3912556  64.2553788  93.8055600  95.9022398  76.0451812 101.3624101
  96.7411298  76.2774745 101.4097863  95.9334167  75.1756124 101.2931137
  96.0304116  75.9508759 101.3588746  96.5275101  76.4652687 105.6637407
  97.0673326  76.3223818 106.3340779  95.8445048  76.8649438 106.0321433
  96.5067255  76.5032358 105.8171829 101.9707686  61.2090301  96.9550137
 102.6993846  61.0306256  96.5088294 102.0602578  62.0508380  97.1657315
 102.0914348  61.3074179  96.9203655 105.9515986  72.1443688 100.8582431
 106.7073501  72.5775202 100.8971340 106.0578311  71.4948458 101.4317067
 106.0786157  72.1121172 100.9480457 108.9896157  75.9716965 101.6084834
 108.5531389  75.9753708 102.3643806 108.6559073  76.6522464 101.1764412
 108.8758777  76.0729421 101.6565667 103.5625231  78.0125298 112.9327985
 104.3465648  78.1256146 113.2983727 103.3621826  77.1866435 113.1286670
 103.6491256  77.9072017 113.0162371  91.9312246  72.6852978 105.8171828
  91.6650662  71.8692095 105.9762819  91.9450811  72.7306134 104.9467344
  91.8936969  72.5709883 105.7125310 108.9093640  63.0130793 103.8514262
 109.5519549  63.0828898 104.4376177 109.1616661  62.3460016 103.3493804
 109.0415772  62.9257142 103.8641541  95.8369993  67.4838063  92.4323586
  95.1228171  67.1976242  92.8446019  96.3213962  67.8234688  93.0729974
  95.8029357  67.4919712  92.5879221  96.6810853  66.2231356 108.4638836
  95.9882650  65.7528336 108.7099568  97.2971180  65.9969661 109.0380543
  96.6695383  66.1198488 108.5847989 103.7195624  79.9235400 106.5794440
 102.9210870  79.6834900 106.8368309 104.1681636  79.9749793 107.3261488
 103.6670236  79.8957791 106.7279364 112.1240504  72.6897885 100.5004471
 112.7856938  72.1288554 100.4000380 111.4831916  72.1949916 100.8257163
 112.1269371  72.5334294 100.5336812 103.0117311  75.9868016  92.8085395
 103.4268460  75.6553040  92.1169890 102.1809241  75.7536919  92.6805531
 102.9505320  75.9039272  92.6876242  92.3405660  73.4711758 103.0983573
  92.1581233  73.4458644 102.2455865  93.0755329  73.9410695 103.1372481
  92.4219724  73.5373120 102.9781491 108.4105334  73.7063267 100.2416460
 108.6460923  73.8508466  99.4143311 108.5594898  74.4705675 100.6347974
 108.4671138  73.8402322 100.1780064  95.4051412  70.1896760 109.6065681
  96.1291384  70.1749791 110.0930576  95.5067548  70.8992116 109.1087650
  95.5269621  70.2921464 109.6044468 110.2395791  72.5464933  98.0786064
 110.5704008  73.0792574  97.4726159 110.8128879  72.6003821  98.7348015
 110.3729470  72.6334502  98.0863846 102.7796361  73.6695845 114.4714628
 101.9869342  73.9839357 114.6567248 102.8945288  73.8847313 113.6335413
 102.6791772  73.7479682 114.3752963 105.4527680  70.3929836  98.7609644
 105.5474535  71.1319130  99.2149270 104.8286524  69.9647312  99.1944209
 105.3736710  70.4391157  98.8917792 103.7080154  73.5716049 109.4099925
 104.2819016  72.9343293 109.5648489 103.6294958  73.5720131 108.5409583
 103.7813389  73.4781160 109.3046336  92.3076570  70.3505258 103.2482639
  92.8850073  70.2141709 103.8874885  91.6090632  69.8941042 103.5028224
  92.2897592  70.2627524 103.3804929 105.7050701  72.2378576  91.9946596
 105.6230864  72.3080763  92.8601583 106.3430422  72.8008320  91.8030337
 105.7870539  72.3317547  92.0936546  99.0643873  72.0039314 101.4621122
  98.8063117  71.1711049 101.4352422  99.1192355  72.2296927 100.6213623
  99.0343650  71.9137085 101.3341259 104.1444923  64.1067765 101.5625215
 103.4401249  63.6176950 101.7209134 104.1929897  64.1190239 100.6913660
 104.0474974  64.0357412 101.4564555  98.0378585  69.5577076 101.9486017
  97.4628176  69.7169245 102.5849978  97.6614261  68.9212485 101.4854468
  97.8981397  69.4874889 101.9740576 101.7051873  68.0300426 106.8078396
 101.3166306  67.6054643 106.1530587 101.0406572  68.2782575 107.3155422
 101.5498801  68.0039147 106.7866264 111.3475143  67.7875430  99.5826226
 111.0911707  66.9755372  99.3924108 112.1904456  67.7952997  99.3556413
 111.4341168  67.6687428  99.5211043  87.7835404  69.2017151  99.9630458
  87.8695655  68.8249019 100.7443988  88.4111201  68.8277597  99.4850416
  87.8891955  69.0902633 100.0075935 105.5278235  61.7275054 104.3202380
 105.9088747  61.0453225 104.7070254 104.7241519  61.4384656 104.1378044
 105.4654697  61.5842103 104.3506436 102.8090812  72.2599030  95.0055203
 103.6231450  72.5513923  94.8937974 102.7449953  71.6058893  94.4313496
 102.9193551  72.2064225  94.9044040 109.0300302  74.9425026 109.4184778
 108.7938939  74.1113091 109.2996839 109.6743531  74.8910634 110.0039622
 109.0894973  74.8122714 109.4870672  98.6798720  75.7320548 100.1327515
  99.3172667  75.4932295 100.6779308  99.1053791  75.9357707  99.3980675
  98.8374886  75.7271558 100.1044672  93.3711362  77.9708884 104.0161818
  93.4115508  78.2423735 103.1881598  93.9305886  78.4950792 104.4319606
  93.4594708  78.0884639 103.9553707  99.3201535  70.9522837  94.4702404
  99.7046688  70.7330544  95.2218949  99.0713155  71.7785783  94.6003480
  99.3403608  71.0420984  94.6003481  99.4870075  64.2329253 114.1864988
  99.1723516  65.0028815 113.9234551  99.1660008  63.6699509 113.6017215
  99.3928994  64.2639521 114.0606338 110.0536722  74.7269475 105.4813073
 109.7482539  75.4597532 105.8426388 109.3342938  74.3207405 105.2005859
 109.9024065  74.7751208 105.4926210 101.0620192  76.2092970 101.8121301
 101.1359200  76.0468142 102.6663151 101.8789698  76.3983160 101.5681783
 101.1936550  76.2129713 101.9019327 115.7538515  71.3662476 104.8081417
 115.6863015  71.3858435 103.9384004 115.7394177  72.2092803 105.0337088
 115.7417271  71.4936210 104.7133894  94.8225949  76.5550833  98.8415744
  93.9964066  76.8012570  98.7150023  94.8837940  76.4762914  99.7077803
  94.7100116  76.5795782  98.9504689  97.0401972  62.6219774  99.8011185
  96.1724398  62.6942374  99.8668794  97.3277177  63.4241853  99.9899160
  96.9541720  62.7513921  99.8385951 106.1634861  62.7697633 108.1322506
 106.9088453  62.5807444 107.7185932 105.7472166  63.2955871 107.5736363
 106.2119835  62.8199779 107.9887080  99.6024778  79.1727713  96.5434774
  99.8923076  78.7816695  95.8194001 100.3328258  79.3544418  96.9840050
  99.7531662  79.1421527  96.5017581 113.5397132  70.1406862 103.0828011
 114.0905053  69.5074931 103.3225103 113.5241247  70.6722255 103.7743516
 113.6182328  70.1255810 103.2206870 100.1919523  73.9745459 107.6287905
  99.6931216  74.6861227 107.7072793 101.0019747  74.2946126 107.5906067
 100.2375629  74.1272308 107.6344473  97.5430693  81.1495096  99.6094924
  97.3230989  80.8592450 100.4021591  97.3225215  80.4910051  99.0812836
  97.4778287  81.0094804  99.6483833  96.4547640  73.2368412 101.8750626
  96.1660889  72.6105883 102.4096353  97.3230988  73.1788700 101.9415306
  96.5407892  73.1355956 101.9641580 107.2425538  68.3803196 102.1932608
 106.8990304  67.6593531 102.5439857 107.3418581  68.1717047 101.3510966
 107.2067581  68.2427399 102.1204288  99.7098649  82.5224486  98.3925616
 100.3622707  81.9900928  98.6216643  99.0124258  82.1693138  98.7793490
  99.7029367  82.3914009  98.4837784  96.6579914  74.8763663  97.7992991
  97.4125882  75.2576702  98.0128453  96.0650526  75.3274807  98.2539687
  96.6816627  74.9992491  97.8975869 107.7038567  74.8428900  97.7356596
 108.2696600  75.5022110  97.6515139 107.0566471  75.1878598  98.2072998
 107.6917324  74.9910841  97.7929352  99.1186581  66.8326504 112.9250203
  98.3086356  67.1384283 112.8140045  99.5961267  67.5532086 113.0402787
  99.0690060  66.9841105 112.9257274  97.9778140  76.0472225 103.1733106
  97.4558894  76.1872516 103.8584971  98.3652161  75.2882889 103.3635224
  97.9581841  75.9557748 103.3034183  94.9669324  66.0978033  97.2428061
  94.6794120  65.7279304  96.5060008  95.6539793  66.5672889  96.9811766
  95.0258222  66.1125003  97.0943137 104.1745145  77.7867684  97.1593675
 103.9331821  77.0535545  96.7520740 104.3546478  78.3354541  96.5060008
 104.1652769  77.7590075  97.0023898  99.4044466  73.0776244  98.5714597
  99.2087249  73.6850978  97.9774900  99.6278812  72.3844188  98.0906271
  99.4079107  73.0653769  98.4130678  97.8022996  69.9630982  98.6895466
  98.5245648  70.1272140  98.2299272  97.3230989  70.6840646  98.5834805
  97.8386727  70.0929211  98.6061080 105.7616504  66.2994780 104.0692150
 104.9227604  66.3256059 103.8330414 105.8320871  66.9465516 104.6497497
 105.6484897  66.3990906 104.1201267  95.4530613  72.3689054 107.7949605
  95.9651710  72.6473307 107.1458365  95.1666955  73.1078348 108.1612418
  95.4865476  72.5191408 107.7539483 104.2085782  63.1980157  98.8019766
 104.9112135  62.9987906  98.3239725 103.9429971  62.4256100  99.1088610
 104.2732414  63.0543123  98.7765208 109.6374027  71.5062767 101.3553392
 109.5508002  71.6618193 102.2088171 109.1824507  72.1500843 100.9812797
 109.5577284  71.6238522 101.4260499  92.5397519  66.8759246  98.0913342
  92.6413655  67.6785407  98.4194317  93.3353406  66.6746582  97.7936422
  92.6725425  66.9645145  98.0948697  98.9714338  64.4615443 107.8550647
  98.7797535  64.4770577 108.7050071  99.8212934  64.6579117 107.8317302
  99.0690060  64.4929794 107.9773942  93.3561251  66.9906424 105.8334463
  93.2146743  66.1390365 105.9578971  93.6401814  67.0335085 105.0096669
  93.3769097  66.8706174 105.7302088 103.5099843  68.8273514  99.9778952
 103.2634558  68.7469265 100.8115741 103.8384966  68.0426982  99.7841479
 103.5221087  68.6999780 100.0726475 107.4047892  75.5356874 103.7665733
 107.2662252  76.2337919 104.2714475 106.6247890  75.3805530 103.4101915
 107.2691119  75.6157040 103.7892007 105.7425977  71.8353249 110.0188115
 105.7374016  70.9633065 110.0230541 106.4486971  72.0341418 109.5457570
 105.8470981  71.7357123 109.9495150  99.4696871  71.5630233 109.3901935
  99.6140246  72.1431441 108.7545045  99.8172519  71.9406530 110.0951789
  99.5424332  71.7050937 109.4000930 101.6416788  70.7620401 107.1727066
 100.8940102  70.9551416 106.7675344 101.7958313  69.9365621 106.9351188
 101.5539216  70.6685513 107.0772472  98.5424626  79.7533005 106.2562962
  98.6914189  79.1935921 105.6036366  99.3224628  79.8325006 106.6395480
  98.6798719  79.6818570 106.2159911 108.9001265  74.8935127  94.5282232
 108.5208074  74.1072265  94.5211522 108.2367511  75.4421984  94.3853876
 108.7459740  74.8579951  94.5063029 101.0677926  79.9247648 107.5347452
 100.9921597  79.2556458 108.0898241 100.9967785  80.6265436 108.0488119
 101.0458533  79.9292555 107.6924301 101.8818565  64.6570952 108.0622470
 102.3391179  65.3894926 108.1895262 101.9574894  64.2337417 108.8209726
 101.9609535  64.7028190 108.1923547  94.1251556  64.9036772 109.1511914
  93.5893746  64.2917130 109.4672681  94.1869321  65.4784908 109.8045580
  94.0547189  64.8983699 109.2947341 106.3545891  57.8360827 101.9316313
 106.4729459  58.2937290 101.1983616 106.1808067  57.0306088 101.6452531
 106.3465062  57.7854599 101.7817247 101.7248173  78.4448646  98.3671058
 102.4898064  78.1758290  98.0453723 101.6226263  77.9598657  99.0841121
 101.8229669  78.3338211  98.4250886  99.7600943  66.6473056 104.9064294
  98.9697018  66.4664516 105.2281630 100.1561566  65.8700008 104.8894589
  99.7017819  66.5060517 104.9516843 104.2466834  75.4760830  90.3471008
 105.0139819  75.5360955  89.9376860 103.7998143  74.9041272  89.8627326
 104.2940261  75.3997406  90.2148718 105.1444629  74.2815486 102.6323740
 104.4689631  74.0500718 103.1337127 105.1537005  73.6736669 102.0065845
 105.0463134  74.1574411 102.6139892 102.2738773  69.1233315 109.3887793
 102.2097915  69.9843271 109.2607930 102.4135961  68.8065308 108.5883344
 102.2854243  69.2033482 109.2516006 107.1461364  77.1380618  94.8633918
 107.2281201  77.9447605  94.5395369 107.6311106  77.1576578  95.5874692
 107.2298522  77.2601281  94.9220817 100.9557867  71.8165454 103.5303996
 100.5320116  72.0169953 102.7943014 100.7802722  70.9694302 103.6428296
 100.8668748  71.7214236 103.4377686 100.4569561  83.3315967 105.9925453
 100.9465491  82.6326757 105.8101118  99.8853793  83.0339837 106.5801511
 100.4454091  83.1842191 106.0526494  96.2440312  72.3117506  98.9631969
  96.4004931  72.2464309  99.8187961  96.5840905  73.0866058  98.7510648
  96.3173547  72.4166704  99.0586563 102.7819457  71.6875389  97.8325332
 103.3235002  71.1845770  98.2963952 103.0966016  71.6340584  97.0214817
 102.9083854  71.6054810  97.7809144 100.9505906  77.0792741  95.1165360
 101.0198727  76.2207279  95.2558360 101.7294362  77.2964622  94.7884384
 101.0758757  76.9845605  95.0882517 103.9308726  66.5811694 107.8847632
 104.1450696  65.9422608 107.3310986 103.3142625  67.0257518 107.4555494
 103.8714055  66.5521838 107.7398063 105.3413394  79.5030442  99.3301853
 104.9493186  79.1997157  98.6124719 105.4966466  80.3399532  99.1406807
 105.3066984  79.5814279  99.1958350  92.8174574  69.4952456  99.2792736
  93.1973538  69.9137001  98.6153003  92.2429938  70.0765912  99.5861579
  92.7885899  69.6430315  99.2269477 106.0947814  68.1900759 108.8230939
 105.2824496  67.8826649 108.9044112 106.5537749  67.7099759 109.3873651
 106.0428199  68.0737251 108.9185533 105.5053069  76.0680431  99.2707884
 105.1467724  76.2395074 100.0471916 105.0191780  76.5293637  98.7135882
 105.3811766  76.1619402  99.3033153 103.3223455  59.6911630 102.8734975
 102.4517013  59.6650351 102.8268284 103.5763796  59.5188822 102.0560821
 103.2317015  59.6621773 102.7455112 100.2941434  71.7479596  91.8108118
 100.5833959  72.5244479  92.0851692 100.3813233  71.2368328  92.5122617
 100.3495690  71.7871515  91.9550616 103.1901322  69.5960830 113.6059642
 103.6600953  70.2202947 113.9927516 103.2363202  68.9277806 114.1652856
 103.2669198  69.5895511 113.7459713 100.3472595  61.7017858 104.3308445
  99.8311084  61.0098049 104.4560024  99.7866524  62.3688635 104.2771044
 100.1879109  61.6981116 104.3414511 102.4164829  62.2410818 106.1601298
 102.0296582  62.2659849 106.9414828 101.9297766  61.6752497 105.7075815
 102.2877338  62.1606569 106.2089202 106.6657808  76.9584327 110.2175084
 107.3037529  76.4644523 109.8837541 106.0231900  76.8861727 109.6327311
 106.6652035  76.8743335 110.0817439 108.3914808  68.8073473 104.7841000
 107.9642416  68.7199822 104.0289100 107.7540861  68.9151248 105.3695844
 108.2344416  68.8106133 104.7586442 102.0821970  59.1277803 108.4511558
 102.7115088  59.6638104 108.1732628 102.2507833  59.0355162 109.3025124
 102.1999765  59.1939166 108.5360086 101.8835885  63.9148998 110.7237969
 102.7109315  63.6434147 110.7796584 101.9043731  64.7109840 111.0801788
 102.0088735  63.9928752 110.7853152 106.7212065  77.6504135 106.8580441
 107.5104443  77.2993200 106.9782523 106.8955663  78.4640524 106.5957075
 106.8632346  77.7189992 106.8368309  96.4605375  71.0612861 103.9108230
  95.6193382  70.9616735 104.1187124  96.6695383  71.8308341 104.2622551
  96.3670068  71.1604904 103.9935545  93.9380942  68.6832398 101.7392981
  93.5437640  68.7575410 100.9643090  93.3821059  69.0690344 102.2901343
  93.7983755  68.7514173 101.7060641 105.5745889  61.6613692 101.4196860
 105.7795482  61.5936000 102.2653857 105.2472313  62.4672513 101.3518037
 105.5561137  61.7699632 101.5356515 100.2722040  68.9894260 103.1605828
  99.9685178  68.4350248 103.7616235  99.5701461  69.1686470 102.6733862
 100.1238250  68.9339043 103.1775533  99.3288137  66.2994780  97.7250529
  99.6047871  65.5813692  97.3128097  99.9286806  66.8979700  97.5171636
  99.4581402  66.2815151  97.6331291  98.3340391  76.2043981 107.8677925
  98.2260746  76.2146043 108.7339983  98.5436173  77.0298761 107.6782879
  98.3490502  76.3285056 107.9682017 108.8279577  62.2145456 100.8999625
 108.2153890  62.7015858 101.2853357 108.9243752  61.5388947 101.4437276
 108.7517474  62.1863765 101.0378483 102.8298658  63.9708297  95.9997125
 103.2842404  64.1418858  96.7244969 103.3038703  63.3576408  95.5994900
 102.9666978  63.9059183  96.0470886  96.3514183  73.4556623 105.3299863
  95.7602116  74.0966121 105.3002878  97.1135207  73.8794241 105.3031163
  96.3762444  73.6132462 105.3215010  96.7474806  64.6158621 105.9967881
  97.2076287  64.6897550 106.7343004  96.7930913  65.4139875 105.6467702
  96.8225361  64.7452768 106.0540637  98.3958156  65.2825316 110.5639908
  98.0043721  64.6358663 110.9995685  98.5644018  65.8736751 111.1834163
  98.3629066  65.2739584 110.7202614 112.4704605  73.2862393 106.3277141
 112.5287728  73.7349042 107.0737118 111.8371072  73.6961206 105.8907221
 112.3855900  73.4136128 106.3729690 106.1103699  78.9065935 102.7631887
 105.9123388  79.3956749 102.0688099 105.4891410  79.1107176 103.3416021
 105.9891264  79.0082473 102.7455111 100.1711678  70.6750832  97.1042132
 100.9153723  71.0625108  97.3425082 100.3172374  69.8308257  97.2682620
 100.3022263  70.6081304  97.1636101 102.0891253  62.4701091 102.1373993
 101.2427298  62.6423898 102.0115343 102.0862386  61.6650434 102.4739821
 101.9638403  62.3762120 102.1685120 103.1589554  66.2476305 103.0036051
 102.6849508  65.7218067 103.5141362 103.5307689  65.7005778 102.4350913
 103.1439442  66.0892302 102.9951198  93.5362584  68.2447812 108.3719597
  94.3988197  68.1443521 108.2856927  93.2054367  67.6642521 107.8105169
  93.6147780  68.1439438 108.2765003 109.4226284  71.3078681 104.4142832
 109.1824507  70.4685096 104.4185258 109.9018291  71.3878847 105.1383605
 109.4578468  71.1960080 104.5217634 105.0873053  67.1412860  96.0661805
 104.5596072  67.2241604  95.3767514 105.5468761  67.8830731  96.0626450
 105.0774904  67.2633522  95.9636500 111.4231471  68.0880138 102.3672091
 111.1841241  68.0475972 101.5292875 111.5865372  68.9351290 102.4937812
 111.4121775  68.2072223 102.2625573 108.0277501  72.4730087 108.2977136
 108.7511700  72.0202614 108.1188156 107.7627464  72.7534753 107.5149464
 108.0958775  72.4481056 108.1555851  96.8964370  67.0690261 105.0330015
  96.2717440  67.0808653 104.4255968  96.5609965  67.5450436 105.6821255
  96.7549861  67.1408778 105.0386584  93.6090045  75.1290721 106.4733779
  93.0789970  74.4383160 106.5228754  93.8815139  75.1200906 105.6446488
  93.5714768  75.0257853 106.3581195 104.6410136  75.7116423  95.1971462
 105.3644335  76.1774536  95.0536035 104.2010727  75.7790033  94.4469059
 104.6825828  75.7900260  95.0656243 103.8096291  72.5713965 106.4472151
 103.1953284  72.0272016 106.7420786 104.3263576  72.0578202 105.9677967
 103.7951953  72.4150374 106.4196379 103.0492588  73.6418235 104.1816450
 102.6220196  73.0167954 103.7481885 103.0417532  73.3593157 105.0075457
 102.9851729  73.5071016 104.2396277  96.1655115  68.6783408 107.2504884
  96.3248602  67.9226733 107.6556605  95.9848009  69.2274348 107.9045621
  96.1620474  68.6477222 107.4067590 104.1075418  60.8444644 107.8055673
 103.6115979  61.0408318 107.1147240 104.8644480  61.2437312 107.6344475
 104.1462243  60.9322378 107.6775810 101.3778298  64.5186990 104.3958984
 101.4020785  63.9847102 103.7071764 101.6289771  64.0104299 105.0584574
 101.4188216  64.3647894 104.3923628  88.8885887  71.8018485 103.8302128
  88.7829336  71.7565329 102.9654212  88.1386107  72.1472266 104.1116413
  88.7621490  71.8459393 103.7439457  97.6579620  63.2457808 103.7764728
  97.6977991  63.7467015 104.4899435  96.8329284  63.3368202 103.5070651
  97.5419146  63.3339625 103.8415266  99.8409233  72.8118548 111.8785022
  98.9904863  72.9490262 112.0142667 100.0037360  72.0782326 112.3232724
  99.7393096  72.7232649 111.9640622  99.0793983  69.7618318 106.0738627
  98.2485913  69.9292136 105.8673875  99.0245500  69.3854269 106.8587512
  98.9483398  69.7308049 106.1587155  96.8877766  63.2527211 111.7095038
  97.5130470  62.7089344 111.9824470  96.4328246  62.7722129 111.1402828
  96.9126027  63.1016692 111.6656631  97.4530027  68.0373910  96.6028745
  97.5932988  68.5346374  97.3057386  97.9512560  67.3360204  96.7442958
  97.5471108  68.0075888  96.7280324  97.4830249  68.9041021  93.9321321
  98.1175329  69.5001446  93.8670783  97.5655860  68.6044478  94.7467192
  97.5886800  68.9481929  94.0424408 110.4612815  71.4356498 106.8007686
 111.0530655  72.0753749 106.8325884 110.8971810  70.7379535 107.0899752
 110.6131246  71.4274848 106.8488518  99.0609232  64.8354996  93.9066763
  99.3825073  64.3558079  93.2526026  99.3236176  65.6454642  93.7157575
  99.1475258  64.8844894  93.7822255 102.2906205  75.8573870 107.4265580
 101.7831296  76.4109717 107.8706210 101.9932851  75.9182160 106.6084354
 102.1711090  75.9480182 107.3714036 104.4568387  64.2227190 106.2690242
 104.8823459  63.7699716 105.6573769 103.8425380  63.6687261 106.5455030
 104.4297033  64.0741166 106.2195268  93.9883237  71.1008861  97.2010867
  94.4975467  71.6973369  97.5822173  94.4617510  70.8334835  96.5187287
  94.1326613  71.1494677  97.1565390 104.9013985  79.7737128  95.3569523
 104.1843295  79.5997990  94.8916760 105.5520723  79.5389700  94.8245009
 104.8915836  79.7132921  95.2098741 102.8962610  60.6942290  99.6780819
 102.2530928  60.5439936 100.2465958 102.5562017  60.4484635  98.9129924
 102.7507687  60.6354412  99.6483835 107.4861957  68.6501717  99.1010828
 106.8153146  69.1931419  98.9723894 108.1801707  69.1196572  98.8592523
 107.4890824  68.7999988  99.0466356 101.5348690  80.7898429 104.3322586
 101.3114345  80.0317258 104.7006613 101.0458534  80.8196450 103.6103026
 101.4292139  80.6820653 104.2799327 107.6490084  65.1057600 102.0101201
 108.0017694  64.6787323 102.6847000 106.7904886  65.0208444 102.1402278
 107.5739529  65.0302341 102.1296212  96.3473769  67.7365120 100.0684048
  95.6285758  68.1529253 100.3356911  96.7186131  68.3019359  99.5175686
  96.2965701  67.8814401 100.0266855 105.6473350  68.3692969 105.9586044
 105.6271277  68.1876264 106.8120822 105.6952551  69.2404987 105.9345627
 105.6507991  68.4709507 106.0809338 103.5919680  74.9580161 111.8834520
 103.5515535  74.3129838 111.2979676 104.4042998  74.9016778 112.1959932
 103.7062833  74.8539128 111.8431469 100.1827147  81.0098887 101.7859671
  99.7687546  80.3473017 101.3963513 100.8674522  81.1576746 101.2655365
 100.2225519  80.9339545 101.6516168 103.5492441  80.1688972 102.5383288
 103.1508725  80.2791242 101.7704108 102.9343661  80.3771038 103.1209847
 103.3991331  80.2162540 102.5114587 102.1220343  66.7763120  95.4057427
 101.5285183  67.0980116  94.8541994 102.1595621  65.9304215  95.1978533
 102.0394733  66.6987448  95.2940199 109.0814144  60.2276012 102.9385514
 108.5745009  59.5205152 102.8706691 109.8781578  59.8969201 103.0686590
 109.1241383  60.0749163 102.9484509 104.9978160  66.7342624  98.8359178
 104.7691853  66.7575326  97.9937536 105.2576236  65.9100091  98.9554188
 105.0024348  66.6158704  98.7284375  99.2797388  68.5877097 108.4384278
  98.7676292  67.9798280 108.7969309  99.1076885  69.3033690 108.9058254
  99.1787025  68.6040397 108.5600501  94.1263103  67.0314673 111.0886640
  93.9565693  67.6916048 110.5434846  93.6829053  67.2421234 111.8099129
  94.0362437  67.1600655 111.1148269  98.0522922  65.2719171 100.1313373
  98.5280289  65.6336250  99.4963554  97.5511522  65.9275638 100.4113516
  98.0488281  65.4213359 100.0790114 111.2834284  74.7440939  95.9226378
 111.6667890  75.4932295  96.1524475 110.4878397  74.9906758  95.6638367
 111.2228066  74.8910633  95.9183952 103.1566459  66.5101342 110.8786533
 103.7137889  66.2815152 110.2464999 102.8327524  67.2707008 110.6021746
 103.1912869  66.5885179 110.7443030  91.0265168  69.9361538 106.3475129
  90.4791887  69.2662184 106.4655998  91.8157546  69.5691386 106.4118597
  91.0617351  69.7826525 106.3743830 100.8749576  69.5968995 111.8438540
 101.6260903  69.9120672 112.1578095 101.0672153  69.3948166 111.0172462
 101.0140990  69.6136377 111.7681936 100.0949576  67.4160370  93.4986757
 100.4748540  67.4340000  92.7137872  99.3542172  67.8614359  93.3777604
 100.0418413  67.4842145  93.3650325 107.7234866  65.7242562  99.0862336
 107.7229093  65.5691218  99.9446612 107.5191046  66.5705549  99.0303721
 107.6934644  65.8263182  99.2050275  89.7852137  69.1482346 103.5021152
  89.6073898  68.6958955 104.2276068  89.4971159  69.9508507 103.6859630
  89.7165090  69.2004904 103.6364655 105.4475718  70.4040063 102.7398543
 105.9429384  69.6863058 102.7002563 104.6375494  70.1010861 102.6253030
 105.4019612  70.2537710 102.7172269 100.8934330  74.2537877  94.8895547
 100.0845652  73.9304550  94.8428857 101.4009239  73.5471099  94.8223796
 100.8483997  74.1019193  94.8725842  91.5224607  71.6810070 100.6142911
  90.6570126  71.6695760 100.5025683  91.6223423  71.4940293 101.4614051
  91.4098774  71.6516131 100.7231856 107.5127537  73.1543751 105.4275671
 107.9382609  72.6318173 104.8746097 107.1484457  73.7524588 104.9064294
 107.5214140  73.1653978 105.2684681  97.1481617  81.4507968 104.1873017
  97.4628176  82.2644357 104.1950799  97.5575030  81.0658187 104.8555176
  97.2549715  81.5136671 104.2877109 104.1006137  76.8678015 101.7576829
 104.5717315  77.5818278 101.9266814 104.4366315  76.2676765 102.2936698
 104.2201252  76.8849479 101.8609205 101.0175631  61.6405486 108.7134924
 101.1503537  60.8436479 109.0415899 101.4020784  62.1671889 109.2933199
 101.0931960  61.6005402 108.8478427 104.7380083  76.6595949 108.5204522
 104.1901029  76.0353833 108.2524587 105.1993112  76.8490221 107.8048601
 104.7247292  76.5955000 108.3754953 104.0907987  58.5635812 105.3116017
 103.2853950  58.4533542 105.6283855 103.9614722  58.6648268 104.4545883
 103.9528120  58.5619482 105.2324057 107.5473947  64.7281304 105.9055714
 106.9636936  65.2290510 105.4933281 107.8678241  64.2210860 105.2720037
 107.5087123  64.7273139 105.7514221 100.0868746  63.6421899  96.1814389
 100.9084441  63.8120211  95.9396084  99.6238397  63.7969160  95.4580686
 100.1399909  63.6903632  96.0386033  98.6764078  61.6364661 106.9612817
  99.2208491  61.2955788 107.5517159  98.7301014  62.4950122 107.1034102
  98.7653198  61.7119920 107.0694691  94.4894637  75.3981077 103.8351625
  95.0939494  75.3576911 103.2065446  94.2821950  76.2452229 103.8655681
  94.5483534  75.5169079 103.7467742 104.3038409  77.6647022 105.0513863
 105.1236783  77.5209988 105.3130158 104.0232487  78.2893221 105.5930301
 104.3835153  77.7357374 105.1701802  89.7245919  74.3815694 103.7050549
  89.6270197  73.5711966 104.0140605  90.5074789  74.3607488 103.3196817
  89.8262056  74.2582785 103.6937411 120.7752060  85.3211874  98.0156739
 120.7446064  86.1756510  98.1875009 121.3733408  85.0207166  98.5742883
 120.8589217  85.4028370  98.1231541 113.9751744  84.4087525 102.7709670
 113.1189640  84.5696023 102.8218786 114.0219398  83.5379589 102.7914731
 113.8550856  84.3038327 102.7815736 108.3592884  93.9450243  98.5346901
 107.6075784  93.5665781  98.3062946 108.8078896  93.9768676  97.7865711
 108.3142551  93.8935850  98.3904403 113.8117844  94.3675612  93.9632448
 113.4769212  95.0452534  93.5276670 114.3244714  93.9780923  93.3749320
 113.8383425  94.4100190  93.8119240 113.3522135  96.3189881  99.9043560
 113.7361515  96.8876779  99.3648335 113.2881277  95.5939391  99.4249376
 113.3995562  96.2965344  99.7537422 109.9377640  93.9568635 100.8009674
 110.0388003  93.1468989 101.1106801 109.3419386  93.8625581 100.1709352
 109.8650179  93.8233663 100.7535912 118.5968634  87.8964176  96.2875049
 118.4808160  88.6471862  96.7167187 119.3924521  87.6388129  96.5371136
 118.6973224  87.9699023  96.3879141 103.1342685  89.9788921 100.4262007
 102.8992869  89.1456574 100.3194276 103.2728325  90.2593587  99.6123208
 103.1198347  89.8972425 100.2904362 105.4332772  82.1474652 103.3246315
 104.8137804  81.5567299 103.1556330 105.3316636  82.7386087 102.6910638
 105.3270448  82.1478734 103.2051305 110.4798960  91.8858199  97.5744391
 110.8014801  92.4263406  96.9705699 111.1271056  91.3154970  97.7066681
 110.6225015  91.8817374  97.5051427 112.5300668  83.8874194  97.6578778
 113.2280832  84.0662321  98.1500241 112.8453000  83.3644533  97.0349167
 112.6796005  83.8367966  97.6380788 105.1601905  85.6926934 105.5689884
 105.0360602  86.2789379 106.2039703 105.8120190  85.1987129 105.8702159
 105.2375554  85.7065738 105.7075813 112.7188603  90.2744639  97.6458570
 113.1582239  89.6661739  98.0913342 112.5693266  89.8952012  96.8744035
 112.7610069  90.1283110  97.5977737 110.7027531  79.2566590 101.7400053
 110.3730861  79.7077734 101.0703751 110.0272533  79.1782754 102.2873059
 110.5537968  79.3117726 101.7223276 116.3197940  88.6271820  94.5989339
 116.2349235  89.4832787  94.7438908 116.8082323  88.3516144  95.2671498
 116.3786837  88.7129141  94.7191420 117.9103939  75.2452113  99.9849663
 117.5957380  75.9355592 100.4170086 117.3930881  75.1896896  99.2835164
 117.7868409  75.3387002  99.9446612 117.2516373  85.2456614  96.0987074
 116.7227844  85.4616248  96.7584380 117.7741393  85.9392753  96.0188043
 117.2504826  85.3799751  96.1842673 109.1415981  89.1419831  94.8994542
 108.5573196  89.6469862  95.3060406 108.7386076  88.9162218  94.1591134
 108.9955284  89.1828079  94.8499567 104.6960009  94.8574592 101.7018213
 104.2127587  95.5825082 101.6777797 105.5083328  95.1550722 101.8128371
 104.7450757  95.0076946 101.7145493 113.5993195  85.3885483  93.3763463
 113.8389199  85.5963467  92.5638806 113.9209036  84.5842992  93.4852407
 113.6830353  85.2999584  93.2724016 108.9083485  77.3178879  97.2223000
 109.6629453  77.6857196  96.9840051 108.7311020  77.6918433  97.9902180
 108.9937964  77.4277067  97.3007889 107.5504207  95.3730768 101.8538493
 108.2524786  94.8582757 101.9111250 107.4701690  95.7004919 102.6585368
 107.6427967  95.3444994 101.9811285 107.2640550  79.7249198  93.9201113
 107.0816123  79.9421079  93.0942106 108.1266163  79.8388211  93.9759728
 107.3645139  79.7739096  93.8055600 106.8754982  91.5637120 101.3624101
 107.7143881  91.7960053 101.4097863 106.9066751  90.6941431 101.2931137
 107.0036700  91.4694066 101.3588746 112.9440269  76.7275608  96.9550137
 113.6726430  76.5491563  96.5088294 113.0335162  77.5693688  97.1657315
 113.0646931  76.8259487  96.9203655 116.9248570  87.6628996 100.8582431
 117.6806085  88.0960510 100.8971340 117.0310894  87.0133766 101.4317067
 117.0518740  87.6306480 100.9480457 102.9044830  88.2038286 105.8171828
 102.6383245  87.3877403 105.9762819 102.9183394  88.2491442 104.9467344
 102.8669552  88.0895191 105.7125310 119.8826224  78.5316101 103.8514262
 120.5252132  78.6014206 104.4376177 120.1349245  77.8645324 103.3493804
 120.0148356  78.4442450 103.8641541 106.8102577  83.0023370  92.4323586
 106.0960754  82.7161550  92.8446019 107.2946546  83.3419996  93.0729974
 106.7761940  83.0105020  92.5879221 107.6543436  81.7416664 108.4638836
 106.9615233  81.2713644 108.7099568 108.2703764  81.5154969 109.0380543
 107.6427966  81.6383796 108.5847989 123.0973087  88.2083193 100.5004471
 123.7589521  87.6473861 100.4000380 122.4564499  87.7135224 100.8257163
 123.1001955  88.0519602 100.5336812 113.9849895  91.5053324  92.8085395
 114.4001043  91.1738348  92.1169890 113.1541825  91.2722227  92.6805531
 113.9237904  91.4224580  92.6876242 103.3138244  88.9897065 103.0983573
 103.1313817  88.9643951 102.2455865 104.0487913  89.4596003 103.1372481
 103.3952308  89.0558428 102.9781491 119.3837918  89.2248575 100.2416460
 119.6193507  89.3693774  99.4143311 119.5327482  89.9890983 100.6347974
 119.4403721  89.3587630 100.1780064 121.2128375  88.0650241  98.0786064
 121.5436592  88.5977881  97.4726159 121.7861463  88.1189129  98.7348015
 121.3462054  88.1519810  98.0863846 116.4260264  85.9115144  98.7609644
 116.5207118  86.6504438  99.2149270 115.8019107  85.4832619  99.1944209
 116.3469294  85.9576465  98.8917792 103.2809154  85.8690566 103.2482639
 103.8582657  85.7327017 103.8874885 102.5823216  85.4126350 103.5028224
 103.2630175  85.7812832 103.3804929 116.6783285  87.7563884  91.9946596
 116.5963448  87.8266071  92.8601583 117.3163006  88.3193628  91.8030337
 116.7603122  87.8502855  92.0936546 110.0376456  87.5224622 101.4621122
 109.7795700  86.6896357 101.4352422 110.0924939  87.7482235 100.6213623
 110.0076234  87.4322393 101.3341259 115.1177506  79.6253072 101.5625215
 114.4133833  79.1362258 101.7209134 115.1662481  79.6375547 100.6913660
 115.0207558  79.5542720 101.4564555 109.0111168  85.0762384 101.9486017
 108.4360760  85.2354553 102.5849978 108.6346845  84.4397793 101.4854468
 108.8713981  85.0060197 101.9740576 112.6784457  83.5485734 106.8078396
 112.2898890  83.1239951 106.1530587 112.0139155  83.7967883 107.3155422
 112.5231385  83.5224455 106.7866264 122.3207726  83.3060738  99.5826226
 122.0644291  82.4940680  99.3924108 123.1637040  83.3138305  99.3556413
 122.4073752  83.1872736  99.5211043  98.7567987  84.7202459  99.9630458
  98.8428239  84.3434327 100.7443988  99.3843785  84.3462905  99.4850416
  98.8624538  84.6087941 100.0075935 116.5010819  77.2460362 104.3202380
 116.8821330  76.5638533 104.7070254 115.6974103  76.9569964 104.1378044
 116.4387280  77.1027411 104.3506436 113.7823395  87.7784338  95.0055203
 114.5964034  88.0699231  94.8937974 113.7182536  87.1244200  94.4313496
 113.8926134  87.7249533  94.9044040 109.6531303  91.2505856 100.1327515
 110.2905250  91.0117603 100.6779308 110.0786375  91.4543014  99.3980675
 109.8107470  91.2456866 100.1044672 104.3443946  93.4894192 104.0161818
 104.3848091  93.7609043 103.1881598 104.9038470  94.0136100 104.4319606
 104.4327292  93.6069947 103.9553707 110.2934119  86.4708145  94.4702404
 110.6779271  86.2515852  95.2218949 110.0445739  87.2971091  94.6003480
 110.3136191  86.5606292  94.6003481 112.0352775  91.7278278 101.8121301
 112.1091784  91.5653450 102.6663151 112.8522282  91.9168468 101.5681783
 112.1669134  91.7315021 101.9019327 105.7958532  92.0736141  98.8415744
 104.9696650  92.3197878  98.7150023 105.8570523  91.9948222  99.7077803
 105.6832699  92.0981090  98.9504689 108.0134556  78.1405082  99.8011185
 107.1456981  78.2127681  99.8668794 108.3009760  78.9427161  99.9899160
 107.9274304  78.2699229  99.8385951 117.1367445  78.2882941 108.1322506
 117.8821037  78.0992752 107.7185932 116.7204749  78.8141179 107.5736363
 117.1852419  78.3385087 107.9887080 110.5757361  94.6913021  96.5434774
 110.8655660  94.3002003  95.8194001 111.3060842  94.8729726  96.9840050
 110.7264245  94.6606835  96.5017581 108.5163277  96.6680404  99.6094924
 108.2963572  96.3777758 100.4021591 108.2957799  96.0095359  99.0812836
 108.4510871  96.5280112  99.6483833 107.4280224  88.7553720 101.8750626
 107.1393473  88.1291191 102.4096353 108.2963572  88.6974008 101.9415306
 107.5140476  88.6541264 101.9641580 118.2158122  83.8988504 102.1932608
 117.8722888  83.1778839 102.5439857 118.3151164  83.6902355 101.3510966
 118.1800165  83.7612707 102.1204288 110.6831232  98.0409794  98.3925616
 111.3355290  97.5086236  98.6216643 109.9856841  97.6878446  98.7793490
 110.6761950  97.9099317  98.4837784 107.6312497  90.3948971  97.7992991
 108.3858465  90.7762010  98.0128453 107.0383110  90.8460115  98.2539687
 107.6549211  90.5177799  97.8975869 118.6771151  90.3614208  97.7356596
 119.2429183  91.0207418  97.6515139 118.0299054  90.7063906  98.2072998
 118.6649907  90.5096149  97.7929352 108.9510724  91.5657533 103.1733106
 108.4291477  91.7057824 103.8584971 109.3384744  90.8068197 103.3635224
 108.9314425  91.4743056 103.3034183 105.9401908  81.6163341  97.2428061
 105.6526704  81.2464612  96.5060008 106.6272376  82.0858197  96.9811766
 105.9990805  81.6310311  97.0943137 115.1477729  93.3052992  97.1593675
 114.9064405  92.5720852  96.7520740 115.3279062  93.8539849  96.5060008
 115.1385353  93.2775383  97.0023898 110.3777050  88.5961552  98.5714597
 110.1819832  89.2036286  97.9774900 110.6011395  87.9029496  98.0906271
 110.3811691  88.5839077  98.4130678 108.7755580  85.4816290  98.6895466
 109.4978231  85.6457448  98.2299272 108.2963572  86.2025954  98.5834805
 108.8119310  85.6114519  98.6061080 116.7349087  81.8180088 104.0692150
 115.8960188  81.8441367 103.8330414 116.8053454  82.4650824 104.6497497
 116.6217481  81.9176214 104.1201267 115.1818365  78.7165465  98.8019766
 115.8844718  78.5173214  98.3239725 114.9162554  77.9441408  99.1088610
 115.2464998  78.5728431  98.7765208 120.6106611  87.0248075 101.3553392
 120.5240585  87.1803501 102.2088171 120.1557091  87.6686151 100.9812797
 120.5309868  87.1423830 101.4260499 103.5130103  82.3944554  98.0913342
 103.6146239  83.1970715  98.4194317 104.3085989  82.1931890  97.7936422
 103.6458008  82.4830453  98.0948697 109.9446922  79.9800751 107.8550647
 109.7530119  79.9955885 108.7050071 110.7945518  80.1764425 107.8317302
 110.0422644  80.0115102 107.9773942 104.3293835  82.5091732 105.8334463
 104.1879326  81.6575673 105.9578971 104.6134398  82.5520393 105.0096669
 104.3501681  82.3891482 105.7302088 114.4832427  84.3458822  99.9778952
 114.2367141  84.2654573 100.8115741 114.8117550  83.5612290  99.7841479
 114.4953671  84.2185088 100.0726475 119.8733849  90.4120435  94.5282232
 119.4940657  89.6257573  94.5211522 119.2100094  90.9607292  94.3853876
 119.7192323  90.3765259  94.5063029 112.8551149  80.1756260 108.0622470
 113.3123763  80.9080234 108.1895262 112.9307477  79.7522725 108.8209726
 112.9342119  80.2213498 108.1923547 105.0984140  80.4222080 109.1511914
 104.5626329  79.8102438 109.4672681 105.1601905  80.9970216 109.8045580
 105.0279773  80.4169007 109.2947341 117.3278475  73.3546135 101.9316313
 117.4462043  73.8122598 101.1983616 117.1540650  72.5491396 101.6452531
 117.3197646  73.3039907 101.7817247 112.6980757  93.9633954  98.3671058
 113.4630648  93.6943598  98.0453723 112.5958847  93.4783965  99.0841121
 112.7962252  93.8523519  98.4250886 110.7333527  82.1658364 104.9064294
 109.9429601  81.9849824 105.2281630 111.1294149  81.3885316 104.8894589
 110.6750403  82.0245825 104.9516843 115.2199417  90.9946138  90.3471008
 115.9872402  91.0546263  89.9376860 114.7730726  90.4226580  89.8627326
 115.2672845  90.9182714  90.2148718 118.1193947  92.6565926  94.8633918
 118.2013785  93.4632913  94.5395369 118.6043690  92.6761886  95.5874692
 118.2031105  92.7786589  94.9220817 111.9290451  87.3350762 103.5303996
 111.5052700  87.5355261 102.7943014 111.7535306  86.4879610 103.6428296
 111.8401331  87.2399544 103.4377686 107.2172896  87.8302814  98.9631969
 107.3737515  87.7649616  99.8187961 107.5573489  88.6051366  98.7510648
 107.2906131  87.9352012  99.0586563 113.7552040  87.2060697  97.8325332
 114.2967586  86.7031078  98.2963952 114.0698599  87.1525892  97.0214817
 113.8816437  87.1240118  97.7809144 111.9238490  92.5978049  95.1165360
 111.9931310  91.7392587  95.2558360 112.7026945  92.8149930  94.7884384
 112.0491340  92.5030913  95.0882517 103.7907157  85.0137764  99.2792736
 104.1706122  85.4322309  98.6153003 103.2162522  85.5951220  99.5861579
 103.7618482  85.1615623  99.2269477 116.4785652  91.5865739  99.2707884
 116.1200307  91.7580382 100.0471916 115.9924363  92.0478945  98.7135882
 116.3544349  91.6804710  99.3033153 114.2956038  75.2096937 102.8734975
 113.4249596  75.1835659 102.8268284 114.5496380  75.0374130 102.0560821
 114.2049598  75.1807081 102.7455112 111.2674018  87.2664904  91.8108118
 111.5566543  88.0429787  92.0851692 111.3545817  86.7553636  92.5122617
 111.3228274  87.3056823  91.9550616 111.3205179  77.2203166 104.3308445
 110.8043667  76.5283357 104.4560024 110.7599108  77.8873943 104.2771044
 111.1611692  77.2166424 104.3414511 113.3897412  77.7596126 106.1601298
 113.0029165  77.7845157 106.9414828 112.9030350  77.1937805 105.7075815
 113.2609921  77.6791877 106.2089202 113.0554554  74.6463111 108.4511558
 113.6847672  75.1823411 108.1732628 113.2240417  74.5540470 109.3025124
 113.1732349  74.7124474 108.5360086 107.4337959  86.5798169 103.9108230
 106.5925965  86.4802043 104.1187124 107.6427967  87.3493649 104.2622551
 107.3402651  86.6790212 103.9935545 104.9113526  84.2017706 101.7392981
 104.5170223  84.2760718 100.9643090 104.3553643  84.5875652 102.2901343
 104.7716338  84.2699480 101.7060641 116.5478473  77.1799000 101.4196860
 116.7528066  77.1121308 102.2653857 116.2204896  77.9857821 101.3518037
 116.5293720  77.2884940 101.5356515 111.2454624  84.5079568 103.1605828
 110.9417761  83.9535556 103.7616235 110.5434044  84.6871778 102.6733862
 111.0970833  84.4524350 103.1775533 110.3020721  81.8180088  97.7250529
 110.5780455  81.0999000  97.3128097 110.9019390  82.4165008  97.5171636
 110.4313985  81.8000459  97.6331291 119.8012160  77.7330764 100.8999625
 119.1886474  78.2201166 101.2853357 119.8976335  77.0574255 101.4437276
 119.7250058  77.7049073 101.0378483 113.8031241  79.4893605  95.9997125
 114.2574988  79.6604166  96.7244969 114.2771287  78.8761716  95.5994900
 113.9399561  79.4244491  96.0470886 107.3246767  88.9741931 105.3299863
 106.7334700  89.6151429 105.3002878 108.0867790  89.3979548 105.3031163
 107.3495027  89.1317770 105.3215010 107.7207389  80.1343929 105.9967881
 108.1808871  80.2082858 106.7343004 107.7663496  80.9325183 105.6467702
 107.7957945  80.2638076 106.0540637 111.1444261  86.1936140  97.1042132
 111.8886306  86.5810416  97.3425082 111.2904957  85.3493565  97.2682620
 111.2754846  86.1266612  97.1636101 113.0623837  77.9886399 102.1373993
 112.2159882  78.1609206 102.0115343 113.0594969  77.1835742 102.4739821
 112.9370987  77.8947427 102.1685120 114.1322137  81.7661613 103.0036051
 113.6582091  81.2403375 103.5141362 114.5040273  81.2191086 102.4350913
 114.1172026  81.6077610 102.9951198 104.5095167  83.7633120 108.3719597
 105.3720780  83.6628829 108.2856927 104.1786950  83.1827829 107.8105169
 104.5880364  83.6624746 108.2765003 116.0605637  82.6598168  96.0661805
 115.5328655  82.7426912  95.3767514 116.5201345  83.4016039  96.0626450
 116.0507487  82.7818830  95.9636500 122.3964055  83.6065446 102.3672091
 122.1573825  83.5661280 101.5292875 122.5597956  84.4536598 102.4937812
 122.3854358  83.7257531 102.2625573 107.8696953  82.5875569 105.0330015
 107.2450023  82.5993961 104.4255968 107.5342548  83.0635744 105.6821255
 107.7282445  82.6594086 105.0386584 108.0538702  80.9300687  91.0902700
 107.7051506  81.5820412  91.5534249 107.5735148  80.9157800  90.3626571
 107.9308946  81.0243741  91.0513791 104.5822629  90.6476029 106.4733779
 104.0522553  89.9568468 106.5228754 104.8547722  90.6386214 105.6446488
 104.5447351  90.5443161 106.3581195 115.6142719  91.2301731  95.1971462
 116.3376918  91.6959844  95.0536035 115.1743310  91.2975341  94.4469059
 115.6558411  91.3085568  95.0656243 107.1387699  84.1968716 107.2504884
 107.2981185  83.4412041 107.6556605 106.9580592  84.7459656 107.9045621
 107.1353058  84.1662530 107.4067590 115.0808002  76.3629952 107.8055673
 114.5848563  76.5593626 107.1147240 115.8377064  76.7622620 107.6344475
 115.1194826  76.4507686 107.6775810 112.3510881  80.0372298 104.3958984
 112.3753368  79.5032410 103.7071764 112.6022355  79.5289607 105.0584574
 112.3920800  79.8833202 104.3923628  99.8618471  87.3203793 103.8302128
  99.7561920  87.2750637 102.9654212  99.1118691  87.6657573 104.1116413
  99.7354074  87.3644701 103.7439457 108.6312203  78.7643116 103.7764728
 108.6710575  79.2652323 104.4899435 107.8061868  78.8553510 103.5070651
 108.5151729  78.8524932 103.8415266 110.0526567  85.2803626 106.0738627
 109.2218496  85.4477444 105.8673875 109.9978084  84.9039577 106.8587512
 109.9215982  85.2493357 106.1587155 107.8610350  78.7712519 111.7095038
 108.4863053  78.2274652 111.9824470 107.4060830  78.2907436 111.1402828
 107.8858611  78.6202000 111.6656631 108.4262611  83.5559218  96.6028745
 108.5665572  84.0531682  97.3057386 108.9245143  82.8545512  96.7442958
 108.5203692  83.5261196  96.7280324 108.4562833  84.4226329  93.9321321
 109.0907912  85.0186754  93.8670783 108.5388444  84.1229786  94.7467192
 108.5619384  84.4667237  94.0424408 110.0341816  80.3540304  93.9066763
 110.3557657  79.8743386  93.2526026 110.2968760  81.1639950  93.7157575
 110.1207841  80.4030202  93.7822255 115.4300971  79.7412498 106.2690242
 115.8556042  79.2885024 105.6573769 114.8157964  79.1872569 106.5455030
 115.4029616  79.5926474 106.2195268 104.9615821  86.6194169  97.2010867
 105.4708050  87.2158677  97.5822173 105.4350093  86.3520143  96.5187287
 105.1059197  86.6679985  97.1565390 115.8746569  95.2922436  95.3569523
 115.1575879  95.1183298  94.8916760 116.5253307  95.0575008  94.8245009
 115.8648419  95.2318229  95.2098741 113.8695194  76.2127598  99.6780819
 113.2263512  76.0625244 100.2465958 113.5294601  75.9669943  98.9129924
 113.7240271  76.1539720  99.6483835 118.4594540  84.1687025  99.1010828
 117.7885730  84.7116727  98.9723894 119.1534290  84.6381880  98.8592523
 118.4623408  84.3185296  99.0466356 118.6222668  80.6242908 102.0101201
 118.9750278  80.1972631 102.6847000 117.7637469  80.5393752 102.1402278
 118.5472112  80.5487649 102.1296212 107.3206353  83.2550428 100.0684048
 106.6018342  83.6714560 100.3356911 107.6918715  83.8204667  99.5175686
 107.2698284  83.3999709 100.0266855 113.0952927  82.2948428  95.4057427
 112.5017766  82.6165424  94.8541994 113.1328205  81.4489523  95.1978533
 113.0127316  82.2172756  95.2940199 120.0546728  75.7461320 102.9385514
 119.5477592  75.0390460 102.8706691 120.8514161  75.4154509 103.0686590
 120.0973967  75.5934471 102.9484509 115.9710744  82.2527932  98.8359178
 115.7424437  82.2760634  97.9937536 116.2308820  81.4285399  98.9554188
 115.9756932  82.1344012  98.7284375 109.0255506  80.7904479 100.1313373
 109.5012872  81.1521558  99.4963554 108.5244106  81.4460946 100.4113516
 109.0220865  80.9398667 100.0790114 122.2566868  90.2626247  95.9226378
 122.6400473  91.0117603  96.1524475 121.4610981  90.5092066  95.6638367
 122.1960650  90.4095940  95.9183952 101.9997751  85.4546846 106.3475129
 101.4524471  84.7847492 106.4655998 102.7890129  85.0876694 106.4118597
 102.0349935  85.3011833 106.3743830 111.0682159  82.9345678  93.4986757
 111.4481124  82.9525308  92.7137872 110.3274755  83.3799667  93.3777604
 111.0150997  83.0027453  93.3650325 118.6967450  81.2427870  99.0862336
 118.6961676  81.0876526  99.9446612 118.4923630  82.0890857  99.0303721
 118.6667228  81.3448490  99.2050275 100.7584721  84.6667654 103.5021152
 100.5806482  84.2144263 104.2276068 100.4703743  85.4693815 103.6859630
 100.6897674  84.7190212 103.6364655 116.4208302  85.9225371 102.7398543
 116.9161967  85.2048366 102.7002563 115.6108078  85.6196169 102.6253030
 116.3752195  85.7723018 102.7172269 111.8666913  89.7723185  94.8895547
 111.0578236  89.4489858  94.8428857 112.3741822  89.0656407  94.8223796
 111.8216580  89.6204501  94.8725842 102.4957191  87.1995378 100.6142911
 101.6302710  87.1881068 100.5025683 102.5956006  87.0125601 101.4614051
 102.3831358  87.1701439 100.7231856 111.9908215  77.1590794 108.7134924
 112.1236121  76.3621787 109.0415899 112.3753368  77.6857197 109.2933199
 112.0664544  77.1190710 108.8478427 115.0640570  74.0821120 105.3116017
 114.2586534  73.9718849 105.6283855 114.9347306  74.1833576 104.4545883
 114.9260703  74.0804790 105.2324057 118.5206531  80.2466612 105.9055714
 117.9369520  80.7475818 105.4933281 118.8410825  79.7396168 105.2720037
 118.4819706  80.2458447 105.7514221 111.0601330  79.1607207  96.1814389
 111.8817024  79.3305519  95.9396084 110.5970981  79.3154468  95.4580686
 111.1132492  79.2088940  96.0386033 109.6496662  77.1549969 106.9612817
 110.1941075  76.8141096 107.5517159 109.7033598  78.0135430 107.1034102
 109.7385781  77.2305228 107.0694691 105.4627221  90.9166385 103.8351625
 106.0672078  90.8762219 103.2065446 105.2554533  91.7637537 103.8655681
 105.5216118  91.0354387 103.7467742 100.6978503  89.9001002 103.7050549
 100.6002781  89.0897274 104.0140605 101.4807373  89.8792796 103.3196817
 100.7994639  89.7768093 103.6937411 119.8816069  92.8364187  97.2223000
 120.6362037  93.2042504  96.9840051 119.7043603  93.2103741  97.9902180
 119.9670547  92.9462375  97.3007889 118.2373134  95.2434506  93.9201113
 118.0548707  95.4606387  93.0942106 119.0998747  95.3573518  93.9759728
 118.3377723  95.2924404  93.8055600 123.9172853  92.2460916  96.9550137
 124.6459013  92.0676871  96.5088294 124.0067746  93.0878996  97.1657315
 124.0379515  92.3444795  96.9203655 117.7835161  98.5208678  92.4323586
 117.0693338  98.2346858  92.8446019 118.2679129  98.8605304  93.0729974
 117.7494524  98.5290328  92.5879221 116.9134492  97.1348649  97.2428061
 116.6259287  96.7649920  96.5060008 117.6004960  97.6043505  96.9811766
 116.9723389  97.1495619  97.0943137 119.0271285  96.4485995  91.0902700
 118.6784090  97.1005720  91.5534249 118.5467731  96.4343108  90.3626571
 118.9041529  96.5429049  91.0513791 119.4295417  99.9411636  93.9321321
 120.0640496 100.5372062  93.8670783 119.5121027  99.6415094  94.7467192
 119.5351968  99.9852545  94.0424408 121.0074399  95.8725612  93.9066763
 121.3290240  95.3928694  93.2526026 121.2701343  96.6825258  93.7157575
 121.0940425  95.9215510  93.7822255 122.0414743  98.4530986  93.4986757
 122.4213708  98.4710615  92.7137872 121.3007339  98.8984975  93.3777604
 121.9883581  98.5212761  93.3650325 122.0333913  94.6792514  96.1814389
 122.8549608  94.8490827  95.9396084 121.5703564  94.8339775  95.4580686
 122.0865076  94.7274247  96.0386033  53.1880790  -6.7098166  85.4686948
  52.4363690  -7.0882628  85.2402993  53.6366802  -6.6779732  84.7205758
  53.1430457  -6.7612559  85.3244450  58.1810041  -4.3358528  86.8383607
  58.5649421  -3.7671629  86.2988382  58.1169183  -5.0609017  86.3589423
  58.2283469  -4.3583064  86.6877469  54.6066286  -1.7802185  89.1364576
  55.2503741  -1.3389020  89.5260735  54.9322541  -2.5848758  89.0494835
  54.7498115  -1.8336990  89.1810054  49.5247915  -5.7973816  88.6358260
  49.0415494  -5.0723327  88.6117844  50.3371234  -5.4997686  88.7468418
  49.5738663  -5.6471463  88.6485539  52.3792113  -5.2817640  88.7878540
  53.0812692  -5.7965651  88.8451297  52.2989596  -4.9543489  89.5925415
  52.4715873  -5.3103414  88.9151332  49.1731852  -7.1654216  90.9501865
  49.2135997  -6.8939365  90.1221645  49.7326376  -6.6412308  91.3659653
  49.2615198  -7.0478461  90.8893753  53.3451183  -3.9868005  86.5434971
  53.1251478  -4.2770650  87.3361638  53.1245705  -4.6453050  86.0152883
  53.2798777  -4.1268296  86.5823880  55.5119139  -2.6138615  85.3265663
  56.1643197  -3.1462173  85.5556689  54.8144747  -2.9669963  85.7133537
  55.5049856  -2.7449092  85.4177831  54.3445115  -5.3830096  93.1903008
  54.4934679  -5.9427180  92.5376413  55.1245117  -5.3038094  93.5735527
  54.4819209  -5.4544530  93.1499958  56.2590050  -1.8047133  92.9265500
  56.7485981  -2.5036344  92.7441165  55.6874283  -2.1023263  93.5141557
  56.2474580  -1.9520910  92.9866541  57.3369180  -4.3464672  91.2662633
  57.1134834  -5.1045843  91.6346660  56.8479023  -4.3166651  90.5443073
  57.2312629  -4.4542447  91.2139374  55.9847637  -4.1264214  88.7199718
  55.5708036  -4.7890084  88.3303559  56.6695011  -3.9786355  88.1995412
  56.0246009  -4.2023556  88.5856215  52.9502107  -3.6855132  91.1213064
  53.2648665  -2.8718744  91.1290846  53.3595520  -4.0704913  91.7895223
  53.0570205  -3.6226430  91.2217155  64.1613374   8.8087142  85.4686948
  63.4096273   8.4302680  85.2402993  64.6099385   8.8405576  84.7205758
  64.1163041   8.7572749  85.3244450  73.0865951   5.5410950  99.3110172
  73.7932718   5.0462981  99.4397107  73.2753886   5.9820031  98.5812830
  73.2193856   5.5329300  99.2219218  69.6138334   9.2312512  80.8972495
  69.2789702   9.9089433  80.4616717  70.1265204   8.8417823  80.3089367
  69.6403915   9.2737090  80.7459287  69.1542625  11.1826780  86.8383607
  69.5382004  11.7513679  86.2988382  69.0901766  10.4576291  86.3589423
  69.2016052  11.1602244  86.6877469  72.6224055   1.3316468  92.3481368
  73.1680015   2.0101555  92.4075338  72.5640931   1.1903929  91.4882950
  72.6939969   1.4108470  92.2293429  65.7398130   8.8205534  87.7349720
  65.8408493   8.0105888  88.0446848  65.1439875   8.7262481  87.1049399
  65.6670669   8.6870562  87.6875959  74.3989124   2.7601075  83.2215096
  74.2828650   3.5108761  83.6507234  75.1945010   2.5025029  83.4711183
  74.4993713   2.8335922  83.3219187  65.5798870  13.7383123  89.1364576
  66.2236325  14.1796287  89.5260735  65.9055125  12.9336550  89.0494835
  65.7230698  13.6848318  89.1810054  58.9363174   4.8425821  87.3602054
  58.7013359   4.0093473  87.2534323  59.0748815   5.1230486  86.5463255
  58.9218837   4.7609324  87.2244409  61.2353262  -2.9888449  90.2586362
  60.6158293  -3.5795801  90.0896377  61.1337125  -2.3977013  89.6250685
  61.1290937  -2.9884366  90.1391351  66.2819449   6.7495098  84.5084438
  66.6035290   7.2900306  83.9045746  66.9291546   6.1791870  84.6406728
  66.4245504   6.7454273  84.4391474  60.9622395   0.5563833  92.5029931
  60.8381092   1.1426279  93.1379750  61.6140679   0.0624029  92.8042206
  61.0396044   0.5702638  92.6415860  68.5209093   5.1381538  84.5798616
  68.9602728   4.5298639  85.0253389  68.3713756   4.7588912  83.8084081
  68.5630558   4.9920009  84.5317784  65.9880736   3.7325550  91.7817442
  66.6329738   3.2397993  91.4628390  66.2282513   3.8750337  92.6083520
  66.1191321   3.6802992  91.8566975  68.5266827   6.5780456  91.4324334
  68.8090070   5.7831862  91.2111090  69.2552987   7.0561043  91.4529395
  68.6756391   6.5315053  91.4027350  72.1218429   3.4908720  81.5329386
  72.0369724   4.3469686  81.6778954  72.6102812   3.2153044  82.2011545
  72.1807326   3.5766041  81.6531467  78.5084915   5.6839818  88.4060165
  77.6782618   5.8950462  88.5693582  78.4594168   4.8576873  88.1302449
  78.3791651   5.5929424  88.3897531  64.9436470   4.0056730  81.8334589
  64.3593685   4.5106762  82.2400453  64.5406565   3.7799117  81.0931181
  64.7975774   4.0464979  81.7839614  60.4980499   9.7211492  88.6358260
  60.0148077  10.4461981  88.6117844  61.3103817  10.0187622  88.7468418
  60.5471247   9.8713845  88.6485539  66.5694653   8.5143672  91.2408075
  66.0521595   8.1551087  90.6369383  67.2669044   7.9905847  91.2514141
  66.5960234   8.3841360  91.1538333  70.2258245   8.9638486  97.2024248
  70.3141591   8.7764627  98.0502458  70.6547957   8.3175916  96.8029095
  70.3020347   8.8401494  97.2695999  67.7928705   8.2469646  96.1841910
  67.2299539   7.8342256  96.7081571  68.5549728   8.1722552  96.6035053
  67.8223153   8.1747047  96.3234910  69.4013685   0.2522383  80.3103509
  69.6409688   0.4600366  79.4978852  69.7229526  -0.5520109  80.4192454
  69.4850843   0.1636484  80.2064062  63.3524696  10.2367668  88.7878540
  64.0545275   9.7219657  88.8451297  63.2722179  10.5641819  89.5925415
  63.4448457  10.2081894  88.9151332  64.4003603   0.4743254  97.9158955
  64.5724106   0.3649149  98.7644237  64.9372960   1.1197660  97.6790148
  64.5048607   0.5535256  98.0064052  62.6775472   6.4274019  88.2964148
  63.5164371   6.6596952  88.3437910  62.7087241   5.5578331  88.2271184
  62.8057189   6.3330966  88.2928793  63.3028175   6.8474895  92.5977454
  63.8426400   6.7046026  93.2680826  62.6198121   7.2471645  92.9661480
  63.2820328   6.8854566  92.7511875  72.7269059   2.5265895  87.7922478
  73.4826574   2.9597410  87.8311387  72.8331384   1.8770665  88.3657114
  72.8539230   2.4943379  87.8820504  75.7649231   6.3539173  88.5424881
  75.3284462   6.3575915  89.2983852  75.4312146   7.0344672  88.1104458
  75.6511851   6.4551628  88.5905714  70.3378304   8.3947505  99.8668031
  71.1218721   8.5078353 100.2323773  70.1374899   7.5688642 100.0626717
  70.4244330   8.2894225  99.9502417  58.7065320   3.0675185  92.7511875
  58.4403735   2.2514302  92.9102865  58.7203884   3.1128341  91.8807391
  58.6690042   2.9532090  92.6465357  62.6123067  -2.1339730  79.3663633
  61.8981244  -2.4201551  79.7786066  63.0967035  -1.7943104  80.0070021
  62.5782430  -2.1258080  79.5219268  70.4948698  10.3057607  93.5134487
  69.6963943  10.0657108  93.7708356  70.9434709  10.3572000  94.2601535
  70.4423309  10.2779999  93.6619411  78.8993577   3.0720092  87.4344518
  79.5610011   2.5110761  87.3340427  78.2584989   2.5772123  87.7597209
  78.9022444   2.9156501  87.4676858  69.7870385   6.3690224  79.7425441
  70.2021533   6.0375248  79.0509937  68.9562314   6.1359126  79.6145578
  69.7258393   6.2861480  79.6216289  59.1158733   3.8533965  90.0323619
  58.9334307   3.8280851  89.1795912  59.8508402   4.3232903  90.0712528
  59.1972797   3.9195327  89.9121538  75.1858407   4.0885475  87.1756507
  75.4213997   4.2330674  86.3483358  75.3347971   4.8527883  87.5688021
  75.2424211   4.2224529  87.1120111  62.1804485   0.5718968  96.5405728
  62.9044457   0.5571998  97.0270623  62.2820621   1.2814323  96.0427696
  62.3022694   0.6743671  96.5384515  77.0148864   2.9287141  85.0126111
  77.3457081   3.4614781  84.4066206  77.5881952   2.9826029  85.6688062
  77.1482543   3.0156710  85.0203893  69.5549434   4.0518052 101.4054675
  68.7622415   4.3661564 101.5907295  69.6698361   4.2669521 100.5675460
  69.4544845   4.1301889 101.3093010  72.2280753   0.7752044  85.6949691
  72.3227608   1.5141338  86.1489316  71.6039597   0.3469519  86.1284255
  72.1489783   0.8213364  85.8257838  70.4833227   3.9538256  96.3439972
  71.0572089   3.3165500  96.4988536  70.4048031   3.9542339  95.4749629
  70.5566462   3.8603368  96.2386383  59.0829644   0.7327466  90.1822686
  59.6603146   0.5963916  90.8214931  58.3843705   0.2763250  90.4368270
  59.0650665   0.6449732  90.3144976  72.4803775   2.6200783  78.9286643
  72.3983937   2.6902970  79.7941630  73.1183495   3.1830527  78.7370384
  72.5623612   2.7139754  79.0276592  65.8396946   2.3861521  88.3961169
  65.5816190   1.5533256  88.3692469  65.8945429   2.6119134  87.5553670
  65.8096724   2.2959292  88.2681306  64.8131658  -0.0600716  88.8826064
  64.2381249   0.0991452  89.5190025  64.4367334  -0.6965307  88.4194515
  64.6734470  -0.1302903  88.9080622  54.5588477  -0.4160642  86.8970505
  54.6448729  -0.7928773  87.6784035  55.1864274  -0.7900196  86.4190463
  54.6645028  -0.5275159  86.9415982  69.5843885   2.6421238  81.9395249
  70.3984524   2.9336130  81.8278021  69.5203026   1.9881100  81.3653542
  69.6946624   2.5886432  81.8384087  75.8053375   5.3247234  96.3524825
  75.5692012   4.4935299  96.2336886  76.4496604   5.2732841  96.9379669
  75.8648046   5.1944922  96.4210719  65.4551793   6.1142755  87.0667562
  66.0925740   5.8754503  87.6119355  65.8806865   6.3179914  86.3320722
  65.6127959   6.1093765  87.0384719  60.1464436   8.3531092  90.9501865
  60.1868581   8.6245943  90.1221645  60.7058960   8.8773000  91.3659653
  60.2347781   8.4706847  90.8893753  66.0954608   1.3345045  81.4042451
  66.4799761   1.1152752  82.1558996  65.8466228   2.1607990  81.5343527
  66.1156681   1.4243191  81.5343527  76.8289796   5.1091682  92.4153120
  76.5235613   5.8419739  92.7766435  76.1096011   4.7029612  92.1345906
  76.6777138   5.1573415  92.4266257  67.8373265   6.5915178  88.7461348
  67.9112273   6.4290350  89.6003198  68.6542771   6.7805367  88.5021829
  67.9689624   6.5951920  88.8359373  61.5979022   6.9373040  85.7755791
  60.7717139   7.1834778  85.6490070  61.6591013   6.8585121  86.6417849
  61.4853189   6.9617989  85.8844736  66.3777851   9.5549921  83.4774821
  66.6676149   9.1638902  82.7534048  67.1081332   9.7366626  83.9180096
  66.5284735   9.5243734  83.4357628  66.9672596   4.3567667  94.5627952
  66.4684290   5.0683434  94.6412840  67.7772820   4.6768333  94.5246114
  67.0128703   4.5094515  94.5684520  64.3183766  11.5317303  86.5434971
  64.0984062  11.2414658  87.3361638  64.0978288  10.8732258  86.0152883
  64.2531361  11.3917011  86.5823880  63.2300714   3.6190620  88.8090673
  62.9413962   2.9928091  89.3436400  64.0984062   3.5610907  88.8755353
  63.3160965   3.5178164  88.8981627  66.4851722  12.9046693  85.3265663
  67.1375780  12.3723135  85.5556689  65.7877331  12.5515345  85.7133537
  66.4782440  12.7736216  85.4177831  63.4332987   5.2585871  84.7333038
  64.1878955   5.6398910  84.9468500  62.8403600   5.7097014  85.1879734
  63.4569701   5.3814698  84.8315916  74.4791640   5.2251107  84.6696643
  75.0449673   5.8844317  84.5855185  73.8319544   5.5700805  85.1413045
  74.4670397   5.3733048  84.7269399  64.7531214   6.4294432  90.1073153
  64.2311967   6.5694724  90.7925018  65.1405234   5.6705096  90.2975270
  64.7334914   6.3379956  90.2374229  61.7422398  -3.5199759  84.1768108
  61.4547193  -3.8898489  83.4400055  62.4292866  -3.0504904  83.9151813
  61.8011295  -3.5052790  84.0283183  70.9498219   8.1689891  84.0933722
  70.7084894   7.4357752  83.6860787  71.1299551   8.7176748  83.4400055
  70.9405842   8.1412282  83.9363945  66.1797539   3.4598451  85.5054644
  65.9840322   4.0673186  84.9114947  66.4031885   2.7666395  85.0246318
  66.1832180   3.4475977  85.3470725  64.5776069   0.3453189  85.6235512
  65.2998721   0.5094347  85.1639318  64.0984062   1.0662854  85.5174852
  64.6139800   0.4751419  85.5401126  62.2283686   2.7511261  94.7289652
  62.7404783   3.0295515  94.0798412  61.9420028   3.4900555  95.0952465
  62.2618549   2.9013615  94.6879530  76.4127101   1.8884975  88.2893439
  76.3261075   2.0440401  89.1428218  75.9577581   2.5323050  87.9152844
  76.3330357   2.0060730  88.3600546  59.3150592  -2.7418547  85.0253389
  59.4166729  -1.9392385  85.3534364  60.1106479  -2.9431211  84.7276469
  59.4478498  -2.6532648  85.0288744  60.1314324  -2.6271369  92.7674510
  59.9899816  -3.4787428  92.8919018  60.4154888  -2.5842708  91.9436716
  60.1522170  -2.7471619  92.6642134  74.1800965   5.9179081  90.7005780
  74.0415325   6.6160127  91.2054522  73.4000963   5.7627737  90.3441962
  74.0444192   5.9979248  90.7232054  72.5179051   2.2175456  96.9528162
  72.5127089   1.3455273  96.9570588  73.2240044   2.4163626  96.4797617
  72.6224055   2.1179331  96.8835197  66.2449944   1.9452440  96.3241982
  66.3893320   2.5253648  95.6885092  66.5925592   2.3228737  97.0291836
  66.3177405   2.0873144  96.3340977  68.4169861   1.1442609  94.1067113
  67.6693175   1.3373623  93.7015391  68.5711387   0.3187828  93.8691235
  68.3292289   1.0507720  94.0112519  65.3177699  10.1355212  93.1903008
  65.4667263   9.5758128  92.5376413  66.0977701  10.2147214  93.5735527
  65.4551793  10.0640778  93.1499958  75.6754338   5.2757335  81.4622279
  75.2961147   4.4894473  81.4551568  75.0120584   5.8244192  81.3193923
  75.5212813   5.2402159  81.4403076  67.8431000  10.3069855  94.4687499
  67.7674671   9.6378666  95.0238288  67.7720859  11.0087643  94.9828166
  67.8211606  10.3114762  94.6264347  68.5001246   8.8270854  85.3011105
  69.2651138   8.5580498  84.9793770  68.3979336   8.3420864  86.0181168
  68.5982742   8.7160418  85.3590933  71.0219907   5.8583038  77.2811055
  71.7892892   5.9183163  76.8716906  70.5751216   5.2863479  76.7967373
  71.0693334   5.7819613  77.1488765  71.9197703   4.6637693  89.5663787
  71.2442704   4.4322926  90.0677174  71.9290079   4.0558876  88.9405892
  71.8216207   4.5396619  89.5479939  69.0491847  -0.4944478  96.3227840
  68.9850988   0.3665479  96.1947977  69.1889034  -0.8112484  95.5223391
  69.0607317  -0.4144311  96.1856053  73.9214437   7.5202826  81.7973965
  74.0034275   8.3269812  81.4735416  74.4064179   7.5398785  82.5214738
  74.0051595   7.6423488  81.8560864  67.7310940   2.1987662  90.4644043
  67.3073190   2.3992161  89.7283061  67.5555796   1.3516510  90.5768343
  67.6421821   2.1036443  90.3717733  67.2322634  13.7138175  92.9265500
  67.7218564  13.0148964  92.7441165  66.6606866  13.4162045  93.5141557
  67.2207164  13.5664398  92.9866541  63.0193385   2.6939713  85.8972015
  63.1758005   2.6286516  86.7528007  63.3593978   3.4688266  85.6850695
  63.0926620   2.7988911  85.9926609  69.5572530   2.0697597  84.7665379
  70.0988075   1.5667978  85.2303999  69.8719089   2.0162791  83.9554864
  69.6836927   1.9877018  84.7149191  73.4289637   6.2800244 101.8792291
  74.2424503   6.0085393 102.0397423  73.2684604   5.9807784 101.0752487
  73.5259586   6.1955170 101.7837697  67.7258980   7.4614948  82.0505407
  67.7951800   6.6029487  82.1898407  68.5047435   7.6786829  81.7224431
  67.8511830   7.3667812  82.0222564  72.1166467   9.8852650  86.2641900
  71.7246259   9.5819365  85.5464766  72.2719540  10.7221739  86.0746854
  72.0820057   9.9636486  86.1298397  59.5927647  -0.1225336  86.2132783
  59.9726612   0.2959209  85.5493050  59.0183012   0.4588119  86.5201626
  59.5638972   0.0252522  86.1609523  72.2806142   6.4502638  86.2047930
  71.9220797   6.6217281  86.9811963  71.7944853   6.9115844  85.6475929
  72.1564839   6.5441609  86.2373200  67.0694507   2.1301804  78.7448165
  67.3587032   2.9066686  79.0191739  67.1566306   1.6190535  79.4462664
  67.1248764   2.1693722  78.8890663  69.9654395  -0.0216962 100.5399688
  70.4354026   0.6025154 100.9267563  70.0116275  -0.6899987 101.0992903
  70.0422271  -0.0282282 100.6799760  73.4410881   7.3406534  97.1515131
  74.0790602   6.8466730  96.8177587  72.7984973   7.2683935  96.5667358
  73.4405108   7.2565543  97.0157486  73.4965138   8.0326343  93.7920488
  74.2857516   7.6815407  93.9122570  73.6708736   8.8462731  93.5297122
  73.6385420   8.1012200  93.7708356  63.2358448   1.4435068  90.8448277
  62.3946455   1.3438943  91.0527171  63.4448456   2.2130549  91.1962598
  63.1423141   1.5427112  90.9275592  60.7134015  -0.9345395  88.6733028
  60.3190713  -0.8602383  87.8983137  60.1574132  -0.5487448  89.2241389
  60.5736828  -0.8663620  88.6400687  67.0475113  -0.6283532  90.0945874
  66.7438251  -1.1827544  90.6956282  66.3454534  -0.4491322  89.6073909
  66.8991323  -0.6838750  90.1115580  65.1093464   6.5866188  94.8017972
  65.0013819   6.5968250  95.6680030  65.3189246   7.4120969  94.6122926
  65.1243575   6.7107263  94.9022064  63.1267256   3.8378831  92.2639910
  62.5355190   4.4788329  92.2342925  63.8888280   4.2616448  92.2371209
  63.1515517   3.9954669  92.2555057  79.2457678   3.6684600  93.2617188
  79.3040802   4.1171249  94.0077165  78.6124145   4.0783413  92.8247268
  79.1608973   3.7958335  93.3069736  72.8856773   9.2888142  89.6971934
  72.6876461   9.7778957  89.0028146  72.2644484   9.4929384  90.2756068
  72.7644337   9.3904681  89.6795158  66.9464751   1.0573039  84.0382179
  67.6906796   1.4447315  84.2765128  67.0925447   0.2130464  84.2022666
  67.0775336   0.9903512  84.0976148  60.3115657  -1.3729981  95.3059644
  61.1741270  -1.4734272  95.2196973  59.9807440  -1.9535272  94.7445216
  60.3900853  -1.4738354  95.2105050  74.8030574   2.8552295  95.2317183
  75.5264773   2.4024821  95.0528203  74.5380537   3.1356960  94.4489511
  74.8711848   2.8303263  95.0895898  63.6717443  -2.5487532  91.9670062
  63.0470513  -2.5369140  91.3596015  63.3363038  -2.0727357  92.6161302
  63.5302935  -2.4769015  91.9726630  60.3843118   5.5112928  93.4073826
  59.8543043   4.8205367  93.4568801  60.6568212   5.5023114  92.5786535
  60.3467841   5.4080060  93.2921242  71.4163209   6.0938631  82.1311509
  72.1397408   6.5596744  81.9876082  70.9763800   6.1612240  81.3809106
  71.4578901   6.1722467  81.9996290  70.5849364   2.9536173  93.3812198
  69.9706357   2.4094223  93.6760833  71.1016649   2.4400409  92.9018014
  70.5705026   2.7972582  93.3536426  69.8245661   4.0240443  91.1156496
  69.3973269   3.3990161  90.6821932  69.8170605   3.7415365  91.9415504
  69.7604802   3.8893223  91.1736324  62.9408188  -0.9394384  94.1844930
  63.1001675  -1.6951060  94.5896652  62.7601082  -0.3903445  94.8385668
  62.9373547  -0.9700570  94.3407636  55.6638961   2.1840692  90.7642174
  55.5582410   2.1387537  89.8994258  54.9139181   2.5294473  91.0456459
  55.5374564   2.2281600  90.6779504  66.6162306   3.1940756  98.8125069
  65.7657936   3.3312470  98.9482714  66.7790434   2.4604534  99.2572771
  66.5146169   3.1054857  98.8980668  65.8547056   0.1440525  93.0078674
  65.0238986   0.3114343  92.8013922  65.7998574  -0.2323524  93.7927559
  65.7236471   0.1130257  93.0927202  64.2283100  -1.5803883  83.5368791
  64.3686061  -1.0831419  84.2397433  64.7265633  -2.2817589  83.6783005
  64.3224181  -1.6101904  83.6620370  64.2583323  -0.7136772  80.8661368
  64.8928402  -0.1176347  80.8010830  64.3408933  -1.0133314  81.6807238
  64.3639874  -0.6695864  80.9764455  69.0659278   6.2396078  94.3605626
  68.5584369   6.7931925  94.8046257  68.7685924   6.3004368  93.5424401
  68.9464163   6.3302389  94.3054083  60.7636311   1.4831069  84.1350914
  61.2728540   2.0795576  84.5162220  61.2370583   1.2157042  83.4527334
  60.9079686   1.5316884  84.0905437  71.6767059  10.1559335  82.2909570
  70.9596368   9.9820198  81.8256807  72.3273796   9.9211908  81.7585056
  71.6668909  10.0955128  82.1438788  68.3101764  11.1720636  91.2662633
  68.0867418  10.4139465  91.6346660  67.8211607  11.2018657  90.5443073
  68.2045213  11.0642861  91.2139374  63.1226842  -1.8812673  87.0024095
  62.4038831  -1.4648540  87.2696958  63.4939205  -1.3158434  86.4515733
  63.0718774  -1.7363391  86.9606902  70.3672753   5.3402368  98.8174567
  70.3268608   4.6952045  98.2319723  71.1796071   5.2838986  99.1299979
  70.4815906   5.2361335  98.7771516  66.9580220  11.3921094  88.7199718
  66.5440619  10.7295224  88.3303559  67.6427595  11.5398953  88.1995412
  66.9978592  11.3161752  88.5856215  70.3245515  10.5511179  89.4723334
  69.9261798  10.6613450  88.7044155  69.7096734  10.7593246  90.0549894
  70.1744404  10.5984747  89.4454634  66.0550462  -1.0300695  95.3724325
  65.5429365  -1.6379512  95.7309356  65.8829958  -0.3144103  95.8398300
  65.9540099  -1.0137396  95.4940548  60.9016176  -2.5863120  98.0226686
  60.7318767  -1.9261745  97.4774893  60.4582126  -2.3756559  98.7439175
  60.8115510  -2.4577138  98.0488316  78.0587357   5.1263146  82.8566425
  78.4420963   5.8754502  83.0864522  77.2631471   5.3728966  82.5978414
  77.9981140   5.2732840  82.8523999  57.8018241   0.3183746  93.2815176
  57.2544960  -0.3515609  93.3996044  58.5910619  -0.0486406  93.3458643
  57.8370425   0.1648732  93.3083877  67.6502649  -0.0208797  98.7778587
  68.4013976   0.2942880  99.0918141  67.8425226  -0.2229626  97.9512509
  67.7894063  -0.0041415  98.7021983  56.5605210  -0.4695447  90.4361199
  56.3826971  -0.9218838  91.1616115  56.2724232   0.3330715  90.6199677
  56.4918164  -0.4172889  90.5704702  72.2228791   0.7862271  89.6738590
  72.7182457   0.0685266  89.6342610  71.4128567   0.4833068  89.5593076
  72.1772685   0.6359917  89.6512315  67.6687403   4.6360084  81.8235594
  66.8598726   4.3126758  81.7768903  68.1762312   3.9293306  81.7563843
  67.6237070   4.4841400  81.8065888  58.2977680   2.0632277  87.5482958
  57.4323200   2.0517968  87.4365729  58.3976496   1.8762500  88.3954098
  58.1851847   2.0338338  87.6571903  74.2880610   3.5365958  92.3615718
  74.7135682   3.0140380  91.8086143  73.9237530   4.1346796  91.8404341
  74.2967213   3.5476185  92.2024728  63.9234690  11.8330176  91.1213064
  64.2381249  12.6466564  91.1290846  64.3328103  11.4480394  91.7895223
  64.0302788  11.8958878  91.2217155  70.8759210   7.2500223  88.6916876
  71.3470388   7.9640485  88.8606861  71.2119388   6.6498973  89.2276745
  70.9954325   7.2671687  88.7949252  72.9636194   8.8601536 100.8708948
  73.0733160   8.0710097 101.2265695  73.2927091   8.7707472 100.0683286
  73.0288600   8.7307389 100.8051339  71.5133156   7.0418157  95.4544568
  70.9654102   6.4176040  95.1864634  71.9746185   7.2312429  94.7388648
  71.5000366   6.9777207  95.3094999  61.2647710   5.7803284  90.7691672
  61.8692568   5.7399118  90.1405493  61.0575023   6.6274436  90.7995728
  61.3236608   5.8991287  90.6807789  71.0791482   8.0469229  91.9853910
  71.8989856   7.9032195  92.2470205  70.7985560   8.6715428  92.5270347
  71.1588226   8.1179581  92.1041849  56.4998993   4.7637902  90.6390595
  56.4023271   3.9534173  90.9480652  57.2827862   4.7429695  90.2536863
  56.6015129   4.6404992  90.6277458  87.5505133  15.7034081  84.9496786
  87.5199137  16.5578718  85.1215055  88.1486481  15.4029374  85.5082930
  87.6342291  15.7850578  85.0571588  80.7504818  14.7909732  89.7049716
  79.8942713  14.9518230  89.7558833  80.7972471  13.9201796  89.7254777
  80.6303929  14.6860534  89.7155782  84.0598534  21.0596258  99.3110172
  84.7665301  20.5648288  99.4397107  84.2486470  21.5005339  98.5812830
  84.1926440  21.0514608  99.2219218  83.5956639  16.8501776  92.3481368
  84.1412599  17.5286863  92.4075338  83.5373515  16.7089237  91.4882950
  83.6672553  16.9293778  92.2293429  76.7130713  24.3390842  87.7349720
  76.8141076  23.5291196  88.0446848  76.1172459  24.2447789  87.1049399
  76.6403252  24.2055870  87.6875959  76.5531453  29.2568431  89.1364576
  77.1968909  29.6981595  89.5260735  76.8787709  28.4521858  89.0494835
  76.6963282  29.2033626  89.1810054  69.9095758  20.3611129  87.3602054
  69.6745942  19.5278781  87.2534323  70.0481399  20.6415794  86.5463255
  69.8951420  20.2794632  87.2244409  72.2085845  12.5296859  90.2586362
  71.5890877  11.9389507  90.0896377  72.1069709  13.1208295  89.6250685
  72.1023521  12.5300942  90.1391351  79.3053741  14.2696401  84.5918825
  80.0033906  14.4484529  85.0840288  79.6206073  13.7466740  83.9689214
  79.4549078  14.2190173  84.5720835  71.9354978  16.0749141  92.5029931
  71.8113675  16.6611587  93.1379750  72.5873263  15.5809337  92.8042206
  72.0128628  16.0887945  92.6415860  76.9613319  19.2510858  91.7817442
  77.6062322  18.7583301  91.4628390  77.2015096  19.3935645  92.6083520
  77.0923904  19.1988300  91.8566975  79.4999411  22.0965764  91.4324334
  79.7822653  21.3017170  91.2111090  80.2285571  22.5746351  91.4529395
  79.6488974  22.0500361  91.4027350  77.4780604   9.6388798  88.6740100
  77.1483934  10.0899941  88.0043798  76.8025606   9.5604961  89.2213106
  77.3291041   9.6939933  88.6563323  84.6857012   5.6274321  86.9189710
  84.3710453   6.3177799  87.3510133  84.1683954   5.5719103  86.2175211
  84.5621483   5.7209209  86.8786659  84.0269446  15.6278822  83.0327121
  83.4980917  15.8438455  83.6924427  84.5494466  16.3214960  82.9528090
  84.0257899  15.7621959  83.1182720  89.4817499  21.2025126  88.4060165
  88.6515202  21.4135770  88.5693582  89.4326751  20.3762181  88.1302449
  89.3524234  21.1114732  88.3897531  71.4713082  25.2396800  88.6358260
  70.9880661  25.9647289  88.6117844  72.2836401  25.5372930  88.7468418
  71.5203830  25.3899153  88.6485539  77.5427236  24.0328980  91.2408075
  77.0254178  23.6736395  90.6369383  78.2401628  23.5091155  91.2514141
  77.5692818  23.9026668  91.1538333  81.1990828  24.4823794  97.2024248
  81.2874174  24.2949935  98.0502458  81.6280541  23.8361224  96.8029095
  81.2752931  24.3586802  97.2695999  78.7661288  23.7654954  96.1841910
  78.2032123  23.3527564  96.7081571  79.5282312  23.6907860  96.6035053
  78.7955737  23.6932355  96.3234910  80.3746268  15.7707690  80.3103509
  80.6142272  15.9785674  79.4978852  80.6962109  14.9665199  80.4192454
  80.4583426  15.6821792  80.2064062  75.6836559   7.7001086  84.1563047
  76.4382527   8.0679403  83.9180097  75.5064093   8.0740641  84.9242227
  75.7691037   7.8099274  84.2347936  74.3257280  25.7552975  88.7878540
  75.0277859  25.2404964  88.8451297  74.2454763  26.0827127  89.5925415
  74.4181040  25.7267202  88.9151332  88.9771457  13.8495527  92.2010587
  88.1399878  13.9197714  92.4358181  88.9459688  13.8520022  91.3284889
  88.8489740  13.8605754  92.1070135  75.3736186  15.9928562  97.9158955
  75.5456690  15.8834457  98.7644237  75.9105544  16.6382968  97.6790148
  75.4781190  16.0720564  98.0064052  74.0393623  10.1071405  80.8541160
  73.8569196  10.3243286  80.0282153  74.9019236  10.2210418  80.9099775
  74.1398213  10.1561303  80.7395647  73.6508055  21.9459327  88.2964148
  74.4896955  22.1782260  88.3437910  73.6819824  21.0763639  88.2271184
  73.7789773  21.8516274  88.2928793  74.2760758  22.3660203  92.5977454
  74.8158983  22.2231334  93.2680826  73.5930704  22.7656953  92.9661480
  74.2552912  22.4039874  92.7511875  79.7193342   7.1097816  83.8890184
  80.4479503   6.9313771  83.4428340  79.8088235   7.9515896  84.0997362
  79.8400004   7.2081694  83.8543702  81.3110888  23.9132813  99.8668031
  82.0951304  24.0263661 100.2323773  81.1107482  23.0873950 100.0626717
  81.3976913  23.8079533  99.9502417  69.6797903  18.5860493  92.7511875
  69.4136318  17.7699610  92.9102865  69.6936467  18.6313649  91.8807391
  69.6422626  18.4717398  92.6465357  86.6579297   8.9138308  90.7854309
  87.3005205   8.9836413  91.3716224  86.9102318   8.2467531  90.2833851
  86.7901429   8.8264657  90.7981588  73.5855650  13.3845578  79.3663633
  72.8713827  13.0983757  79.7786066  74.0699619  13.7242204  80.0070021
  73.5515014  13.3927227  79.5219268  74.4296510  12.1238872  95.3978883
  73.7368306  11.6535851  95.6439614  75.0456837  11.8977176  95.9720590
  74.4181040  12.0206004  95.5188036  81.4681281  25.8242915  93.5134487
  80.6696527  25.5842415  93.7708356  81.9167293  25.8757308  94.2601535
  81.4155892  25.7965307  93.6619411  89.8726160  18.5905400  87.4344518
  90.5342594  18.0296069  87.3340427  89.2317572  18.0957431  87.7597209
  89.8755028  18.4341809  87.4676858  70.0891317  19.3719273  90.0323619
  69.9066890  19.3466159  89.1795912  70.8240986  19.8418211  90.0712528
  70.1705381  19.4380635  89.9121538  73.1537069  16.0904276  96.5405728
  73.8777041  16.0757306  97.0270623  73.2553205  16.7999631  96.0427696
  73.2755278  16.1928979  96.5384515  87.9881448  18.4472449  85.0126111
  88.3189665  18.9800089  84.4066206  88.5614536  18.5011336  85.6688062
  88.1215127  18.5342018  85.0203893  80.5282018  19.5703360 101.4054675
  79.7354999  19.8846872 101.5907295  80.6430945  19.7854829 100.5675460
  80.4277428  19.6487197 101.3093010  83.2013337  16.2937351  85.6949691
  83.2960191  17.0326646  86.1489316  82.5772180  15.8654827  86.1284255
  83.1222367  16.3398672  85.8257838  81.4565811  19.4723564  96.3439972
  82.0304672  18.8350808  96.4988536  81.3780614  19.4727646  95.4749629
  81.5299046  19.3788675  96.2386383  70.0562227  16.2512774  90.1822686
  70.6335730  16.1149224  90.8214931  69.3576289  15.7948558  90.4368270
  70.0383249  16.1635040  90.3144976  83.4536358  18.1386091  78.9286643
  83.3716521  18.2088278  79.7941630  84.0916079  18.7015835  78.7370384
  83.5356196  18.2325062  79.0276592  76.8129529  17.9046829  88.3961169
  76.5548774  17.0718564  88.3692469  76.8678012  18.1304442  87.5553670
  76.7829307  17.8144600  88.2681306  81.8930580  10.0075280  88.4965262
  81.1886906   9.5184465  88.6549181  81.9415554  10.0197754  87.6253706
  81.7960631   9.9364928  88.3904602  75.7864242  15.4584592  88.8826064
  75.2113833  15.6176760  89.5190025  75.4099918  14.8220001  88.4194515
  75.6467054  15.3882405  88.9080622  79.4537530  13.9307941  93.7418442
  79.0651963  13.5062159  93.0870634  78.7892229  14.1790091  94.2495469
  79.2984458  13.9046662  93.7206310  89.0960799  13.6882946  86.5166272
  88.8397364  12.8762887  86.3264155  89.9390113  13.6960513  86.2896460
  89.1826825  13.5694943  86.4551090  65.5321060  15.1024666  86.8970505
  65.6181312  14.7256535  87.6784035  66.1596858  14.7285112  86.4190463
  65.6377611  14.9910149  86.9415982  83.2763892   7.6282570  91.2542427
  83.6574403   6.9460741  91.6410301  82.4727176   7.3392172  91.0718091
  83.2140353   7.4849618  91.2846483  80.5576468  18.1606546  81.9395249
  81.3717107  18.4521438  81.8278021  80.4935610  17.5066408  81.3653542
  80.6679207  18.1071740  81.8384087  86.7785959  20.8432542  96.3524825
  86.5424596  20.0120606  96.2336886  87.4229188  20.7918149  96.9379669
  86.8380629  20.7130230  96.4210719  76.4284377  21.6328063  87.0667562
  77.0658324  21.3939810  87.6119355  76.8539448  21.8365222  86.3320722
  76.5860543  21.6279073  87.0384719  71.1197019  23.8716399  90.9501865
  71.1601164  24.1431251  90.1221645  71.6791543  24.3958308  91.3659653
  71.2080365  23.9892155  90.8893753  77.0687192  16.8530353  81.4042451
  77.4532344  16.6338059  82.1558996  76.8198812  17.6793298  81.5343527
  77.0889264  16.9428499  81.5343527  77.2355732  10.1336768 101.1205035
  76.9209173  10.9036331 100.8574598  76.9145665   9.5707024 100.5357262
  77.1414651  10.1647037 100.9946385  87.8022379  20.6276990  92.4153120
  87.4968196  21.3605047  92.7766435  87.0828595  20.2214920  92.1345906
  87.6509722  20.6758723  92.4266257  93.5024171  17.2669991  91.7421464
  93.4348672  17.2865950  90.8724050  93.4879834  18.1100318  91.9677134
  93.4902928  17.3943726  91.6473941  74.7887629   8.5227289  86.7351231
  73.9210055   8.5949889  86.8008841  75.0762833   9.3249368  86.9239206
  74.7027377   8.6521436  86.7725998  83.9120518   8.6705149  95.0662553
  84.6574110   8.4814959  94.6525979  83.4957822   9.1963387  94.5076410
  83.9605492   8.7207294  94.9227126  91.2882789  16.0414377  90.0168058
  91.8390710  15.4082446  90.2565150  91.2726904  16.5729770  90.7083562
  91.3667985  16.0263325  90.1546916  77.9405180  19.8752975  94.5627952
  77.4416873  20.5868742  94.6412840  78.7505404  20.1953641  94.5246114
  77.9861286  20.0279823  94.5684520  75.2916350  27.0502611  86.5434971
  75.0716645  26.7599966  87.3361638  75.0710872  26.3917566  86.0152883
  75.2263944  26.9102319  86.5823880  74.2033297  19.1375928  88.8090673
  73.9146546  18.5113399  89.3436400  75.0716645  19.0796215  88.8755353
  74.2893549  19.0363472  88.8981627  84.9911195  14.2810711  89.1272654
  84.6475961  13.5601046  89.4779904  85.0904237  14.0724562  88.2851013
  84.9553238  14.1434914  89.0544334  76.8672238  12.7334019  99.8590250
  76.0572013  13.0391799  99.7480092  77.3446924  13.4539601  99.9742834
  76.8175716  12.8848620  99.8597321  75.7263797  21.9479740  90.1073153
  75.2044551  22.0880032  90.7925018  76.1137817  21.1890404  90.2975270
  75.7067498  21.8565264  90.2374229  72.7154981  11.9985549  84.1768108
  72.4279777  11.6286819  83.4400055  73.4025449  12.4680404  83.9151813
  72.7743878  12.0132518  84.0283183  77.1530123  18.9783759  85.5054644
  76.9572905  19.5858494  84.9114947  77.3764468  18.2851703  85.0246318
  77.1564764  18.9661285  85.3470725  75.5508653  15.8638497  85.6235512
  76.2731305  16.0279655  85.1639318  75.0716646  16.5848162  85.5174852
  75.5872383  15.9936726  85.5401126  83.5102160  12.2002296  91.0032197
  82.6713261  12.2263575  90.7670461  83.5806528  12.8473031  91.5837544
  83.3970554  12.2998422  91.0541314  73.2016269  18.2696569  94.7289652
  73.7137366  18.5480823  94.0798412  72.9152612  19.0085863  95.0952465
  73.2351133  18.4198923  94.6879530  81.9571439   9.0987673  85.7359813
  82.6597791   8.8995421  85.2579771  81.6915627   8.3263615  86.0428657
  82.0218071   8.9550639  85.7105255  87.3859684  17.4070282  88.2893439
  87.2993659  17.5625709  89.1428218  86.9310164  18.0508358  87.9152844
  87.3062941  17.5246038  88.3600546  70.2883176  12.7766761  85.0253389
  70.3899312  13.5792923  85.3534364  71.0839063  12.5754097  84.7276469
  70.4211081  12.8652660  85.0288744  76.7199995  10.3622958  94.7890694
  76.5283192  10.3778092  95.6390117  77.5698591  10.5586632  94.7657349
  76.8175717  10.3937309  94.9113989  71.1046908  12.8913939  92.7674510
  70.9632400  12.0397880  92.8919018  71.3887471  12.9342600  91.9436716
  71.1254754  12.7713689  92.6642134  81.2585500  14.7281030  86.9118999
  81.0120215  14.6476780  87.7455788  81.5870623  13.9434497  86.7181526
  81.2706744  14.6007295  87.0066522  83.4911634  17.7360764  96.9528162
  83.4859673  16.8640581  96.9570588  84.1972628  17.9348933  96.4797617
  83.5956638  17.6364638  96.8835197  77.2182528  17.4637748  96.3241982
  77.3625903  18.0438956  95.6885092  77.5658176  17.8414045  97.0291836
  77.2909989  17.6058452  96.3340977  79.3902445  16.6627917  94.1067113
  78.6425759  16.8558931  93.7015391  79.5443970  15.8373136  93.8691235
  79.3024872  16.5693028  94.0112519  76.2910282  25.6540520  93.1903008
  76.4399846  25.0943436  92.5376413  77.0710285  25.7332522  93.5735527
  76.4284376  25.5826085  93.1499958  78.8163583  25.8255163  94.4687499
  78.7407254  25.1563973  95.0238288  78.7453442  26.5272951  94.9828166
  78.7944190  25.8300070  94.6264347  79.6304222  10.5578467  94.9962517
  80.0876836  11.2902442  95.1235309  79.7060551  10.1344933  95.7549773
  79.7095192  10.6035705  95.1263593  71.8737213  10.8044287  96.0851961
  71.3379403  10.1924645  96.4012728  71.9354978  11.3792423  96.7385627
  71.8032846  10.7991215  96.2287387  77.5086600  12.5480571  91.8404341
  76.7182675  12.3672031  92.1621677  77.9047223  11.7707524  91.8234635
  77.4503476  12.4068032  91.8856889  80.0224430  15.0240830  96.3227840
  79.9583571  15.8850787  96.1947977  80.1621618  14.7072824  95.5223391
  80.0339900  15.1040997  96.1856053  78.7043524  17.7172970  90.4644043
  78.2805773  17.9177469  89.7283061  78.5288379  16.8701818  90.5768343
  78.6154405  17.6221751  90.3717733  78.2055217  29.2323483  92.9265500
  78.6951148  28.5334272  92.7441165  77.6339450  28.9347353  93.5141557
  78.1939747  29.0849706  92.9866541  73.9925969  18.2125021  85.8972015
  74.1490588  18.1471824  86.7528007  74.3326562  18.9873574  85.6850695
  74.0659204  18.3174219  85.9926609  80.5305114  17.5882905  84.7665379
  81.0720659  17.0853286  85.2303999  80.8451673  17.5348099  83.9554864
  80.6569511  17.5062326  84.7149191  84.4022221  21.7985552 101.8792291
  85.2157086  21.5270701 102.0397423  84.2417187  21.4993092 101.0752487
  84.4992169  21.7140478 101.7837697  81.6794383  12.4819209  94.8187679
  81.8936352  11.8430123  94.2651033  81.0628282  12.9265033  94.3895541
  81.6199712  12.4529353  94.6738110  70.5660230  15.3959972  86.2132783
  70.9459195  15.8144516  85.5493050  69.9915595  15.9773427  86.5201626
  70.5371555  15.5437830  86.1609523  83.8433471  14.0908274  95.7570986
  83.0310153  13.7834165  95.8384159  84.3023406  13.6107274  96.3213698
  83.7913856  13.9744767  95.8525580  81.0709112   5.5919145  89.8075022
  80.2002670   5.5657866  89.7608331  81.3249453   5.4196337  88.9900867
  80.9802672   5.5629289  89.6795159  78.0427091  17.6487112  78.7448165
  78.3319616  18.4251994  79.0191739  78.1298890  17.1375843  79.4462664
  78.0981347  17.6879030  78.8890663  80.9386978  15.4968346 100.5399688
  81.4086610  16.1210462 100.9267563  80.9848859  14.8285321 101.0992903
  81.0154854  15.4903026 100.6799760  78.0958252   7.6025373  91.2648492
  77.5796741   6.9105565  91.3900071  77.5352181   8.2696150  91.2111091
  77.9364765   7.5988631  91.2754558  80.1650486   8.1418333  93.0941345
  79.7782239   8.1667365  93.8754875  79.6783423   7.5760012  92.6415861
  80.0362994   8.0614084  93.1429248  84.4143465  22.8591842  97.1515131
  85.0523185  22.3652038  96.8177587  83.7717557  22.7869243  96.5667358
  84.4137691  22.7750851  97.0157486  86.1400465  14.7080988  91.7181047
  85.7128073  14.6207337  90.9629146  85.5026518  14.8158764  92.3035891
  85.9830072  14.7113648  91.6926488  79.8307627   5.0285319  95.3851605
  80.4600745   5.5645619  95.1072675  79.9993490   4.9362678  96.2365170
  79.9485422   5.0946681  95.4700133  79.6321542   9.8156514  97.6578016
  80.4594971   9.5441662  97.7136631  79.6529388  10.6117355  98.0141834
  79.7574392   9.8936268  97.7193199  84.4697722  23.5511651  93.7920488
  85.2590100  23.2000715  93.9122570  84.6441319  24.3648039  93.5297122
  84.6118003  23.6197508  93.7708356  74.2091032  16.9620376  90.8448277
  73.3679039  16.8624250  91.0527171  74.4181040  17.7315857  91.1962598
  74.1155725  17.0612420  90.9275592  71.6866599  14.5839913  88.6733028
  71.2923297  14.6582925  87.8983137  71.1306716  14.9697860  89.2241389
  71.5469411  14.6521688  88.6400687  83.3231546   7.5621207  88.3536907
  83.5281139   7.4943515  89.1993904  82.9957970   8.3680028  88.2858084
  83.3046794   7.6707148  88.4696562  78.0207697  14.8901775  90.0945874
  77.7170834  14.3357764  90.6956282  77.3187118  15.0693985  89.6073909
  77.8723907  14.8346558  90.1115580  77.0773794  12.2002295  84.6590576
  77.3533528  11.4821208  84.2468144  77.6772463  12.7987215  84.4511682
  77.2067059  12.1822666  84.5671337  76.0826048  22.1051496  94.8017972
  75.9746403  22.1153558  95.6680030  76.2921829  22.9306277  94.6122926
  76.0976159  22.2292571  94.9022064  86.5765233   8.1152972  87.8339672
  85.9639547   8.6023374  88.2193404  86.6729408   7.4396462  88.3777323
  86.5003131   8.0871280  87.9718530  80.5784314   9.8715813  82.9337171
  81.0328061  10.0426373  83.6585016  81.0524360   9.2583923  82.5334947
  80.7152635   9.8066698  82.9810933  74.0999840  19.3564139  92.2639910
  73.5087773  19.9973637  92.2342925  74.8620863  19.7801756  92.2371209
  74.1248100  19.5139977  92.2555057  74.4960463  10.5166136  92.9307927
  74.9561944  10.5905066  93.6683051  74.5416569  11.3147390  92.5807749
  74.5711018  10.6460283  92.9880684  76.1443812  11.1832831  97.4979955
  75.7529378  10.5366178  97.9335732  76.3129675  11.7744267  98.1174210
  76.1114723  11.1747099  97.6542661  90.2190261  19.1869908  93.2617188
  90.2773385  19.6356557  94.0077165  89.5856729  19.5968721  92.8247268
  90.1341557  19.3143643  93.3069736  83.8589356  24.8073450  89.6971934
  83.6609045  25.2964265  89.0028146  83.2377067  25.0114692  90.2756068
  83.7376921  24.9089988  89.6795158  77.9197334  16.5758347  84.0382179
  78.6639379  16.9632623  84.2765128  78.0658031  15.7315772  84.2022666
  78.0507920  16.5088820  84.0976148  79.8376910   8.3708606  89.0714040
  78.9912955   8.5431414  88.9455390  79.8348042   7.5657950  89.4079868
  79.7124060   8.2769635  89.1025167  80.9075210  12.1483820  89.9376098
  80.4335165  11.6225582  90.4481409  81.2793346  11.6013293  89.3690959
  80.8925099  11.9899817  89.9291245  71.2848240  14.1455327  95.3059644
  72.1473853  14.0451036  95.2196973  70.9540023  13.5650036  94.7445216
  71.3633437  14.0446954  95.2105050  87.1711941  17.2086196  91.3482878
  86.9310164  16.3692611  91.3525305  87.6503948  17.2886363  92.0723652
  87.2064125  17.0967596  91.4557681  82.8358710  13.0420375  83.0001852
  82.3081729  13.1249119  82.3107561  83.2954418  13.7838246  82.9966496
  82.8260560  13.1641037  82.8976547  89.1717128  13.9887653  89.3012138
  88.9326898  13.9483487  88.4632922  89.3351029  14.8358805  89.4277859
  89.1607431  14.1079738  89.1965619  85.7763158  18.3737602  95.2317183
  86.4997357  17.9210129  95.0528203  85.5113120  18.6542268  94.4489511
  85.8444431  18.3488571  95.0895898  74.6450026  12.9697776  91.9670062
  74.0203097  12.9816168  91.3596015  74.3095621  13.4457951  92.6161302
  74.5035518  13.0416293  91.9726630  74.8291775  11.3122895  78.0242747
  74.4804579  11.9642620  78.4874296  74.3488221  11.2980008  77.2966618
  74.7062019  11.4065948  77.9853838  71.3575702  21.0298236  93.4073826
  70.8275626  20.3390675  93.4568801  71.6300795  21.0208421  92.5786535
  71.3200424  20.9265368  93.2921242  81.5581948  18.4721481  93.3812198
  80.9438941  17.9279531  93.6760833  82.0749232  17.9585717  92.9018014
  81.5437610  18.3157890  93.3536426  80.7978245  19.5425751  91.1156496
  80.3705853  18.9175469  90.6821932  80.7903189  19.2600673  91.9415504
  80.7337386  19.4078531  91.1736324  73.9140772  14.5790924  94.1844930
  74.0734259  13.8234248  94.5896652  73.7333665  15.1281863  94.8385668
  73.9106131  14.5484738  94.3407636  81.8561075   6.7452159  94.7395720
  81.3601636   6.9415834  94.0487287  82.6130137   7.1444828  94.5684521
  81.8947899   6.8329893  94.6115857  79.1263954  10.4194505  91.3299030
  79.1506442   9.8854618  90.6411810  79.3775428   9.9111814  91.9924621
  79.1673873  10.2655409  91.3263675  66.6371544  17.7026000  90.7642174
  66.5314993  17.6572845  89.8994258  65.8871764  18.0479781  91.0456459
  66.5107147  17.7466908  90.6779504  75.4065277   9.1465324  90.7104775
  75.4463648   9.6474530  91.4239482  74.5814941   9.2375717  90.4410698
  75.2904803   9.2347140  90.7755313  77.5894890  18.7126064  98.8125069
  76.7390520  18.8497778  98.9482714  77.7523017  17.9789842  99.2572771
  77.4878753  18.6240165  98.8980668  76.8279640  15.6625833  93.0078674
  75.9971570  15.8299651  92.8013922  76.7731157  15.2861784  93.7927559
  76.6969055  15.6315565  93.0927202  74.6363423   9.1534726  98.6435084
  75.2616127   8.6096859  98.9164517  74.1813903   8.6729644  98.0742875
  74.6611684   9.0024208  98.5996678  75.2015684  13.9381425  83.5368791
  75.3418645  14.4353889  84.2397433  75.6998217  13.2367719  83.6783005
  75.2956765  13.9083404  83.6620370  75.2315906  14.8048536  80.8661368
  75.8660986  15.4008961  80.8010830  75.3141517  14.5051994  81.6807238
  75.3372457  14.8489444  80.9764455  88.2098472  17.3364013  93.7347732
  88.8016312  17.9761264  93.7665930  88.6457467  16.6387050  94.0239799
  88.3616903  17.3282364  93.7828565  76.8094889  10.7362511  80.8406810
  77.1310730  10.2565594  80.1866073  77.0721833  11.5462157  80.6497622
  76.8960914  10.7852409  80.7162302  80.0391862  21.7581386  94.3605626
  79.5316953  22.3117233  94.8046257  79.7418508  21.8189676  93.5424401
  79.9196747  21.8487697  94.3054083  82.2054044  10.1234705  93.2030289
  82.6309116   9.6707232  92.5913816  81.5911037   9.5694776  93.4795077
  82.1782689   9.9748682  93.1535315  71.7368894  17.0016377  84.1350914
  72.2461123  17.5980884  84.5162220  72.2103166  16.7342350  83.4527334
  71.8812270  17.0502192  84.0905437  80.6448267   6.5949805  86.6120866
  80.0016585   6.4447451  87.1806005  80.3047674   6.3492150  85.8469971
  80.4993344   6.5361928  86.5823881  85.2347613  14.5509232  86.0350875
  84.5638803  15.0938934  85.9063940  85.9287364  15.0204087  85.7932570
  85.2376481  14.7007503  85.9806403  79.2834347  26.6905944  91.2662633
  79.0600002  25.9324773  91.6346660  78.7944190  26.7203965  90.5443073
  79.1777796  26.5828168  91.2139374  85.3975741  11.0065116  88.9441248
  85.7503351  10.5794838  89.6187047  84.5390542  10.9215959  89.0742325
  85.3225185  10.9309856  89.0636259  74.0959426  13.6372635  87.0024095
  73.3771415  14.0536768  87.2696958  74.4671788  14.2026874  86.4515733
  74.0451358  13.7821917  86.9606902  83.3959007  14.2700484  92.8926090
  83.3756934  14.0883779  93.7460869  83.4438207  15.1412503  92.8685674
  83.3993648  14.3717022  93.0149385  81.3405336  20.8587676  98.8174567
  81.3001191  20.2137353  98.2319723  82.1528655  20.8024294  99.1299979
  81.4548490  20.7546643  98.7771516  79.8706000  12.6770635  82.3397474
  79.2770839  12.9987632  81.7882041  79.9081278  11.8311731  82.1318580
  79.7880389  12.5994963  82.2280245  86.8299801   6.1283527  89.8725561
  86.3230666   5.4212667  89.8046738  87.6267235   5.7976716  90.0026637
  86.8727040   5.9756679  89.8824556  82.7463817  12.6350140  85.7699224
  82.5177510  12.6582841  84.9277583  83.0061893  11.8107607  85.8894235
  82.7510005  12.5166220  85.6624422  77.0283045  14.4884613  95.3724325
  76.5161948  13.8805796  95.7309356  76.8562541  15.2041205  95.8398300
  76.9272682  14.5047912  95.4940548  71.8748760  12.9322188  98.0226686
  71.7051350  13.5923563  97.4774893  71.4314710  13.1428749  98.7439175
  71.7848094  13.0608170  98.0488316  75.8008579  11.1726686  87.0653420
  76.2765946  11.5343766  86.4303601  75.2997179  11.8283154  87.3453563
  75.7973938  11.3220875  87.0130161  80.9052116  12.4108857  97.8126580
  81.4623546  12.1822667  97.1805046  80.5813181  13.1714523  97.5361792
  80.9398526  12.4892694  97.6783077  68.7750824  15.8369054  93.2815176
  68.2277544  15.1669699  93.3996044  69.5643203  15.4698901  93.3458643
  68.8103008  15.6834040  93.3083877  78.6235233  15.4976511  98.7778587
  79.3746560  15.8128187  99.0918141  78.8157809  15.2955682  97.9512509
  78.7626647  15.5143892  98.7021983  77.8435232  13.3167886  80.4326804
  78.2234197  13.3347515  79.6477919  77.1027828  13.7621875  80.3117651
  77.7904070  13.3849660  80.2990372  85.4720523  11.6250077  86.0202383
  85.4714749  11.4698734  86.8786659  85.2676703  12.4713064  85.9643768
  85.4420301  11.7270698  86.1390322  67.5337794  15.0489861  90.4361199
  67.3559555  14.5966470  91.1616115  67.2456816  15.8516023  90.6199677
  67.4650747  15.1012419  90.5704702  83.1961375  16.3047579  89.6738590
  83.6915040  15.5870574  89.6342610  82.3861151  16.0018376  89.5593076
  83.1505268  16.1545225  89.6512315  69.2710264  17.5817585  87.5482958
  68.4055783  17.5703276  87.4365729  69.3709080  17.3947808  88.3954098
  69.1584431  17.5523646  87.6571903  85.2613194  19.0551266  92.3615718
  85.6868265  18.5325688  91.8086143  84.8970114  19.6532104  91.8404341
  85.2699796  19.0661493  92.2024728  74.8967274  27.3515484  91.1213064
  75.2113833  28.1651872  91.1290846  75.3060687  26.9665702  91.7895223
  75.0035372  27.4144186  91.2217155  83.9368778  24.3786844 100.8708948
  84.0465743  23.5895404 101.2265695  84.2659675  24.2892780 100.0683286
  84.0021184  24.2492697 100.8051339  78.7661288   7.5413001  95.6474971
  78.8989194   6.7443994  95.9755946  79.1506441   8.0679404  96.2273246
  78.8417617   7.5012918  95.7818473  82.4865740  22.5603465  95.4544568
  81.9386686  21.9361348  95.1864634  82.9478768  22.7497737  94.7388648
  82.4732949  22.4962515  95.3094999  81.8393643   4.4643327  92.2456064
  81.0339607   4.3541057  92.5623902  81.7100379   4.5655783  91.3885930
  81.7013776   4.4626997  92.1664104  85.2959604  10.6288819  92.8395761
  84.7122593  11.1298026  92.4273328  85.6163898  10.1218375  92.2060084
  85.2572779  10.6280654  92.6854268  77.8354403   9.5429414  83.1154436
  78.6570097   9.7127727  82.8736130  77.3724054   9.6976675  82.3920733
  77.8885565   9.5911147  82.9726080  76.4249735   7.5372176  93.8952864
  76.9694148   7.1963303  94.4857206  76.4786671   8.3957638  94.0374149
  76.5138854   7.6127436  94.0034738  72.2380294  21.2988592  90.7691672
  72.8425151  21.2584426  90.1405493  72.0307606  22.1459744  90.7995728
  72.2969191  21.4176595  90.6807789  82.0524066  23.5654537  91.9853910
  82.8722440  23.4217503  92.2470205  81.7718144  24.1900736  92.5270347
  82.1320809  23.6364889  92.1041849  67.4731576  20.2823210  90.6390595
  67.3755854  19.4719481  90.9480652  68.2560446  20.2615003  90.2536863
  67.5747713  20.1590300  90.6277458  98.5237716  31.2219389  84.9496786
  98.4931721  32.0764026  85.1215055  99.1219065  30.9214682  85.5082930
  98.6074874  31.3035886  85.0571588  91.7237401  30.3095040  89.7049716
  90.8675297  30.4703538  89.7558833  91.7705055  29.4387104  89.7254777
  91.6036513  30.2045842  89.7155782  86.1078541  39.8457758  85.4686948
  85.3561440  39.4673296  85.2402993  86.5564553  39.8776192  84.7205758
  86.0628208  39.7943365  85.3244450  95.0331118  36.5781566  99.3110172
  95.7397885  36.0833596  99.4397107  95.2219053  37.0190647  98.5812830
  95.1659023  36.5699916  99.2219218  91.1007792  42.2197396  86.8383607
  91.4847171  42.7884295  86.2988382  91.0366933  41.4946906  86.3589423
  91.1481219  42.1972860  86.6877469  94.5689222  32.3687084  92.3481368
  95.1145182  33.0472171  92.4075338  94.5106099  32.2274545  91.4882950
  94.6405137  32.4479086  92.2293429  87.6863297  39.8576150  87.7349720
  87.7873660  39.0476504  88.0446848  87.0905042  39.7633097  87.1049399
  87.6135836  39.7241178  87.6875959  96.3454291  33.7971691  83.2215096
  96.2293817  34.5479377  83.6507234  97.1410178  33.5395644  83.4711183
  96.4458880  33.8706538  83.3219187  87.5264037  44.7753739  89.1364576
  88.1701492  45.2166903  89.5260735  87.8520292  43.9707165  89.0494835
  87.6695865  44.7218934  89.1810054  88.2284616  37.7865714  84.5084438
  88.5500457  38.3270921  83.9045746  88.8756713  37.2162485  84.6406728
  88.3710672  37.7824889  84.4391474  90.2786324  29.7881709  84.5918825
  90.9766489  29.9669837  85.0840288  90.5938657  29.2652048  83.9689214
  90.4281662  29.7375481  84.5720835  82.9087562  31.5934449  92.5029931
  82.7846259  32.1796894  93.1379750  83.5605846  31.0994645  92.8042206
  82.9861211  31.6073253  92.6415860  90.4674260  36.1752154  84.5798616
  90.9067895  35.5669255  85.0253389  90.3178923  35.7959527  83.8084081
  90.5095726  36.0290625  84.5317784  87.9345903  34.7696166  91.7817442
  88.5794905  34.2768609  91.4628390  88.1747680  34.9120953  92.6083520
  88.0656488  34.7173608  91.8566975  90.4731994  37.6151072  91.4324334
  90.7555237  36.8202478  91.2111090  91.2018155  38.0931659  91.4529395
  90.6221558  37.5685669  91.4027350  88.4513188  25.1574106  88.6740100
  88.1216518  25.6085249  88.0043798  87.7758190  25.0790269  89.2213106
  88.3023624  25.2125241  88.6563323  94.0683596  34.5279335  81.5329386
  93.9834891  35.3840302  81.6778954  94.5567980  34.2523659  82.2011545
  94.1272494  34.6136657  81.6531467  95.6589596  21.1459629  86.9189710
  95.3443037  21.8363107  87.3510133  95.1416537  21.0904411  86.2175211
  95.5354066  21.2394517  86.8786659  95.0002030  31.1464130  83.0327121
  94.4713501  31.3623763  83.6924427  95.5227050  31.8400268  82.9528090
  94.9990483  31.2807266  83.1182720 100.4550083  36.7210434  88.4060165
  99.6247786  36.9321078  88.5693582 100.4059335  35.8947489  88.1302449
 100.3256818  36.6300040  88.3897531  88.5159820  39.5514288  91.2408075
  87.9986762  39.1921703  90.6369383  89.2134211  39.0276463  91.2514141
  88.5425401  39.4211976  91.1538333  92.1723412  40.0009102  97.2024248
  92.2606758  39.8135243  98.0502458  92.6013125  39.3546532  96.8029095
  92.2485514  39.8772110  97.2695999  89.7393872  39.2840262  96.1841910
  89.1764707  38.8712872  96.7081571  90.5014895  39.2093168  96.6035053
  89.7688320  39.2117663  96.3234910  91.3478852  31.2892998  80.3103509
  91.5874856  31.4970982  79.4978852  91.6694693  30.4850507  80.4192454
  91.4316010  31.2007100  80.2064062  85.2989863  41.2738283  88.7878540
  86.0010443  40.7590272  88.8451297  85.2187346  41.6012435  89.5925415
  85.3913624  41.2452510  88.9151332  99.9504041  29.3680835  92.2010587
  99.1132462  29.4383022  92.4358181  99.9192272  29.3705329  91.3284889
  99.8222323  29.3791062  92.1070135  86.3468770  31.5113870  97.9158955
  86.5189274  31.4019765  98.7644237  86.8838127  32.1568276  97.6790148
  86.4513774  31.5905872  98.0064052  84.6240639  37.4644635  88.2964148
  85.4629538  37.6967568  88.3437910  84.6552408  36.5948947  88.2271184
  84.7522356  37.3701582  88.2928793  85.2493342  37.8845511  92.5977454
  85.7891567  37.7416642  93.2680826  84.5663288  38.2842261  92.9661480
  85.2285496  37.9225181  92.7511875  90.6925926  22.6283124  83.8890184
  91.4212086  22.4499079  83.4428340  90.7820819  23.4701204  84.0997362
  90.8132588  22.7267002  83.8543702  94.6734227  33.5636511  87.7922478
  95.4291742  33.9968026  87.8311387  94.7796551  32.9141281  88.3657114
  94.8004397  33.5313995  87.8820504  97.7114398  37.3909788  88.5424881
  97.2749630  37.3946531  89.2983852  97.3777313  38.0715287  88.1104458
  97.5977018  37.4922244  88.5905714  92.2843471  39.4318121  99.8668031
  93.0683888  39.5448969 100.2323773  92.0840066  38.6059258 100.0626717
  92.3709497  39.3264841  99.9502417  80.6530487  34.1045801  92.7511875
  80.3868902  33.2884918  92.9102865  80.6669051  34.1498957  91.8807391
  80.6155209  33.9902706  92.6465357  97.6311881  24.4323616  90.7854309
  98.2737789  24.5021721  91.3716224  97.8834901  23.7652839  90.2833851
  97.7634013  24.3449965  90.7981588  85.4029093  27.6424180  95.3978883
  84.7100890  27.1721159  95.6439614  86.0189420  27.4162484  95.9720590
  85.3913623  27.5391311  95.5188036  92.4413865  41.3428223  93.5134487
  91.6429110  41.1027723  93.7708356  92.8899876  41.3942616  94.2601535
  92.3888476  41.3150614  93.6619411 100.8458744  34.1090708  87.4344518
 101.5075178  33.5481377  87.3340427 100.2050156  33.6142739  87.7597209
 100.8487611  33.9527117  87.4676858  81.0623900  34.8904581  90.0323619
  80.8799474  34.8651467  89.1795912  81.7973569  35.3603519  90.0712528
  81.1437964  34.9565943  89.9121538  97.1323575  35.1256091  87.1756507
  97.3679164  35.2701290  86.3483358  97.2813138  35.8898499  87.5688021
  97.1889378  35.2595145  87.1120111  84.1269652  31.6089584  96.5405728
  84.8509624  31.5942614  97.0270623  84.2285789  32.3184939  96.0427696
  84.2487861  31.7114287  96.5384515  98.9614031  33.9657757  85.0126111
  99.2922248  34.4985397  84.4066206  99.5347119  34.0196644  85.6688062
  99.0947710  34.0527325  85.0203893  91.5014602  35.0888668 101.4054675
  90.7087582  35.4032180 101.5907295  91.6163529  35.3040137 100.5675460
  91.4010012  35.1672505 101.3093010  94.1745920  31.8122659  85.6949691
  94.2692775  32.5511953  86.1489316  93.5504764  31.3840135  86.1284255
  94.0954951  31.8583980  85.8257838  92.4298394  34.9908872  96.3439972
  93.0037256  34.3536116  96.4988536  92.3513198  34.9912954  95.4749629
  92.5031629  34.8973983  96.2386383  81.0294811  31.7698081  90.1822686
  81.6068313  31.6334532  90.8214931  80.3308872  31.3133866  90.4368270
  81.0115832  31.6820348  90.3144976  87.7862113  33.4232137  88.3961169
  87.5281357  32.5903872  88.3692469  87.8410596  33.6489750  87.5553670
  87.7561891  33.3329908  88.2681306  92.8663163  25.5260588  88.4965262
  92.1619490  25.0369773  88.6549181  92.9148137  25.5383062  87.6253706
  92.7693215  25.4550236  88.3904602  86.7596825  30.9769900  88.8826064
  86.1846416  31.1362068  89.5190025  86.3832501  30.3405309  88.4194515
  86.6199637  30.9067712  88.9080622  90.4270114  29.4493249  93.7418442
  90.0384546  29.0247467  93.0870634  89.7624812  29.6975398  94.2495469
  90.2717042  29.4231970  93.7206310 100.0693383  29.2068254  86.5166272
  99.8129948  28.3948195  86.3264155 100.9122697  29.2145821  86.2896460
 100.1559408  29.0880251  86.4551090  94.2496475  23.1467878  91.2542427
  94.6306987  22.4646049  91.6410301  93.4459760  22.8577480  91.0718091
  94.1872937  23.0034926  91.2846483  91.5309052  33.6791853  81.9395249
  92.3449691  33.9706746  81.8278021  91.4668193  33.0251716  81.3653542
  91.6411791  33.6257048  81.8384087  97.7518542  36.3617850  96.3524825
  97.5157180  35.5305914  96.2336886  98.3961771  36.3103457  96.9379669
  97.8113213  36.2315538  96.4210719  87.4016960  37.1513371  87.0667562
  88.0390907  36.9125118  87.6119355  87.8272032  37.3550530  86.3320722
  87.5593127  37.1464381  87.0384719  88.2088316  25.6522076 101.1205035
  87.8941757  26.4221639 100.8574598  87.8878248  25.0892332 100.5357262
  88.1147235  25.6832345 100.9946385  98.7754963  36.1462298  92.4153120
  98.4700780  36.8790355  92.7766435  98.0561178  35.7400228  92.1345906
  98.6242305  36.1944031  92.4266257  89.7838432  37.6285794  88.7461348
  89.8577440  37.4660965  89.6003198  90.6007939  37.8175983  88.5021829
  89.9154791  37.6322536  88.8359373 104.4756755  32.7855299  91.7421464
 104.4081255  32.8051258  90.8724050 104.4612417  33.6285626  91.9677134
 104.4635511  32.9129034  91.6473941  94.8853101  24.1890457  95.0662553
  95.6306693  24.0000267  94.6525979  94.4690406  24.7148695  94.5076410
  94.9338076  24.2392602  94.9227126  88.3243018  40.5920537  83.4774821
  88.6141316  40.2009518  82.7534048  89.0546499  40.7737241  83.9180096
  88.4749902  40.5614350  83.4357628 102.2615372  31.5599685  90.0168058
 102.8123294  30.9267754  90.2565150 102.2459488  32.0915078  90.7083562
 102.3400569  31.5448633  90.1546916  88.9137763  35.3938282  94.5627952
  88.4149457  36.1054050  94.6412840  89.7237987  35.7138949  94.5246114
  88.9593870  35.5465131  94.5684520  86.2648934  42.5687919  86.5434971
  86.0449229  42.2785274  87.3361638  86.0443456  41.9102874  86.0152883
  86.1996528  42.4287627  86.5823880  85.1765881  34.6561235  88.8090673
  84.8879129  34.0298707  89.3436400  86.0449229  34.5981523  88.8755353
  85.2626133  34.5548780  88.8981627  95.9643779  29.7996019  89.1272654
  95.6208544  29.0786354  89.4779904  96.0636821  29.5909870  88.2851013
  95.9285821  29.6620222  89.0544334  85.3798154  36.2956487  84.7333038
  86.1344122  36.6769526  84.9468500  84.7868767  36.7467630  85.1879734
  85.4034868  36.4185314  84.8315916  87.8404821  28.2519327  99.8590250
  87.0304597  28.5577107  99.7480092  88.3179508  28.9724909  99.9742834
  87.7908300  28.4033928  99.8597321  86.6996381  37.4665048  90.1073153
  86.1777134  37.6065340  90.7925018  87.0870401  36.7075712  90.2975270
  86.6800082  37.3750572  90.2374229  88.1262706  34.4969067  85.5054644
  87.9305489  35.1043801  84.9114947  88.3497052  33.8037011  85.0246318
  88.1297347  34.4846592  85.3470725  86.5241236  31.3823805  85.6235512
  87.2463888  31.5464963  85.1639318  86.0449229  32.1033470  85.5174852
  86.5604967  31.5122034  85.5401126  94.4834744  27.7187604  91.0032197
  93.6445845  27.7448883  90.7670461  94.5539111  28.3658339  91.5837544
  94.3703137  27.8183729  91.0541314  84.1748853  33.7881877  94.7289652
  84.6869950  34.0666131  94.0798412  83.8885196  34.5271171  95.0952465
  84.2083716  33.9384231  94.6879530  92.9304022  24.6172981  85.7359813
  93.6330375  24.4180729  85.2579771  92.6648211  23.8448923  86.0428657
  92.9950654  24.4735947  85.7105255  98.3592268  32.9255590  88.2893439
  98.2726242  33.0811016  89.1428218  97.9042748  33.5693666  87.9152844
  98.2795524  33.0431345  88.3600546  87.6932578  25.8808266  94.7890694
  87.5015775  25.8963400  95.6390117  88.5431174  26.0771940  94.7657349
  87.7908300  25.9122617  94.9113989  82.0779491  28.4099247  92.7674510
  81.9364983  27.5583188  92.8919018  82.3620055  28.4527908  91.9436716
  82.0987338  28.2898997  92.6642134  92.2318084  30.2466338  86.9118999
  91.9852798  30.1662088  87.7455788  92.5603207  29.4619805  86.7181526
  92.2439327  30.1192603  87.0066522  96.1266133  36.9549697  90.7005780
  95.9880492  37.6530743  91.2054522  95.3466131  36.7998353  90.3441962
  95.9909359  37.0349863  90.7232054  94.4644218  33.2546072  96.9528162
  94.4592256  32.3825889  96.9570588  95.1705212  33.4534241  96.4797617
  94.5689222  33.1549946  96.8835197  88.1915111  32.9823056  96.3241982
  88.3358487  33.5624264  95.6885092  88.5390760  33.3599353  97.0291836
  88.2642572  33.1243760  96.3340977  90.3635028  32.1813224  94.1067113
  89.6158342  32.3744239  93.7015391  90.5176554  31.3558444  93.8691235
  90.2757456  32.0878336  94.0112519  87.2642866  41.1725828  93.1903008
  87.4132430  40.6128744  92.5376413  88.0442868  41.2517830  93.5735527
  87.4016960  41.1011393  93.1499958  89.7896167  41.3440471  94.4687499
  89.7139838  40.6749281  95.0238288  89.7186026  42.0458259  94.9828166
  89.7676774  41.3485378  94.6264347  90.6036805  26.0763775  94.9962517
  91.0609420  26.8087750  95.1235309  90.6793134  25.6530240  95.7549773
  90.6827775  26.1221013  95.1263593  82.8469797  26.3229595  96.0851961
  82.3111986  25.7109953  96.4012728  82.9087561  26.8977731  96.7385627
  82.7765429  26.3176523  96.2287387  95.0764131  19.2553650  88.8656360
  95.1947700  19.7130114  88.1323663  94.9026307  18.4498912  88.5792578
  95.0683302  19.2047422  88.7157294  90.4466414  39.8641470  85.3011105
  91.2116305  39.5951113  84.9793770  90.3444504  39.3791480  86.0181168
  90.5447909  39.7531034  85.3590933  88.4819183  28.0665879  91.8404341
  87.6915258  27.8857339  92.1621677  88.8779806  27.2892832  91.8234635
  88.4236060  27.9253340  91.8856889  93.8662870  35.7008309  89.5663787
  93.1907871  35.4693542  90.0677174  93.8755246  35.0929492  88.9405892
  93.7681374  35.5767234  89.5479939  90.9957014  30.5426138  96.3227840
  90.9316155  31.4036095  96.1947977  91.1354201  30.2258131  95.5223391
  91.0072484  30.6226305  96.1856053  89.6776108  33.2358278  90.4644043
  89.2538357  33.4362777  89.7283061  89.5020963  32.3887126  90.5768343
  89.5886988  33.1407059  90.3717733  89.1787801  44.7508791  92.9265500
  89.6683731  44.0519580  92.7441165  88.6072033  44.4532661  93.5141557
  89.1672331  44.6035014  92.9866541  84.9658553  33.7310329  85.8972015
  85.1223172  33.6657132  86.7528007  85.3059146  34.5058882  85.6850695
  85.0391787  33.8359527  85.9926609  91.5037697  33.1068213  84.7665379
  92.0453243  32.6038594  85.2303999  91.8184256  33.0533407  83.9554864
  91.6302094  33.0247634  84.7149191  95.3754805  37.3170860 101.8792291
  96.1889670  37.0456009 102.0397423  95.2149771  37.0178400 101.0752487
  95.4724753  37.2325786 101.7837697  89.6724147  38.4985564  82.0505407
  89.7416967  37.6400103  82.1898407  90.4512602  38.7157445  81.7224431
  89.7976997  38.4038428  82.0222564  92.6526967  28.0004517  94.8187679
  92.8668936  27.3615431  94.2651033  92.0360866  28.4450341  94.3895541
  92.5932296  27.9714661  94.6738110  94.0631634  40.9223265  86.2641900
  93.6711426  40.6189981  85.5464766  94.2184707  41.7592355  86.0746854
  94.0285224  41.0007102  86.1298397  94.8166055  29.6093582  95.7570986
  94.0042736  29.3019473  95.8384159  95.2755989  29.1292582  96.3213698
  94.7646439  29.4930075  95.8525580  94.2271309  37.4873254  86.2047930
  93.8685964  37.6587897  86.9811963  93.7410020  37.9486460  85.6475929
  94.1030006  37.5812225  86.2373200  92.0441695  21.1104453  89.8075022
  91.1735253  21.0843174  89.7608331  92.2982036  20.9381645  88.9900867
  91.9535255  21.0814596  89.6795159  91.9119562  31.0153654 100.5399688
  92.3819193  31.6395770 100.9267563  91.9581442  30.3470629 101.0992903
  91.9887438  31.0088334 100.6799760  89.0690836  23.1210681  91.2648492
  88.5529324  22.4290873  91.3900071  88.5084765  23.7881458  91.2111091
  88.9097349  23.1173939  91.2754558  91.1383069  23.6603641  93.0941345
  90.7514822  23.6852673  93.8754875  90.6516006  23.0945320  92.6415861
  91.0095578  23.5799392  93.1429248  95.3876049  38.3777150  97.1515131
  96.0255769  37.8837346  96.8177587  94.7450140  38.3054551  96.5667358
  95.3870275  38.2936159  97.0157486  97.1133049  30.2266296  91.7181047
  96.6860657  30.1392645  90.9629146  96.4759102  30.3344072  92.3035891
  96.9562656  30.2298956  91.6926488  90.8040211  20.5470627  95.3851605
  91.4333329  21.0830927  95.1072675  90.9726074  20.4547986  96.2365170
  90.9218005  20.6131989  95.4700133  90.6054126  25.3341821  97.6578016
  91.4327555  25.0626970  97.7136631  90.6261972  26.1302663  98.0141834
  90.7306976  25.4121576  97.7193199  95.4430305  39.0696958  93.7920488
  96.2322683  38.7186023  93.9122570  95.6173903  39.8833347  93.5297122
  95.5850587  39.1382816  93.7708356  85.1823616  32.4805684  90.8448277
  84.3411622  32.3809558  91.0527171  85.3913624  33.2501165  91.1962598
  85.0888308  32.5797728  90.9275592  94.2964129  23.0806515  88.3536907
  94.5013723  23.0128823  89.1993904  93.9690553  23.8865336  88.2858084
  94.2779377  23.1892456  88.4696562  88.9940280  30.4087083  90.0945874
  88.6903418  29.8543072  90.6956282  88.2919701  30.5879293  89.6073909
  88.8456490  30.3531866  90.1115580  88.0506378  27.7187603  84.6590576
  88.3266112  27.0006516  84.2468144  88.6505047  28.3172523  84.4511682
  88.1799642  27.7007974  84.5671337  87.0558631  37.6236804  94.8017972
  86.9478986  37.6338866  95.6680030  87.2654413  38.4491585  94.6122926
  87.0708742  37.7477879  94.9022064  97.5497817  23.6338279  87.8339672
  96.9372131  24.1208682  88.2193404  97.6461992  22.9581770  88.3777323
  97.4735715  23.6056588  87.9718530  91.5516898  25.3901121  82.9337171
  92.0060645  25.5611681  83.6585016  92.0256944  24.7769231  82.5334947
  91.6885218  25.3252006  82.9810933  85.0732423  34.8749447  92.2639910
  84.4820357  35.5158945  92.2342925  85.8353447  35.2987064  92.2371209
  85.0980684  35.0325285  92.2555057  85.4693046  26.0351444  92.9307927
  85.9294528  26.1090374  93.6683051  85.5149153  26.8332698  92.5807749
  85.5443602  26.1645591  92.9880684  87.1176396  26.7018139  97.4979955
  86.7261961  26.0551486  97.9335732  87.2862259  27.2929574  98.1174210
  87.0847306  26.6932407  97.6542661 101.1922845  34.7055216  93.2617188
 101.2505969  35.1541865  94.0077165 100.5589313  35.1154029  92.8247268
 101.1074140  34.8328951  93.3069736  94.8321940  40.3258758  89.6971934
  94.6341628  40.8149573  89.0028146  94.2109651  40.5300000  90.2756068
  94.7109504  40.4275296  89.6795158  88.8929918  32.0943655  84.0382179
  89.6371963  32.4817931  84.2765128  89.0390614  31.2501080  84.2022666
  89.0240503  32.0274128  84.0976148  90.8109493  23.8893914  89.0714040
  89.9645539  24.0616722  88.9455390  90.8080626  23.0843258  89.4079868
  90.6856643  23.7954943  89.1025167  91.8807794  27.6669128  89.9376098
  91.4067748  27.1410890  90.4481409  92.2525930  27.1198601  89.3690959
  91.8657683  27.5085125  89.9291245  82.2580824  29.6640635  95.3059644
  83.1206437  29.5636344  95.2196973  81.9272607  29.0835344  94.7445216
  82.3366020  29.5632262  95.2105050  98.1444524  32.7271504  91.3482878
  97.9042747  31.8877919  91.3525305  98.6236532  32.8071671  92.0723652
  98.1796708  32.6152904  91.4557681  93.8091294  28.5605683  83.0001852
  93.2814312  28.6434427  82.3107561  94.2687002  29.3023554  82.9966496
  93.7993144  28.6826345  82.8976547 100.1449711  29.5072961  89.3012138
  99.9059481  29.4668795  88.4632922 100.3083613  30.3544113  89.4277859
 100.1340015  29.6265046  89.1965619  96.7495742  33.8922910  95.2317183
  97.4729940  33.4395437  95.0528203  96.4845704  34.1727576  94.4489511
  96.8177015  33.8673879  95.0895898  85.6182610  28.4883084  91.9670062
  84.9935680  28.5001476  91.3596015  85.2828205  28.9643259  92.6161302
  85.4768102  28.5601601  91.9726630  82.3308286  36.5483544  93.4073826
  81.8008210  35.8575983  93.4568801  82.6033379  36.5393729  92.5786535
  82.2933008  36.4450676  93.2921242  92.5314531  33.9906789  93.3812198
  91.9171524  33.4464839  93.6760833  93.0481816  33.4771025  92.9018014
  92.5170194  33.8343198  93.3536426  91.7710828  35.0611059  91.1156496
  91.3438436  34.4360777  90.6821932  91.7635773  34.7785981  91.9415504
  91.7069969  34.9263839  91.1736324  84.8873355  30.0976232  94.1844930
  85.0466842  29.3419556  94.5896652  84.7066249  30.6467171  94.8385668
  84.8838714  30.0670046  94.3407636  92.8293658  22.2637467  94.7395720
  92.3334220  22.4601142  94.0487287  93.5862720  22.6630136  94.5684521
  92.8680483  22.3515201  94.6115857  90.0996538  25.9379813  91.3299030
  90.1239025  25.4039926  90.6411810  90.3508012  25.4297122  91.9924621
  90.1406457  25.7840717  91.3263675  77.6104128  33.2211308  90.7642174
  77.5047577  33.1758153  89.8994258  76.8604348  33.5665089  91.0456459
  77.4839731  33.2652216  90.6779504  86.3797860  24.6650631  90.7104775
  86.4196232  25.1659838  91.4239482  85.5547525  24.7561025  90.4410698
  86.2637386  24.7532448  90.7755313  88.5627473  34.2311371  98.8125069
  87.7123104  34.3683086  98.9482714  88.7255601  33.4975150  99.2572771
  88.4611337  34.1425473  98.8980668  87.8012224  31.1811141  93.0078674
  86.9704153  31.3484959  92.8013922  87.7463741  30.8047092  93.7927559
  87.6701638  31.1500873  93.0927202  85.6096007  24.6720034  98.6435084
  86.2348710  24.1282167  98.9164517  85.1546487  24.1914952  98.0742875
  85.6344267  24.5209516  98.5996678  86.1748267  29.4566733  83.5368791
  86.3151228  29.9539197  84.2397433  86.6730800  28.7553027  83.6783005
  86.2689348  29.4268712  83.6620370  99.1831056  32.8549321  93.7347732
  99.7748896  33.4946572  93.7665930  99.6190050  32.1572358  94.0239799
  99.3349487  32.8467672  93.7828565  87.7827473  26.2547819  80.8406810
  88.1043314  25.7750902  80.1866073  88.0454416  27.0647465  80.6497622
  87.8693498  26.3037717  80.7162302  91.0124445  37.2766694  94.3605626
  90.5049537  37.8302540  94.8046257  90.7151092  37.3374984  93.5424401
  90.8929330  37.3673005  94.3054083  93.1786628  25.6420013  93.2030289
  93.6041699  25.1892540  92.5913816  92.5643621  25.0880084  93.4795077
  93.1515273  25.4933989  93.1535315  91.6180850  22.1135113  86.6120866
  90.9749168  21.9632759  87.1806005  91.2780257  21.8677458  85.8469971
  91.4725928  22.0547236  86.5823881  96.2080197  30.0694540  86.0350875
  95.5371387  30.6124242  85.9063940  96.9019947  30.5389395  85.7932570
  96.2109064  30.2192811  85.9806403  90.2566931  42.2091252  91.2662633
  90.0332585  41.4510081  91.6346660  89.7676774  42.2389273  90.5443073
  90.1510380  42.1013476  91.2139374  96.3708324  26.5250423  88.9441248
  96.7235934  26.0980146  89.6187047  95.5123126  26.4401267  89.0742325
  96.2957769  26.4495164  89.0636259  85.0692009  29.1557943  87.0024095
  84.3503999  29.5722076  87.2696958  85.4404372  29.7212182  86.4515733
  85.0183941  29.3007225  86.9606902  94.3691590  29.7885792  92.8926090
  94.3489518  29.6069087  93.7460869  94.4170791  30.6597811  92.8685674
  94.3726231  29.8902330  93.0149385  92.3137920  36.3772984  98.8174567
  92.2733775  35.7322661  98.2319723  93.1261238  36.3209601  99.1299979
  92.4281074  36.2731951  98.7771516  88.9045388  42.4291710  88.7199718
  88.4905786  41.7665840  88.3303559  89.5892762  42.5769569  88.1995412
  88.9443759  42.3532368  88.5856215  92.2710682  41.5881795  89.4723334
  91.8726965  41.6984066  88.7044155  91.6561901  41.7963862  90.0549894
  92.1209571  41.6355363  89.4454634  90.8438584  28.1955943  82.3397474
  90.2503423  28.5172940  81.7882041  90.8813861  27.3497038  82.1318580
  90.7612973  28.1180271  82.2280245  97.8032385  21.6468835  89.8725561
  97.2963249  20.9397975  89.8046738  98.5999818  21.3162024  90.0026637
  97.8459624  21.4941987  89.8824556  93.7196400  28.1535448  85.7699224
  93.4910093  28.1768149  84.9277583  93.9794477  27.3292915  85.8894235
  93.7242588  28.0351528  85.6624422  88.0015629  30.0069921  95.3724325
  87.4894532  29.3991104  95.7309356  87.8295125  30.7226513  95.8398300
  87.9005266  30.0233220  95.4940548  82.8481344  28.4507496  98.0226686
  82.6783934  29.1108871  97.4774893  82.4047293  28.6614057  98.7439175
  82.7580677  28.5793478  98.0488316  86.7741163  26.6911994  87.0653420
  87.2498529  27.0529074  86.4303601  86.2729762  27.3468461  87.3453563
  86.7706522  26.8406183  87.0130161 100.0052524  36.1633762  82.8566425
 100.3886130  36.9125118  83.0864522  99.2096638  36.4099582  82.5978414
  99.9446307  36.3103456  82.8523999  91.8784699  27.9294165  97.8126580
  92.4356129  27.7007975  97.1805046  91.5545764  28.6899831  97.5361792
  91.9131109  28.0078002  97.6783077  79.7483408  31.3554361  93.2815176
  79.2010127  30.6855007  93.3996044  80.5375786  30.9884209  93.3458643
  79.7835592  31.2019348  93.3083877  89.5967816  31.0161819  98.7778587
  90.3479143  31.3313495  99.0918141  89.7890393  30.8140989  97.9512509
  89.7359231  31.0329200  98.7021983  96.4453107  27.1435385  86.0202383
  96.4447333  26.9884041  86.8786659  96.2409287  27.9898372  85.9643768
  96.4152884  27.2456006  86.1390322  78.5070377  30.5675169  90.4361199
  78.3292139  30.1151778  91.1616115  78.2189400  31.3701331  90.6199677
  78.4383331  30.6197727  90.5704702  94.1693959  31.8232887  89.6738590
  94.6647624  31.1055882  89.6342610  93.3593734  31.5203684  89.5593076
  94.1237852  31.6730533  89.6512315  89.6152570  35.6730700  81.8235594
  88.8063893  35.3497373  81.7768903  90.1227479  34.9663922  81.7563843
  89.5702237  35.5212016  81.8065888  80.2442847  33.1002893  87.5482958
  79.3788367  33.0888584  87.4365729  80.3441663  32.9133116  88.3954098
  80.1317014  33.0708954  87.6571903  96.2345777  34.5736574  92.3615718
  96.6600849  34.0510996  91.8086143  95.8702697  35.1717412  91.8404341
  96.2432380  34.5846801  92.2024728  85.8699857  42.8700792  91.1213064
  86.1846416  43.6837180  91.1290846  86.2793271  42.4851010  91.7895223
  85.9767955  42.9329494  91.2217155  92.8224377  38.2870838  88.6916876
  93.2935555  39.0011101  88.8606861  93.1584555  37.6869589  89.2276745
  92.9419492  38.3042303  88.7949252  94.9101361  39.8972152 100.8708948
  95.0198327  39.1080712 101.2265695  95.2392258  39.8078088 100.0683286
  94.9753767  39.7678005 100.8051339  89.7393872  23.0598309  95.6474971
  89.8721777  22.2629302  95.9755946  90.1239025  23.5864712  96.2273246
  89.8150201  23.0198226  95.7818473  93.4598323  38.0788773  95.4544568
  92.9119269  37.4546656  95.1864634  93.9211352  38.2683045  94.7388648
  93.4465533  38.0147823  95.3094999  92.8126227  19.9828635  92.2456064
  92.0072191  19.8726365  92.5623902  92.6832962  20.0841091  91.3885930
  92.6746360  19.9812305  92.1664104  96.2692188  26.1474127  92.8395761
  95.6855176  26.6483334  92.4273328  96.5896482  25.6403683  92.2060084
  96.2305363  26.1465962  92.6854268  88.8086987  25.0614722  83.1154436
  89.6302681  25.2313035  82.8736130  88.3456638  25.2161983  82.3920733
  88.8618149  25.1096455  82.9726080  87.3982319  23.0557484  93.8952864
  87.9426732  22.7148611  94.4857206  87.4519254  23.9142946  94.0374149
  87.4871438  23.1312743  94.0034738  83.2112877  36.8173900  90.7691672
  83.8157735  36.7769734  90.1405493  83.0040190  37.6645052  90.7995728
  83.2701775  36.9361903  90.6807789  93.0256650  39.0839845  91.9853910
  93.8455023  38.9402811  92.2470205  92.7450727  39.7086044  92.5270347
  93.1053393  39.1550197  92.1041849  78.4464160  35.8008518  90.6390595
  78.3488438  34.9904789  90.9480652  79.2293029  35.7800311  90.2536863
  78.5480296  35.6775608  90.6277458 109.4970300  46.7404697  84.9496786
 109.4664304  47.5949334  85.1215055 110.0951649  46.4399990  85.5082930
 109.5807458  46.8221194  85.0571588 102.6969985  45.8280348  89.7049716
 101.8407880  45.9888846  89.7558833 102.7437638  44.9572412  89.7254777
 102.5769096  45.7231150  89.7155782 106.0063701  52.0966874  99.3110172
 106.7130469  51.6018904  99.4397107 106.1951637  52.5375955  98.5812830
 106.1391607  52.0885224  99.2219218 102.0740376  57.7382704  86.8383607
 102.4579755  58.3069603  86.2988382 102.0099517  57.0132214  86.3589423
 102.1213803  57.7158167  86.6877469 105.5421806  47.8872392  92.3481368
 106.0877766  48.5657479  92.4075338 105.4838682  47.7459853  91.4882950
 105.6137720  47.9664394  92.2293429 107.3186874  49.3156999  83.2215096
 107.2026400  50.0664685  83.6507234 108.1142761  49.0580952  83.4711183
 107.4191464  49.3891846  83.3219187  94.1551012  43.5667475  90.2586362
  93.5356044  42.9760122  90.0896377  94.0534876  44.1578910  89.6250685
  94.0488688  43.5671558  90.1391351  93.8820145  47.1119757  92.5029931
  93.7578842  47.6982202  93.1379750  94.5338430  46.6179953  92.8042206
  93.9593795  47.1258561  92.6415860  98.9078486  50.2881474  91.7817442
  99.5527489  49.7953917  91.4628390  99.1480263  50.4306260  92.6083520
  99.0389071  50.2358916  91.8566975 101.4464578  53.1336380  91.4324334
 101.7287821  52.3387785  91.2111090 102.1750738  53.6116967  91.4529395
 101.5954141  53.0870977  91.4027350  99.4245772  40.6759414  88.6740100
  99.0949102  41.1270557  88.0043798  98.7490773  40.5975577  89.2213106
  99.2756208  40.7310549  88.6563323 105.0416180  50.0464643  81.5329386
 104.9567475  50.9025610  81.6778954 105.5300563  49.7708967  82.2011545
 105.1005077  50.1321965  81.6531467 106.6322179  36.6644937  86.9189710
 106.3175620  37.3548415  87.3510133 106.1149121  36.6089719  86.2175211
 106.5086650  36.7579825  86.8786659 105.9734613  46.6649437  83.0327121
 105.4446085  46.8809071  83.6924427 106.4959633  47.3585576  82.9528090
 105.9723066  46.7992574  83.1182720 111.4282666  52.2395742  88.4060165
 110.5980369  52.4506386  88.5693582 111.3791918  51.4132796  88.1302449
 111.2989401  52.1485348  88.3897531  99.4892404  55.0699596  91.2408075
  98.9719345  54.7107011  90.6369383 100.1866795  54.5461771  91.2514141
  99.5157985  54.9397284  91.1538333 103.1455996  55.5194410  97.2024248
 103.2339341  55.3320551  98.0502458 103.5745708  54.8731840  96.8029095
 103.2218098  55.3957418  97.2695999 100.7126455  54.8025570  96.1841910
 100.1497290  54.3898180  96.7081571 101.4747479  54.7278476  96.6035053
 100.7420904  54.7302971  96.3234910 110.9236624  44.8866143  92.2010587
 110.0865045  44.9568330  92.4358181 110.8924855  44.8890637  91.3284889
 110.7954907  44.8976370  92.1070135  97.3201353  47.0299178  97.9158955
  97.4921857  46.9205073  98.7644237  97.8570711  47.6753584  97.6790148
  97.4246357  47.1091180  98.0064052  96.2225925  53.4030818  92.5977454
  96.7624150  53.2601950  93.2680826  95.5395872  53.8027569  92.9661480
  96.2018079  53.4410489  92.7511875 101.6658509  38.1468432  83.8890184
 102.3944670  37.9684387  83.4428340 101.7553402  38.9886512  84.0997362
 101.7865172  38.2452310  83.8543702 105.6466810  49.0821819  87.7922478
 106.4024325  49.5153333  87.8311387 105.7529135  48.4326589  88.3657114
 105.7736981  49.0499303  87.8820504 108.6846981  52.9095096  88.5424881
 108.2482213  52.9131839  89.2983852 108.3509897  53.5900595  88.1104458
 108.5709601  53.0107552  88.5905714 103.2576055  54.9503429  99.8668031
 104.0416472  55.0634277 100.2323773 103.0572649  54.1244566 100.0626717
 103.3442080  54.8450149  99.9502417  91.6263070  49.6231109  92.7511875
  91.3601486  48.8070226  92.9102865  91.6401634  49.6684265  91.8807391
  91.5887793  49.5088014  92.6465357 108.6044464  39.9508924  90.7854309
 109.2470373  40.0207029  91.3716224 108.8567485  39.2838147  90.2833851
 108.7366596  39.8635273  90.7981588  96.3761677  43.1609488  95.3978883
  95.6833473  42.6906467  95.6439614  96.9922004  42.9347792  95.9720590
  96.3646207  43.0576619  95.5188036 103.4146448  56.8613531  93.5134487
 102.6161694  56.6213031  93.7708356 103.8632460  56.9127924  94.2601535
 103.3621059  56.8335922  93.6619411 111.8191328  49.6276016  87.4344518
 112.4807762  49.0666685  87.3340427 111.1782739  49.1328047  87.7597209
 111.8220195  49.4712425  87.4676858 108.1056158  50.6441399  87.1756507
 108.3411747  50.7886598  86.3483358 108.2545722  51.4083807  87.5688021
 108.1621961  50.7780453  87.1120111  95.1002236  47.1274892  96.5405728
  95.8242208  47.1127922  97.0270623  95.2018372  47.8370247  96.0427696
  95.2220445  47.2299595  96.5384515 109.9346615  49.4843065  85.0126111
 110.2654832  50.0170705  84.4066206 110.5079703  49.5381952  85.6688062
 110.0680294  49.5712633  85.0203893 102.4747185  50.6073976 101.4054675
 101.6820166  50.9217488 101.5907295 102.5896112  50.8225445 100.5675460
 102.3742596  50.6857813 101.3093010 105.1478504  47.3307967  85.6949691
 105.2425358  48.0697261  86.1489316 104.5237348  46.9025443  86.1284255
 105.0687534  47.3769288  85.8257838 103.4030978  50.5094180  96.3439972
 103.9769840  49.8721424  96.4988536 103.3245782  50.5098262  95.4749629
 103.4764213  50.4159291  96.2386383  92.0027394  47.2883389  90.1822686
  92.5800897  47.1519840  90.8214931  91.3041456  46.8319173  90.4368270
  91.9848416  47.2005656  90.3144976 103.8395747  41.0445896  88.4965262
 103.1352073  40.5555081  88.6549181 103.8880721  41.0568370  87.6253706
 103.7425798  40.9735544  88.3904602  97.7329409  46.4955207  88.8826064
  97.1579000  46.6547376  89.5190025  97.3565085  45.8590617  88.4194515
  97.5932221  46.4253020  88.9080622 101.4002697  44.9678557  93.7418442
 101.0117130  44.5432775  93.0870634 100.7357396  45.2160706  94.2495469
 101.2449625  44.9417278  93.7206310 111.0425966  44.7253561  86.5166272
 110.7862531  43.9133503  86.3264155 111.8855280  44.7331129  86.2896460
 111.1291992  44.6065559  86.4551090 105.2229059  38.6653186  91.2542427
 105.6039571  37.9831357  91.6410301 104.4192343  38.3762788  91.0718091
 105.1605521  38.5220234  91.2846483 108.7251126  51.8803157  96.3524825
 108.4889763  51.0491222  96.2336886 109.3694355  51.8288765  96.9379669
 108.7845797  51.7500845  96.4210719  99.1820899  41.1707384 101.1205035
  98.8674340  41.9406947 100.8574598  98.8610832  40.6077640 100.5357262
  99.0879818  41.2017652 100.9946385 109.7487546  51.6647606  92.4153120
 109.4433363  52.3975663  92.7766435 109.0293762  51.2585536  92.1345906
 109.5974889  51.7129339  92.4266257 115.4489339  48.3040607  91.7421464
 115.3813839  48.3236566  90.8724050 115.4345001  49.1470934  91.9677134
 115.4368095  48.4314342  91.6473941  96.7352796  39.5597905  86.7351231
  95.8675222  39.6320505  86.8008841  97.0228001  40.3619984  86.9239206
  96.6492544  39.6892052  86.7725998 105.8585685  39.7075765  95.0662553
 106.6039277  39.5185575  94.6525979 105.4422990  40.2334003  94.5076410
 105.9070659  39.7577910  94.9227126 113.2347956  47.0784993  90.0168058
 113.7855877  46.4453062  90.2565150 113.2192071  47.6100386  90.7083562
 113.3133152  47.0633941  90.1546916  99.8870347  50.9123590  94.5627952
  99.3882040  51.6239358  94.6412840 100.6970571  51.2324257  94.5246114
  99.9326453  51.0650439  94.5684520 106.9376362  45.3181327  89.1272654
 106.5941128  44.5971662  89.4779904 107.0369405  45.1095178  88.2851013
 106.9018405  45.1805530  89.0544334 107.3989391  51.7807031  84.6696643
 107.9647424  52.4400241  84.5855185 106.7517295  52.1256729  85.1413045
 107.3868148  51.9288972  84.7269399  98.8137405  43.7704635  99.8590250
  98.0037180  44.0762415  99.7480092  99.2912091  44.4910217  99.9742834
  98.7640883  43.9219236  99.8597321 103.8695969  54.7245815  84.0933722
 103.6282645  53.9913676  83.6860787 104.0497302  55.2732672  83.4400055
 103.8603593  54.6968206  83.9363945 105.4567327  43.2372912  91.0032197
 104.6178428  43.2634190  90.7670461 105.5271695  43.8843647  91.5837544
 105.3435721  43.3369037  91.0541314  95.1481437  49.3067185  94.7289652
  95.6602534  49.5851438  94.0798412  94.8617779  50.0456479  95.0952465
  95.1816300  49.4569539  94.6879530 103.9036606  40.1358289  85.7359813
 104.6062959  39.9366037  85.2579771 103.6380794  39.3634231  86.0428657
 103.9683238  39.9921255  85.7105255 109.3324851  48.4440898  88.2893439
 109.2458826  48.5996324  89.1428218 108.8775331  49.0878974  87.9152844
 109.2528108  48.5616653  88.3600546  98.6665162  41.3993574  94.7890694
  98.4748359  41.4148708  95.6390117  99.5163758  41.5957248  94.7657349
  98.7640884  41.4307925  94.9113989  93.0512075  43.9284555  92.7674510
  92.9097567  43.0768496  92.8919018  93.3352638  43.9713216  91.9436716
  93.0719921  43.8084305  92.6642134 103.2050667  45.7651645  86.9118999
 102.9585382  45.6847396  87.7455788 103.5335790  44.9805113  86.7181526
 103.2171911  45.6377911  87.0066522 107.0998716  52.4735005  90.7005780
 106.9613075  53.1716051  91.2054522 106.3198714  52.3183661  90.3441962
 106.9641943  52.5535171  90.7232054 105.4376801  48.7731380  96.9528162
 105.4324840  47.9011197  96.9570588 106.1437795  48.9719549  96.4797617
 105.5421805  48.6735254  96.8835197  99.1647695  48.5008364  96.3241982
  99.3091070  49.0809572  95.6885092  99.5123343  48.8784661  97.0291836
  99.2375156  48.6429068  96.3340977 101.3367612  47.6998532  94.1067113
 100.5890926  47.8929547  93.7015391 101.4909137  46.8743752  93.8691235
 101.2490040  47.6063644  94.0112519  98.2375450  56.6911136  93.1903008
  98.3865013  56.1314052  92.5376413  99.0175452  56.7703138  93.5735527
  98.3749543  56.6196701  93.1499958 108.5952089  51.8313259  81.4622279
 108.2158898  51.0450396  81.4551568 107.9318334  52.3800116  81.3193923
 108.4410564  51.7958083  81.4403076 100.7628750  56.8625779  94.4687499
 100.6872421  56.1934589  95.0238288 100.6918609  57.5643567  94.9828166
 100.7409357  56.8670686  94.6264347 101.5769389  41.5949083  94.9962517
 102.0342003  42.3273057  95.1235309 101.6525718  41.1715548  95.7549773
 101.6560359  41.6406321  95.1263593  93.8202380  41.8414903  96.0851961
  93.2844570  41.2295261  96.4012728  93.8820145  42.4163039  96.7385627
  93.7498013  41.8361831  96.2287387 106.0496715  34.7738958  88.8656360
 106.1680283  35.2315422  88.1323663 105.8758891  33.9684220  88.5792578
 106.0415886  34.7232730  88.7157294 101.4198997  55.3826778  85.3011105
 102.1848888  55.1136421  84.9793770 101.3177087  54.8976788  86.0181168
 101.5180493  55.2716342  85.3590933  99.4551767  43.5851187  91.8404341
  98.6647842  43.4042647  92.1621677  99.8512390  42.8078140  91.8234635
  99.3968643  43.4438648  91.8856889 104.8395453  51.2193617  89.5663787
 104.1640455  50.9878849  90.0677174 104.8487829  50.6114800  88.9405892
 104.7413958  51.0952542  89.5479939 101.9689597  46.0611446  96.3227840
 101.9048738  46.9221403  96.1947977 102.1086785  45.7443439  95.5223391
 101.9805067  46.1411613  96.1856053 106.8412188  54.0758750  81.7973965
 106.9232025  54.8825736  81.4735416 107.3261930  54.0954709  82.5214738
 106.9249346  54.1979412  81.8560864 100.6508691  48.7543585  90.4644043
 100.2270940  48.9548085  89.7283061 100.4753546  47.9072433  90.5768343
 100.5619572  48.6592367  90.3717733 100.1520385  60.2694098  92.9265500
 100.6416315  59.5704888  92.7441165  99.5804617  59.9717968  93.5141557
 100.1404915  60.1220322  92.9866541 106.3487388  52.8356168 101.8792291
 107.1622253  52.5641317 102.0397423 106.1882354  52.5363708 101.0752487
 106.4457337  52.7511094 101.7837697 100.6456730  54.0170872  82.0505407
 100.7149551  53.1585411  82.1898407 101.4245186  54.2342753  81.7224431
 100.7709581  53.9223736  82.0222564 103.6259550  43.5189825  94.8187679
 103.8401520  42.8800739  94.2651033 103.0093449  43.9635649  94.3895541
 103.5664879  43.4899969  94.6738110 105.0364218  56.4408573  86.2641900
 104.6444010  56.1375288  85.5464766 105.1917290  57.2777663  86.0746854
 105.0017808  56.5192410  86.1298397 105.7898638  45.1278890  95.7570986
 104.9775320  44.8204781  95.8384159 106.2488573  44.6477890  96.3213698
 105.7379023  45.0115383  95.8525580 105.2003893  53.0058562  86.2047930
 104.8418548  53.1773205  86.9811963 104.7142604  53.4671768  85.6475929
 105.0762590  53.0997533  86.2373200 103.0174279  36.6289761  89.8075022
 102.1467837  36.6028482  89.7608331 103.2714620  36.4566953  88.9900867
 102.9267839  36.5999904  89.6795159 102.8852146  46.5338962 100.5399688
 103.3551777  47.1581078 100.9267563 102.9314026  45.8655937 101.0992903
 102.9620021  46.5273642 100.6799760 100.0423419  38.6395989  91.2648492
  99.5261908  37.9476181  91.3900071  99.4817348  39.3066766  91.2111091
  99.8829932  38.6359247  91.2754558 102.1115653  39.1788949  93.0941345
 101.7247406  39.2037981  93.8754875 101.6248590  38.6130628  92.6415861
 101.9828162  39.0984700  93.1429248 106.3608632  53.8962458  97.1515131
 106.9988353  53.4022654  96.8177587 105.7182724  53.8239859  96.5667358
 106.3602859  53.8121467  97.0157486 108.0865632  45.7451604  91.7181047
 107.6593240  45.6577953  90.9629146 107.4491685  45.8529380  92.3035891
 107.9295239  45.7484264  91.6926488 101.7772794  36.0655935  95.3851605
 102.4065912  36.6016235  95.1072675 101.9458657  35.9733294  96.2365170
 101.8950589  36.1317297  95.4700133 101.5786709  40.8527129  97.6578016
 102.4060139  40.5812278  97.7136631 101.5994555  41.6487971  98.0141834
 101.7039559  40.9306884  97.7193199 106.4162889  54.5882266  93.7920488
 107.2055267  54.2371331  93.9122570 106.5906487  55.4018655  93.5297122
 106.5583170  54.6568124  93.7708356  96.1556199  47.9990992  90.8448277
  95.3144206  47.8994866  91.0527171  96.3646207  48.7686472  91.1962598
  96.0620892  48.0983035  90.9275592  93.6331766  45.6210529  88.6733028
  93.2388464  45.6953541  87.8983137  93.0771883  46.0068475  89.2241389
  93.4934578  45.6892304  88.6400687 105.2696713  38.5991823  88.3536907
 105.4746306  38.5314131  89.1993904 104.9423137  39.4050644  88.2858084
 105.2511961  38.7077764  88.4696562  99.9672864  45.9272391  90.0945874
  99.6636002  45.3728380  90.6956282  99.2652285  46.1064601  89.6073909
  99.8189074  45.8717174  90.1115580  98.0291215  53.1422112  94.8017972
  97.9211570  53.1524174  95.6680030  98.2386997  53.9676892  94.6122926
  98.0441326  53.2663187  94.9022064 108.5230401  39.1523587  87.8339672
 107.9104714  39.6393990  88.2193404 108.6194575  38.4767078  88.3777323
 108.4468298  39.1241896  87.9718530  96.0465007  50.3934754  92.2639910
  95.4552940  51.0344253  92.2342925  96.8086031  50.8172372  92.2371209
  96.0713268  50.5510593  92.2555057  96.4425630  41.5536752  92.9307927
  96.9027111  41.6275682  93.6683051  96.4881737  42.3518006  92.5807749
  96.5176185  41.6830899  92.9880684  98.0908980  42.2203447  97.4979955
  97.6994545  41.5736794  97.9335732  98.2594842  42.8114882  98.1174210
  98.0579890  42.2117715  97.6542661 112.1655429  50.2240524  93.2617188
 112.2238552  50.6727173  94.0077165 111.5321896  50.6339337  92.8247268
 112.0806724  50.3514259  93.3069736 105.8054523  55.8444066  89.6971934
 105.6074212  56.3334881  89.0028146 105.1842234  56.0485308  90.2756068
 105.6842088  55.9460604  89.6795158 101.7842077  39.4079222  89.0714040
 100.9378122  39.5802030  88.9455390 101.7813210  38.6028566  89.4079868
 101.6589227  39.3140251  89.1025167 102.8540377  43.1854436  89.9376098
 102.3800332  42.6596198  90.4481409 103.2258513  42.6383909  89.3690959
 102.8390266  43.0270433  89.9291245  93.2313408  45.1825943  95.3059644
  94.0939021  45.0821652  95.2196973  92.9005191  44.6020652  94.7445216
  93.3098604  45.0817570  95.2105050 109.1177108  48.2456812  91.3482878
 108.8775331  47.4063227  91.3525305 109.5969115  48.3256979  92.0723652
 109.1529292  48.1338212  91.4557681 104.7823877  44.0790991  83.0001852
 104.2546896  44.1619735  82.3107561 105.2419585  44.8208862  82.9966496
 104.7725728  44.2011653  82.8976547 111.1182295  45.0258269  89.3012138
 110.8792065  44.9854103  88.4632922 111.2816196  45.8729421  89.4277859
 111.1072599  45.1450354  89.1965619 107.7228325  49.4108218  95.2317183
 108.4462524  48.9580745  95.0528203 107.4578288  49.6912884  94.4489511
 107.7909598  49.3859187  95.0895898  96.5915194  44.0068392  91.9670062
  95.9668264  44.0186784  91.3596015  96.2560788  44.4828567  92.6161302
  96.4500685  44.0786909  91.9726630  93.3040869  52.0668852  93.4073826
  92.7740794  51.3761291  93.4568801  93.5765962  52.0579037  92.5786535
  93.2665591  51.9635984  93.2921242 104.3360960  52.6494554  82.1311509
 105.0595159  53.1152667  81.9876082 103.8961551  52.7168164  81.3809106
 104.3776652  52.7278391  81.9996290 103.5047115  49.5092097  93.3812198
 102.8904108  48.9650147  93.6760833 104.0214400  48.9956333  92.9018014
 103.4902777  49.3528506  93.3536426 102.7443412  50.5796367  91.1156496
 102.3171020  49.9546085  90.6821932 102.7368356  50.2971288  91.9415504
 102.6802553  50.4449147  91.1736324  95.8605939  45.6161540  94.1844930
  96.0199426  44.8604864  94.5896652  95.6798833  46.1652479  94.8385668
  95.8571298  45.5855353  94.3407636 103.8026242  37.7822775  94.7395720
 103.3066803  37.9786449  94.0487287 104.5595304  38.1815444  94.5684521
 103.8413067  37.8700509  94.6115857 101.0729122  41.4565121  91.3299030
 101.0971609  40.9225233  90.6411810 101.3240595  40.9482430  91.9924621
 101.1139040  41.3026025  91.3263675  88.5836711  48.7396616  90.7642174
  88.4780160  48.6943460  89.8994258  87.8336931  49.0850397  91.0456459
  88.4572314  48.7837524  90.6779504  97.3530444  40.1835939  90.7104775
  97.3928815  40.6845146  91.4239482  96.5280108  40.2746333  90.4410698
  97.2369970  40.2717756  90.7755313  99.5360057  49.7496679  98.8125069
  98.6855687  49.8868394  98.9482714  99.6988184  49.0160458  99.2572771
  99.4343920  49.6610781  98.8980668  98.7744807  46.6996449  93.0078674
  97.9436737  46.8670267  92.8013922  98.7196324  46.3232400  93.7927559
  98.6434222  46.6686181  93.0927202  96.5828590  40.1905342  98.6435084
  97.2081294  39.6467475  98.9164517  96.1279070  39.7100260  98.0742875
  96.6076851  40.0394823  98.5996678 110.1563639  48.3734629  93.7347732
 110.7481479  49.0131880  93.7665930 110.5922634  47.6757666  94.0239799
 110.3082070  48.3652980  93.7828565 101.9857029  52.7952002  94.3605626
 101.4782120  53.3487848  94.8046257 101.6883675  52.8560291  93.5424401
 101.8661914  52.8858313  94.3054083 104.1519211  41.1605321  93.2030289
 104.5774283  40.7077848  92.5913816 103.5376204  40.6065392  93.4795077
 104.1247857  41.0119297  93.1535315 104.5964809  56.7115259  82.2909570
 103.8794119  56.5376121  81.8256807 105.2471547  56.4767832  81.7585056
 104.5866660  56.6511052  82.1438788 102.5913434  37.6320421  86.6120866
 101.9481752  37.4818067  87.1806005 102.2512841  37.3862766  85.8469971
 102.4458511  37.5732543  86.5823881 107.1812781  45.5879848  86.0350875
 106.5103970  46.1309550  85.9063940 107.8752531  46.0574703  85.7932570
 107.1841648  45.7378119  85.9806403 101.2299514  57.7276560  91.2662633
 101.0065169  56.9695389  91.6346660 100.7409358  57.7574581  90.5443073
 101.1242963  57.6198784  91.2139374 107.3440908  42.0435731  88.9441248
 107.6968518  41.6165454  89.6187047 106.4855709  41.9586575  89.0742325
 107.2690353  41.9680472  89.0636259 105.3424174  45.3071100  92.8926090
 105.3222101  45.1254395  93.7460869 105.3903375  46.1783119  92.8685674
 105.3458815  45.4087638  93.0149385 103.2870504  51.8958292  98.8174567
 103.2466359  51.2507969  98.2319723 104.0993822  51.8394909  99.1299979
 103.4013657  51.7917259  98.7771516 103.2443265  57.1067103  89.4723334
 102.8459549  57.2169374  88.7044155 102.6294485  57.3149169  90.0549894
 103.0942155  57.1540671  89.4454634 108.7764968  37.1654143  89.8725561
 108.2695833  36.4583283  89.8046738 109.5732402  36.8347332  90.0026637
 108.8192207  37.0127295  89.8824556 104.6928984  43.6720755  85.7699224
 104.4642677  43.6953457  84.9277583 104.9527060  42.8478223  85.8894235
 104.6975172  43.5536835  85.6624422  98.9748212  45.5255229  95.3724325
  98.4627115  44.9176412  95.7309356  98.8027709  46.2411821  95.8398300
  98.8737849  45.5418528  95.4940548  93.8213927  43.9692804  98.0226686
  93.6516517  44.6294179  97.4774893  93.3779877  44.1799365  98.7439175
  93.7313261  44.0978786  98.0488316 110.9785108  51.6819070  82.8566425
 111.3618714  52.4310426  83.0864522 110.1829221  51.9284890  82.5978414
 110.9178890  51.8288764  82.8523999 102.8517283  43.4479473  97.8126580
 103.4088713  43.2193283  97.1805046 102.5278348  44.2085139  97.5361792
 102.8863693  43.5263310  97.6783077  90.7215992  46.8739669  93.2815176
  90.1742711  46.2040315  93.3996044  91.5108370  46.5069517  93.3458643
  90.7568175  46.7204656  93.3083877 100.5700400  46.5347126  98.7778587
 101.3211727  46.8498803  99.0918141 100.7622976  46.3326297  97.9512509
 100.7091814  46.5514508  98.7021983 107.4185690  42.6620693  86.0202383
 107.4179917  42.5069349  86.8786659 107.2141870  43.5083680  85.9643768
 107.3885468  42.7641314  86.1390322  89.4802961  46.0860477  90.4361199
  89.3024722  45.6337086  91.1616115  89.1921983  46.8886639  90.6199677
  89.4115914  46.1383035  90.5704702 105.1426542  47.3418195  89.6738590
 105.6380207  46.6241190  89.6342610 104.3326318  47.0388992  89.5593076
 105.0970435  47.1915841  89.6512315 107.2078361  50.0921882  92.3615718
 107.6333433  49.5696304  91.8086143 106.8435281  50.6902720  91.8404341
 107.2164964  50.1032109  92.2024728 103.7956960  53.8056146  88.6916876
 104.2668139  54.5196409  88.8606861 104.1317139  53.2054897  89.2276745
 103.9152076  53.8227611  88.7949252 105.8833945  55.4157460 100.8708948
 105.9930911  54.6266020 101.2265695 106.2124842  55.3263396 100.0683286
 105.9486351  55.2863313 100.8051339 100.7126455  38.5783617  95.6474971
 100.8454361  37.7814610  95.9755946 101.0971608  39.1050020  96.2273246
 100.7882784  38.5383534  95.7818473 104.4330907  53.5974081  95.4544568
 103.8851853  52.9731964  95.1864634 104.8943936  53.7868353  94.7388648
 104.4198116  53.5333131  95.3094999 103.7858811  35.5013943  92.2456064
 102.9804774  35.3911673  92.5623902 103.6565546  35.6026399  91.3885930
 103.6478943  35.4997613  92.1664104 107.2424771  41.6659435  92.8395761
 106.6587760  42.1668641  92.4273328 107.5629065  41.1588991  92.2060084
 107.2037946  41.6651270  92.6854268  98.3714902  38.5742792  93.8952864
  98.9159315  38.2333919  94.4857206  98.4251838  39.4328254  94.0374149
  98.4604022  38.6498051  94.0034738 103.9989233  54.6025153  91.9853910
 104.8187607  54.4588119  92.2470205 103.7183311  55.2271352  92.5270347
 104.0785976  54.6735505  92.1041849 120.4702883  62.2590005  84.9496786
 120.4396888  63.1134642  85.1215055 121.0684232  61.9585298  85.5082930
 120.5540041  62.3406501  85.0571588 113.6702568  61.3465656  89.7049716
 112.8140464  61.5074154  89.7558833 113.7170222  60.4757720  89.7254777
 113.5501680  61.2416458  89.7155782 108.0543708  70.8828374  85.4686948
 107.3026608  70.5043912  85.2402993 108.5029720  70.9146807  84.7205758
 108.0093375  70.8313981  85.3244450 116.9796285  67.6152182  99.3110172
 117.6863052  67.1204212  99.4397107 117.1684220  68.0561263  98.5812830
 117.1124190  67.6070532  99.2219218 113.5068668  71.3053743  80.8972495
 113.1720036  71.9830665  80.4616717 114.0195538  70.9159055  80.3089367
 113.5334249  71.3478322  80.7459287 113.0472959  73.2568012  86.8383607
 113.4312339  73.8254911  86.2988382 112.9832100  72.5317522  86.3589423
 113.0946386  73.2343475  86.6877469 116.5154389  63.4057700  92.3481368
 117.0610349  64.0842786  92.4075338 116.4571266  63.2645161  91.4882950
 116.5870304  63.4849702  92.2293429 109.6328464  70.8946766  87.7349720
 109.7338827  70.0847120  88.0446848 109.0370209  70.8003712  87.1049399
 109.5601003  70.7611794  87.6875959 118.2919458  64.8342307  83.2215096
 118.1758984  65.5849993  83.6507234 119.0875345  64.5766260  83.4711183
 118.3924047  64.9077154  83.3219187 109.4729204  75.8124355  89.1364576
 110.1166659  76.2537519  89.5260735 109.7985459  75.0077781  89.0494835
 109.6161032  75.7589550  89.1810054 102.8293509  66.9167053  87.3602054
 102.5943693  66.0834705  87.2534323 102.9679149  67.1971718  86.5463255
 102.8149171  66.8350556  87.2244409 105.1283596  59.0852783  90.2586362
 104.5088628  58.4945430  90.0896377 105.0267460  59.6764218  89.6250685
 105.0221271  59.0856866  90.1391351 110.1749784  68.8236330  84.5084438
 110.4965625  69.3641537  83.9045746 110.8221880  68.2533101  84.6406728
 110.3175839  68.8195505  84.4391474 112.2251492  60.8252325  84.5918825
 112.9231656  61.0040452  85.0840288 112.5403824  60.3022664  83.9689214
 112.3746829  60.7746097  84.5720835 104.8552729  62.6305065  92.5029931
 104.7311426  63.2167510  93.1379750 105.5071013  62.1365261  92.8042206
 104.9326378  62.6443869  92.6415860 112.4139427  67.2122770  84.5798616
 112.8533062  66.6039870  85.0253389 112.2644090  66.8330143  83.8084081
 112.4560893  67.0661241  84.5317784 109.8811070  65.8066782  91.7817442
 110.5260073  65.3139225  91.4628390 110.1212847  65.9491568  92.6083520
 110.0121655  65.7544224  91.8566975 112.4197161  68.6521688  91.4324334
 112.7020404  67.8573093  91.2111090 113.1483322  69.1302275  91.4529395
 112.5686725  68.6056285  91.4027350 110.3978355  56.1944722  88.6740100
 110.0681685  56.6455865  88.0043798 109.7223357  56.1160885  89.2213106
 110.2488791  56.2495857  88.6563323 116.0148764  65.5649951  81.5329386
 115.9300059  66.4210918  81.6778954 116.5033147  65.2894275  82.2011545
 116.0737661  65.6507273  81.6531467 117.6054763  52.1830244  86.9189710
 117.2908204  52.8733723  87.3510133 117.0881705  52.1275027  86.2175211
 117.4819233  52.2765133  86.8786659 116.9467197  62.1834745  83.0327121
 116.4178668  62.3994379  83.6924427 117.4692217  62.8770884  82.9528090
 116.9455650  62.3177882  83.1182720 122.4015250  67.7581050  88.4060165
 121.5712953  67.9691694  88.5693582 122.3524502  66.9318104  88.1302449
 122.2721985  67.6670656  88.3897531 108.8366805  66.0797962  81.8334589
 108.2524020  66.5847994  82.2400453 108.4336900  65.8540349  81.0931181
 108.6906108  66.1206210  81.7839614 104.3910833  71.7952723  88.6358260
 103.9078411  72.5203213  88.6117844 105.2034151  72.0928853  88.7468418
 104.4401581  71.9455077  88.6485539 110.4624987  70.5884904  91.2408075
 109.9451929  70.2292319  90.6369383 111.1599378  70.0647078  91.2514141
 110.4890568  70.4582592  91.1538333 114.1188579  71.0379718  97.2024248
 114.2071925  70.8505858  98.0502458 114.5478292  70.3917148  96.8029095
 114.1950682  70.9142726  97.2695999 111.6859039  70.3210878  96.1841910
 111.1229874  69.9083488  96.7081571 112.4480062  70.2463784  96.6035053
 111.7153488  70.2488279  96.3234910 113.2944019  62.3263614  80.3103509
 113.5340023  62.5341598  79.4978852 113.6159860  61.5221123  80.4192454
 113.3781177  62.2377715  80.2064062 108.6034309  54.2557010  84.1563047
 109.3580277  54.6235327  83.9180097 108.4261844  54.6296564  84.9242227
 108.6888788  54.3655198  84.2347936 107.2455030  72.3108899  88.7878540
 107.9475610  71.7960888  88.8451297 107.1652514  72.6383051  89.5925415
 107.3378791  72.2823125  88.9151332 121.8969208  60.4051450  92.2010587
 121.0597629  60.4753638  92.4358181 121.8657439  60.4075945  91.3284889
 121.7687490  60.4161678  92.1070135 108.2933937  62.5484486  97.9158955
 108.4654441  62.4390381  98.7644237 108.8303295  63.1938892  97.6790148
 108.3978941  62.6276488  98.0064052 106.9591374  56.6627329  80.8541160
 106.7766947  56.8799210  80.0282153 107.8216987  56.7766342  80.9099775
 107.0595963  56.7117227  80.7395647 106.5705806  68.5015251  88.2964148
 107.4094705  68.7338184  88.3437910 106.6017575  67.6319563  88.2271184
 106.6987523  68.4072198  88.2928793 107.1958509  68.9216126  92.5977454
 107.7356734  68.7787257  93.2680826 106.5128455  69.3212877  92.9661480
 107.1750663  68.9595797  92.7511875 112.6391093  53.6653740  83.8890184
 113.3677254  53.4869695  83.4428340 112.7285986  54.5071819  84.0997362
 112.7597755  53.7637618  83.8543702 116.6199394  64.6007127  87.7922478
 117.3756909  65.0338641  87.8311387 116.7261718  63.9511897  88.3657114
 116.7469564  64.5684611  87.8820504 119.6579565  68.4280404  88.5424881
 119.2214797  68.4317147  89.2983852 119.3242480  69.1085903  88.1104458
 119.5442185  68.5292860  88.5905714 114.2308638  70.4688737  99.8668031
 115.0149055  70.5819585 100.2323773 114.0305233  69.6429874 100.0626717
 114.3174664  70.3635457  99.9502417 102.5995654  65.1416417  92.7511875
 102.3334069  64.3255534  92.9102865 102.6134218  65.1869573  91.8807391
 102.5620376  65.0273322  92.6465357 119.5777048  55.4694232  90.7854309
 120.2202956  55.5392337  91.3716224 119.8300068  54.8023455  90.2833851
 119.7099180  55.3820581  90.7981588 106.5053401  59.9401502  79.3663633
 105.7911578  59.6539681  79.7786066 106.9897370  60.2798127  80.0070021
 106.4712764  59.9483151  79.5219268 107.3494260  58.6794795  95.3978883
 106.6566057  58.2091775  95.6439614 107.9654588  58.4533100  95.9720590
 107.3378790  58.5761927  95.5188036 114.3879032  72.3798839  93.5134487
 113.5894278  72.1398339  93.7708356 114.8365043  72.4313232  94.2601535
 114.3353643  72.3521230  93.6619411 122.7923911  65.1461324  87.4344518
 123.4540345  64.5851993  87.3340427 122.1515323  64.6513355  87.7597209
 122.7952779  64.9897733  87.4676858 113.6800719  68.4431456  79.7425441
 114.0951867  68.1116479  79.0509937 112.8492648  68.2100358  79.6145578
 113.6188728  68.3602712  79.6216289 103.0089068  65.9275197  90.0323619
 102.8264641  65.9022083  89.1795912 103.7438737  66.3974134  90.0712528
 103.0903131  65.9936559  89.9121538 119.0788742  66.1626707  87.1756507
 119.3144331  66.3071905  86.3483358 119.2278305  66.9269115  87.5688021
 119.1354545  66.2965761  87.1120111 106.0734819  62.6460199  96.5405728
 106.7974792  62.6313230  97.0270623 106.1750956  63.3555555  96.0427696
 106.1953028  62.7484903  96.5384515 120.9079199  65.0028372  85.0126111
 121.2387416  65.5356013  84.4066206 121.4812287  65.0567260  85.6688062
 121.0412878  65.0897941  85.0203893 113.4479769  66.1259284 101.4054675
 112.6552749  66.4402796 101.5907295 113.5628696  66.3410752 100.5675460
 113.3475179  66.2043121 101.3093010 116.1211088  62.8493275  85.6949691
 116.2157942  63.5882569  86.1489316 115.4969931  62.4210751  86.1284255
 116.0420118  62.8954596  85.8257838 114.3763561  66.0279488  96.3439972
 114.9502423  65.3906732  96.4988536 114.2978365  66.0283570  95.4749629
 114.4496796  65.9344599  96.2386383 102.9759978  62.8068697  90.1822686
 103.5533481  62.6705148  90.8214931 102.2774040  62.3504481  90.4368270
 102.9580999  62.7190963  90.3144976 116.3734109  64.6942015  78.9286643
 116.2914271  64.7644202  79.7941630 117.0113829  65.2571759  78.7370384
 116.4553946  64.7880986  79.0276592 109.7327280  64.4602753  88.3961169
 109.4746524  63.6274488  88.3692469 109.7875763  64.6860366  87.5553670
 109.7027058  64.3700524  88.2681306 114.8128330  56.5631204  88.4965262
 114.1084657  56.0740389  88.6549181 114.8613305  56.5753678  87.6253706
 114.7158382  56.4920852  88.3904602 108.7061992  62.0140515  88.8826064
 108.1311584  62.1732684  89.5190025 108.3297669  61.3775925  88.4194515
 108.5664805  61.9438328  88.9080622 112.3735281  60.4863865  93.7418442
 111.9849714  60.0618082  93.0870634 111.7089979  60.7346014  94.2495469
 112.2182209  60.4602586  93.7206310 122.0158550  60.2438869  86.5166272
 121.7595115  59.4318811  86.3264155 122.8587864  60.2516437  86.2896460
 122.1024575  60.1250867  86.4551090 116.1961642  54.1838493  91.2542427
 116.5772154  53.5016665  91.6410301 115.3924927  53.8948096  91.0718091
 116.1338104  54.0405542  91.2846483 113.4774219  64.7162469  81.9395249
 114.2914858  65.0077362  81.8278021 113.4133360  64.0622332  81.3653542
 113.5876958  64.6627664  81.8384087 119.6983709  67.3988465  96.3524825
 119.4622347  66.5676530  96.2336886 120.3426938  67.3474073  96.9379669
 119.7578380  67.2686153  96.4210719 109.3482127  68.1883987  87.0667562
 109.9856074  67.9495734  87.6119355 109.7737199  68.3921146  86.3320722
 109.5058294  68.1834997  87.0384719 104.0394770  70.4272323  90.9501865
 104.0798915  70.6987174  90.1221645 104.5989294  70.9514231  91.3659653
 104.1278116  70.5448078  90.8893753 109.9884942  63.4086277  81.4042451
 110.3730095  63.1893983  82.1558996 109.7396563  64.2349222  81.5343527
 110.0087015  63.4984423  81.5343527 110.1553483  56.6892692 101.1205035
 109.8406924  57.4592254 100.8574598 109.8343415  56.1262948 100.5357262
 110.0612402  56.7202960 100.9946385 120.7220130  67.1832914  92.4153120
 120.4165947  67.9160971  92.7766435 120.0026346  66.7770844  92.1345906
 120.5707472  67.2314647  92.4266257 111.7303599  68.6656409  88.7461348
 111.8042608  68.5031581  89.6003198 112.5473106  68.8546599  88.5021829
 111.8619958  68.6693152  88.8359373 105.4909356  69.0114272  85.7755791
 104.6647474  69.2576009  85.6490070 105.5521347  68.9326353  86.6417849
 105.3783523  69.0359221  85.8844736 107.7085380  55.0783213  86.7351231
 106.8407805  55.1505813  86.8008841 107.9960584  55.8805292  86.9239206
 107.6225128  55.2077360  86.7725998 116.8318269  55.2261073  95.0662553
 117.5771861  55.0370883  94.6525979 116.4155573  55.7519311  94.5076410
 116.8803243  55.2763218  94.9227126 110.2708185  71.6291152  83.4774821
 110.5606483  71.2380134  82.7534048 111.0011666  71.8107857  83.9180096
 110.4215069  71.5984966  83.4357628 124.2080539  62.5970301  90.0168058
 124.7588461  61.9638370  90.2565150 124.1924655  63.1285694  90.7083562
 124.2865736  62.5819249  90.1546916 110.8602930  66.4308898  94.5627952
 110.3614624  67.1424666  94.6412840 111.6703155  66.7509565  94.5246114
 110.9059037  66.5835747  94.5684520 108.2114101  73.6058535  86.5434971
 107.9914396  73.3155890  87.3361638 107.9908623  72.9473490  86.0152883
 108.1461695  73.4658243  86.5823880 107.1231048  65.6931851  88.8090673
 106.8344296  65.0669323  89.3436400 107.9914396  65.6352139  88.8755353
 107.2091300  65.5919396  88.8981627 117.9108946  60.8366635  89.1272654
 117.5673712  60.1156970  89.4779904 118.0101988  60.6280486  88.2851013
 117.8750988  60.6990838  89.0544334 110.3782056  74.9787925  85.3265663
 111.0306114  74.4464367  85.5556689 109.6807665  74.6256577  85.7133537
 110.3712774  74.8477448  85.4177831 107.3263321  67.3327102  84.7333038
 108.0809289  67.7140141  84.9468500 106.7333934  67.7838246  85.1879734
 107.3500035  67.4555930  84.8315916 118.3721975  67.2992339  84.6696643
 118.9380007  67.9585549  84.5855185 117.7249878  67.6442037  85.1413045
 118.3600731  67.4474280  84.7269399 109.7869988  59.2889943  99.8590250
 108.9769764  59.5947722  99.7480092 110.2644675  60.0095525  99.9742834
 109.7373467  59.4404544  99.8597321 108.6461548  68.5035664  90.1073153
 108.1242301  68.6435955  90.7925018 109.0335568  67.7446328  90.2975270
 108.6265249  68.4121188  90.2374229 105.6352732  58.5541472  84.1768108
 105.3477528  58.1842743  83.4400055 106.3223200  59.0236328  83.9151813
 105.6941629  58.5688442  84.0283183 114.8428553  70.2431123  84.0933722
 114.6015229  69.5098984  83.6860787 115.0229886  70.7917980  83.4400055
 114.8336177  70.2153514  83.9363945 110.0727873  65.5339683  85.5054644
 109.8770656  66.1414417  84.9114947 110.2962219  64.8407627  85.0246318
 110.0762514  65.5217208  85.3470725 108.4706403  62.4194421  85.6235512
 109.1929055  62.5835579  85.1639318 107.9914396  63.1404086  85.5174852
 108.5070134  62.5492650  85.5401126 116.4299911  58.7558219  91.0032197
 115.5911012  58.7819498  90.7670461 116.5004278  59.4028955  91.5837544
 116.3168305  58.8554345  91.0541314 106.1214020  64.8252493  94.7289652
 106.6335117  65.1036746  94.0798412 105.8350363  65.5641787  95.0952465
 106.1548883  64.9754847  94.6879530 114.8769189  55.6543597  85.7359813
 115.5795542  55.4551345  85.2579771 114.6113378  54.8819539  86.0428657
 114.9415822  55.5106563  85.7105255 120.3057435  63.9626206  88.2893439
 120.2191409  64.1181632  89.1428218 119.8507915  64.6064282  87.9152844
 120.2260692  64.0801961  88.3600546 103.2080926  59.3322685  85.0253389
 103.3097063  60.1348846  85.3534364 104.0036813  59.1310021  84.7276469
 103.3408832  59.4208584  85.0288744 109.6397746  56.9178882  94.7890694
 109.4480943  56.9334016  95.6390117 110.4896342  57.1142556  94.7657349
 109.7373468  56.9493233  94.9113989 104.0244659  59.4469863  92.7674510
 103.8830150  58.5953804  92.8919018 104.3085222  59.4898524  91.9436716
 104.0452505  59.3269613  92.6642134 114.1783251  61.2836953  86.9118999
 113.9317965  61.2032704  87.7455788 114.5068374  60.4990421  86.7181526
 114.1904495  61.1563219  87.0066522 118.0731300  67.9920313  90.7005780
 117.9345659  68.6901358  91.2054522 117.2931298  67.8368969  90.3441962
 117.9374527  68.0720479  90.7232054 116.4109385  64.2916688  96.9528162
 116.4057423  63.4196505  96.9570588 117.1170379  64.4904857  96.4797617
 116.5154389  64.1920562  96.8835197 110.1380278  64.0193672  96.3241982
 110.2823654  64.5994880  95.6885092 110.4855927  64.3969969  97.0291836
 110.2107740  64.1614376  96.3340977 112.3100196  63.2183840  94.1067113
 111.5623510  63.4114855  93.7015391 112.4641721  62.3929060  93.8691235
 112.2222623  63.1248952  94.0112519 109.2108033  72.2096444  93.1903008
 109.3597597  71.6499360  92.5376413 109.9908035  72.2888445  93.5735527
 109.3482127  72.1382009  93.1499958 119.5684673  67.3498566  81.4622279
 119.1891481  66.5635704  81.4551568 118.9050918  67.8985423  81.3193923
 119.4143147  67.3143390  81.4403076 111.7361334  72.3811087  94.4687499
 111.6605005  71.7119897  95.0238288 111.6651193  73.0828875  94.9828166
 111.7141941  72.3855994  94.6264347 112.5501973  57.1134391  94.9962517
 113.0074587  57.8458365  95.1235309 112.6258301  56.6900856  95.7549773
 112.6292942  57.1591629  95.1263593 104.7934964  57.3600211  96.0851961
 104.2577153  56.7480569  96.4012728 104.8552729  57.9348347  96.7385627
 104.7230596  57.3547139  96.2287387 117.0229299  50.2924266  88.8656360
 117.1412867  50.7500730  88.1323663 116.8491474  49.4869527  88.5792578
 117.0148470  50.2418038  88.7157294 112.3931581  70.9012086  85.3011105
 113.1581472  70.6321729  84.9793770 112.2909671  70.4162096  86.0181168
 112.4913076  70.7901650  85.3590933 110.4284351  59.1036495  91.8404341
 109.6380425  58.9227955  92.1621677 110.8244973  58.3263448  91.8234635
 110.3701227  58.9623956  91.8856889 114.9150241  67.9324269  77.2811055
 115.6823226  67.9924394  76.8716906 114.4681550  67.3604711  76.7967373
 114.9623669  67.8560845  77.1488765 115.8128037  66.7378925  89.5663787
 115.1373039  66.5064157  90.0677174 115.8220413  66.1300108  88.9405892
 115.7146541  66.6137850  89.5479939 112.9422181  61.5796754  96.3227840
 112.8781322  62.4406711  96.1947977 113.0819369  61.2628747  95.5223391
 112.9537651  61.6596921  96.1856053 117.8144771  69.5944058  81.7973965
 117.8964609  70.4011044  81.4735416 118.2994514  69.6140017  82.5214738
 117.8981929  69.7164720  81.8560864 111.6241275  64.2728893  90.4644043
 111.2003524  64.4733392  89.7283061 111.4486130  63.4257741  90.5768343
 111.5352155  64.1777675  90.3717733 111.1252968  75.7879406  92.9265500
 111.6148898  75.0890196  92.7441165 110.5537200  75.4903276  93.5141557
 111.1137498  75.6405630  92.9866541 106.9123720  64.7680945  85.8972015
 107.0688339  64.7027748  86.7528007 107.2524313  65.5429497  85.6850695
 106.9856955  64.8730143  85.9926609 113.4502864  64.1438828  84.7665379
 113.9918410  63.6409210  85.2303999 113.7649423  64.0904023  83.9554864
 113.5767261  64.0618249  84.7149191 117.3219972  68.3541476 101.8792291
 118.1354837  68.0826625 102.0397423 117.1614938  68.0549016 101.0752487
 117.4189920  68.2696402 101.7837697 111.6189314  69.5356180  82.0505407
 111.6882134  68.6770718  82.1898407 112.3977769  69.7528061  81.7224431
 111.7442164  69.4409044  82.0222564 114.5992134  59.0375133  94.8187679
 114.8134103  58.3986047  94.2651033 113.9826033  59.4820957  94.3895541
 114.5397463  59.0085277  94.6738110 116.0096802  71.9593881  86.2641900
 115.6176593  71.6560596  85.5464766 116.1649874  72.7962971  86.0746854
 115.9750391  72.0377718  86.1298397 103.4857981  61.9515895  86.2132783
 103.8656946  62.3700440  85.5493050 102.9113346  62.5329351  86.5201626
 103.4569306  62.0993754  86.1609523 116.7631222  60.6464198  95.7570986
 115.9507903  60.3390089  95.8384159 117.2221156  60.1663198  96.3213698
 116.7111606  60.5300691  95.8525580 116.1736476  68.5243870  86.2047930
 115.8151131  68.6958513  86.9811963 115.6875187  68.9857076  85.6475929
 116.0495173  68.6182841  86.2373200 113.9906862  52.1475069  89.8075022
 113.1200420  52.1213790  89.7608331 114.2447204  51.9752261  88.9900867
 113.9000422  52.1185212  89.6795159 110.9624842  64.2043036  78.7448165
 111.2517367  64.9807918  79.0191739 111.0496641  63.6931767  79.4462664
 111.0179098  64.2434954  78.8890663 113.8584729  62.0524270 100.5399688
 114.3284360  62.6766386 100.9267563 113.9046609  61.3841245 101.0992903
 113.9352605  62.0458950 100.6799760 111.0156003  54.1581297  91.2648492
 110.4994491  53.4661489  91.3900071 110.4549932  54.8252074  91.2111091
 110.8562516  54.1544555  91.2754558 113.0848236  54.6974257  93.0941345
 112.6979989  54.7223289  93.8754875 112.5981174  54.1315936  92.6415861
 112.9560745  54.6170008  93.1429248 117.3341216  69.4147766  97.1515131
 117.9720936  68.9207962  96.8177587 116.6915307  69.3425167  96.5667358
 117.3335442  69.3306775  97.0157486 119.0598216  61.2636912  91.7181047
 118.6325824  61.1763261  90.9629146 118.4224269  61.3714688  92.3035891
 118.9027823  61.2669572  91.6926488 112.7505378  51.5841243  95.3851605
 113.3798496  52.1201543  95.1072675 112.9191241  51.4918602  96.2365170
 112.8683173  51.6502605  95.4700133 112.5519293  56.3712437  97.6578016
 113.3792722  56.0997586  97.7136631 112.5727139  57.1673279  98.0141834
 112.6772143  56.4492192  97.7193199 117.3895472  70.1067574  93.7920488
 118.1787850  69.7556639  93.9122570 117.5639070  70.9203963  93.5297122
 117.5315754  70.1753431  93.7708356 107.1288783  63.5176300  90.8448277
 106.2876789  63.4180174  91.0527171 107.3378791  64.2871780  91.1962598
 107.0353475  63.6168343  90.9275592 104.6064350  61.1395837  88.6733028
 104.2121047  61.2138849  87.8983137 104.0504467  61.5253783  89.2241389
 104.4667162  61.2077612  88.6400687 116.2429296  54.1177131  88.3536907
 116.4478890  54.0499439  89.1993904 115.9155720  54.9235952  88.2858084
 116.2244544  54.2263071  88.4696562 110.9405448  61.4457699  90.0945874
 110.6368585  60.8913688  90.6956282 110.2384868  61.6249909  89.6073909
 110.7921657  61.3902482  90.1115580 109.9971545  58.7558219  84.6590576
 110.2731279  58.0377132  84.2468144 110.5970214  59.3543139  84.4511682
 110.1264809  58.7378590  84.5671337 109.0023799  68.6607420  94.8017972
 108.8944153  68.6709482  95.6680030 109.2119580  69.4862200  94.6122926
 109.0173910  68.7848495  94.9022064 119.4962984  54.6708895  87.8339672
 118.8837298  55.1579297  88.2193404 119.5927159  53.9952386  88.3777323
 119.4200882  54.6427204  87.9718530 113.4982065  56.4271736  82.9337171
 113.9525812  56.5982297  83.6585016 113.9722111  55.8139847  82.5334947
 113.6350385  56.3622622  82.9810933 107.0197591  65.9120062  92.2639910
 106.4285524  66.5529561  92.2342925 107.7818614  66.3357680  92.2371209
 107.0445851  66.0695901  92.2555057 107.4158213  57.0722060  92.9307927
 107.8759695  57.1460990  93.6683051 107.4614320  57.8703314  92.5807749
 107.4908769  57.2016207  92.9880684 109.0641563  57.7388755  97.4979955
 108.6727128  57.0922102  97.9335732 109.2327426  58.3300190  98.1174210
 109.0312473  57.7303023  97.6542661 123.1388012  65.7425832  93.2617188
 123.1971136  66.1912481  94.0077165 122.5054480  66.1524645  92.8247268
 123.0539307  65.8699567  93.3069736 116.7787107  71.3629374  89.6971934
 116.5806795  71.8520188  89.0028146 116.1574818  71.5670615  90.2756068
 116.6574671  71.4645912  89.6795158 110.8395085  63.1314271  84.0382179
 111.5837130  63.5188547  84.2765128 110.9855781  62.2871696  84.2022666
 110.9705670  63.0644744  84.0976148 112.7574661  54.9264530  89.0714040
 111.9110706  55.0987337  88.9455390 112.7545793  54.1213873  89.4079868
 112.6321811  54.8325559  89.1025167 113.8272961  58.7039744  89.9376098
 113.3532915  58.1781506  90.4481409 114.1991097  58.1569217  89.3690959
 113.8122850  58.5455741  89.9291245 104.2045991  60.7011251  95.3059644
 105.0671604  60.6006960  95.2196973 103.8737774  60.1205960  94.7445216
 104.2831188  60.6002878  95.2105050 120.0909692  63.7642120  91.3482878
 119.8507914  62.9248535  91.3525305 120.5701699  63.8442286  92.0723652
 120.1261875  63.6523519  91.4557681 115.7556461  59.5976299  83.0001852
 115.2279479  59.6805043  82.3107561 116.2152169  60.3394170  82.9966496
 115.7458311  59.7196961  82.8976547 122.0914879  60.5443577  89.3012138
 121.8524649  60.5039411  88.4632922 122.2548780  61.3914729  89.4277859
 122.0805182  60.6635662  89.1965619 118.6960909  64.9293526  95.2317183
 119.4195108  64.4766053  95.0528203 118.4310871  65.2098192  94.4489511
 118.7642182  64.9044495  95.0895898 107.5647777  59.5253700  91.9670062
 106.9400847  59.5372092  91.3596015 107.2293372  60.0013875  92.6161302
 107.4233269  59.5972217  91.9726630 107.7489526  57.8678818  78.0242747
 107.4002330  58.5198544  78.4874296 107.2685972  57.8535931  77.2966618
 107.6259770  57.9621872  77.9853838 104.2773453  67.5854160  93.4073826
 103.7473377  66.8946599  93.4568801 104.5498546  67.5764345  92.5786535
 104.2398175  67.4821292  93.2921242 115.3093543  68.1679862  82.1311509
 116.0327742  68.6337975  81.9876082 114.8694134  68.2353472  81.3809106
 115.3509235  68.2463699  81.9996290 114.4779698  65.0277405  93.3812198
 113.8636691  64.4835455  93.6760833 114.9946983  64.5141641  92.9018014
 114.4635361  64.8713814  93.3536426 113.7175995  66.0981675  91.1156496
 113.2903603  65.4731393  90.6821932 113.7100940  65.8156596  91.9415504
 113.6535137  65.9634455  91.1736324 106.8338523  61.1346848  94.1844930
 106.9932009  60.3790172  94.5896652 106.6531416  61.6837787  94.8385668
 106.8303882  61.1040661  94.3407636 114.7758826  53.3008083  94.7395720
 114.2799387  53.4971757  94.0487287 115.5327888  53.7000751  94.5684521
 114.8145650  53.3885817  94.6115857 112.0461705  56.9750429  91.3299030
 112.0704192  56.4410541  90.6411810 112.2973179  56.4667738  91.9924621
 112.0871624  56.8211333  91.3263675 108.3263027  55.7021247  90.7104775
 108.3661399  56.2030454  91.4239482 107.5012692  55.7931641  90.4410698
 108.2102553  55.7903064  90.7755313 110.5092640  65.2681987  98.8125069
 109.6588271  65.4053702  98.9482714 110.6720768  64.5345766  99.2572771
 110.4076504  65.1796089  98.8980668 109.7477391  62.2181757  93.0078674
 108.9169320  62.3855575  92.8013922 109.6928908  61.8417708  93.7927559
 109.6166806  62.1871488  93.0927202 107.5561174  55.7090650  98.6435084
 108.1813877  55.1652783  98.9164517 107.1011654  55.2285568  98.0742875
 107.5809435  55.5580131  98.5996678 108.1213435  60.4937349  83.5368791
 108.2616396  60.9909813  84.2397433 108.6195967  59.7923643  83.6783005
 108.2154515  60.4639327  83.6620370 108.1513657  61.3604460  80.8661368
 108.7858736  61.9564885  80.8010830 108.2339268  61.0607917  81.6807238
 108.2570208  61.4045368  80.9764455 121.1296223  63.8919937  93.7347732
 121.7214063  64.5317188  93.7665930 121.5655217  63.1942974  94.0239799
 121.2814654  63.8838287  93.7828565 109.7292640  57.2918435  80.8406810
 110.0508481  56.8121518  80.1866073 109.9919584  58.1018081  80.6497622
 109.8158665  57.3408333  80.7162302 112.9589613  68.3137309  94.3605626
 112.4514704  68.8673156  94.8046257 112.6616259  68.3745599  93.5424401
 112.8394498  68.4043621  94.3054083 115.1251795  56.6790629  93.2030289
 115.5506866  56.2263156  92.5913816 114.5108788  56.1250700  93.4795077
 115.0980440  56.5304605  93.1535315 104.6566645  63.5572300  84.1350914
 105.1658874  64.1536808  84.5162220 105.1300917  63.2898274  83.4527334
 104.8010021  63.6058116  84.0905437 115.5697393  72.2300567  82.2909570
 114.8526703  72.0561429  81.8256807 116.2204130  71.9953139  81.7585056
 115.5599243  72.1696360  82.1438788 113.5646018  53.1505729  86.6120866
 112.9214336  53.0003375  87.1806005 113.2245425  52.9048074  85.8469971
 113.4191095  53.0917851  86.5823881 118.1545364  61.1065156  86.0350875
 117.4836554  61.6494858  85.9063940 118.8485114  61.5760011  85.7932570
 118.1574232  61.2563427  85.9806403 112.2032098  73.2461868  91.2662633
 111.9797752  72.4880697  91.6346660 111.7141941  73.2759889  90.5443073
 112.0975547  73.1384092  91.2139374 118.3173492  57.5621039  88.9441248
 118.6701102  57.1350762  89.6187047 117.4588293  57.4771883  89.0742325
 118.2422936  57.4865780  89.0636259 107.0157177  60.1928559  87.0024095
 106.2969166  60.6092692  87.2696958 107.3869539  60.7582798  86.4515733
 106.9649108  60.3377840  86.9606902 116.3156757  60.8256408  92.8926090
 116.2954685  60.6439703  93.7460869 116.3635958  61.6968426  92.8685674
 116.3191398  60.9272946  93.0149385 114.2603087  67.4143600  98.8174567
 114.2198942  66.7693277  98.2319723 115.0726405  67.3580217  99.1299979
 114.3746241  67.3102567  98.7771516 110.8510555  73.4662326  88.7199718
 110.4370953  72.8036456  88.3303559 111.5357929  73.6140185  88.1995412
 110.8908926  73.3902984  88.5856215 114.2175849  72.6252411  89.4723334
 113.8192132  72.7354681  88.7044155 113.6027068  72.8334477  90.0549894
 114.0674738  72.6725979  89.4454634 112.7903751  59.2326559  82.3397474
 112.1968590  59.5543555  81.7882041 112.8279029  58.3867654  82.1318580
 112.7078140  59.1550887  82.2280245 119.7497552  52.6839451  89.8725561
 119.2428416  51.9768591  89.8046738 120.5464985  52.3532640  90.0026637
 119.7924791  52.5312603  89.8824556 115.6661568  59.1906063  85.7699224
 115.4375261  59.2138765  84.9277583 115.9259644  58.3663530  85.8894235
 115.6707756  59.0722143  85.6624422 109.9480796  61.0440536  95.3724325
 109.4359699  60.4361719  95.7309356 109.7760292  61.7597129  95.8398300
 109.8470433  61.0603836  95.4940548 104.7946511  59.4878112  98.0226686
 104.6249101  60.1479487  97.4774893 104.3512461  59.6984673  98.7439175
 104.7045844  59.6164094  98.0488316 108.7206330  57.7282610  87.0653420
 109.1963696  58.0899690  86.4303601 108.2194930  58.3839077  87.3453563
 108.7171689  57.8776798  87.0130161 121.9517692  67.2004378  82.8566425
 122.3351297  67.9495734  83.0864522 121.1561805  67.4470197  82.5978414
 121.8911474  67.3474072  82.8523999 113.8249866  58.9664781  97.8126580
 114.3821296  58.7378591  97.1805046 113.5010931  59.7270447  97.5361792
 113.8596276  59.0448618  97.6783077 101.6948575  62.3924977  93.2815176
 101.1475295  61.7225623  93.3996044 102.4840953  62.0254825  93.3458643
 101.7300759  62.2389964  93.3083877 111.5432984  62.0532434  98.7778587
 112.2944311  62.3684111  99.0918141 111.7355560  61.8511605  97.9512509
 111.6824398  62.0699816  98.7021983 110.7632983  59.8723810  80.4326804
 111.1431948  59.8903439  79.6477919 110.0225579  60.3177798  80.3117651
 110.7101821  59.9405584  80.2990372 118.3918274  58.1806001  86.0202383
 118.3912500  58.0254657  86.8786659 118.1874454  59.0268988  85.9643768
 118.3618052  58.2826621  86.1390322 100.4535545  61.6045785  90.4361199
 100.2757306  61.1522394  91.1616115 100.1654567  62.4071947  90.6199677
 100.3848498  61.6568343  90.5704702 116.1159126  62.8603503  89.6738590
 116.6112791  62.1426498  89.6342610 115.3058901  62.5574300  89.5593076
 116.0703019  62.7101149  89.6512315 111.5617737  66.7101316  81.8235594
 110.7529060  66.3867989  81.7768903 112.0692646  66.0034538  81.7563843
 111.5167404  66.5582632  81.8065888 102.1908015  64.1373509  87.5482958
 101.3253534  64.1259199  87.4365729 102.2906830  63.9503732  88.3954098
 102.0782181  64.1079570  87.6571903 118.1810945  65.6107190  92.3615718
 118.6066016  65.0881612  91.8086143 117.8167864  66.2088027  91.8404341
 118.1897547  65.6217417  92.2024728 107.8165024  73.9071408  91.1213064
 108.1311583  74.7207796  91.1290846 108.2258438  73.5221626  91.7895223
 107.9233122  73.9700110  91.2217155 114.7689544  69.3241454  88.6916876
 115.2400722  70.0381717  88.8606861 115.1049723  68.7240204  89.2276745
 114.8884659  69.3412919  88.7949252 116.8566529  70.9342768 100.8708948
 116.9663494  70.1451328 101.2265695 117.1857425  70.8448704 100.0683286
 116.9218934  70.8048621 100.8051339 111.6859039  54.0968925  95.6474971
 111.8186945  53.2999918  95.9755946 112.0704192  54.6235328  96.2273246
 111.7615368  54.0568842  95.7818473 115.4063490  69.1159388  95.4544568
 114.8584436  68.4917272  95.1864634 115.8676519  69.3053660  94.7388648
 115.3930700  69.0518439  95.3094999 114.7591394  51.0199251  92.2456064
 113.9537358  50.9096981  92.5623902 114.6298130  51.1211707  91.3885930
 114.6211527  51.0182921  92.1664104 118.2157355  57.1844743  92.8395761
 117.6320344  57.6853949  92.4273328 118.5361649  56.6774299  92.2060084
 118.1770530  57.1836578  92.6854268 110.7552154  56.0985338  83.1154436
 111.5767848  56.2683651  82.8736130 110.2921805  56.2532599  82.3920733
 110.8083316  56.1467071  82.9726080 109.3447486  54.0928100  93.8952864
 109.8891899  53.7519227  94.4857206 109.3984422  54.9513561  94.0374149
 109.4336605  54.1683359  94.0034738 105.1578045  67.8544516  90.7691672
 105.7622902  67.8140350  90.1405493 104.9505357  68.7015668  90.7995728
 105.2166942  67.9732518  90.6807789 114.9721817  70.1210461  91.9853910
 115.7920190  69.9773427  92.2470205 114.6915894  70.7456660  92.5270347
 115.0518560  70.1920813  92.1041849 100.3929327  66.8379134  90.6390595
 100.2953605  66.0275405  90.9480652 101.1758197  66.8170927  90.2536863
 100.4945463  66.7146224  90.6277458 124.6435152  76.8650964  89.7049716
 123.7873047  77.0259462  89.7558833 124.6902806  75.9943028  89.7254777
 124.5234263  76.7601766  89.7155782 119.0276292  86.4013682  85.4686948
 118.2759191  86.0229220  85.2402993 119.4762303  86.4332115  84.7205758
 118.9825958  86.3499289  85.3244450 124.4801251  86.8239051  80.8972495
 124.1452620  87.5015973  80.4616717 124.9928122  86.4344362  80.3089367
 124.5066833  86.8663629  80.7459287 124.0205543  88.7753320  86.8383607
 124.4044922  89.3440219  86.2988382 123.9564684  88.0502830  86.3589423
 124.0678970  88.7528783  86.6877469 120.6061048  86.4132074  87.7349720
 120.7071411  85.6032428  88.0446848 120.0102793  86.3189020  87.1049399
 120.5333586  86.2797102  87.6875959 120.4461787  91.3309663  89.1364576
 121.0899243  91.7722827  89.5260735 120.7718043  90.5263089  89.0494835
 120.5893616  91.2774858  89.1810054 113.8026092  82.4352360  87.3602054
 113.5676276  81.6020013  87.2534323 113.9411733  82.7157026  86.5463255
 113.7881755  82.3535864  87.2244409 116.1016180  74.6038091  90.2586362
 115.4821211  74.0130738  90.0896377 116.0000043  75.1949526  89.6250685
 115.9953855  74.6042174  90.1391351 121.1482367  84.3421638  84.5084438
 121.4698208  84.8826845  83.9045746 121.7954464  83.7718409  84.6406728
 121.2908422  84.3380813  84.4391474 123.1984075  76.3437633  84.5918825
 123.8964240  76.5225760  85.0840288 123.5136408  75.8207972  83.9689214
 123.3479412  76.2931405  84.5720835 115.8285313  78.1490373  92.5029931
 115.7044009  78.7352818  93.1379750 116.4803597  77.6550568  92.8042206
 115.9058962  78.1629177  92.6415860 123.3872011  82.7308078  84.5798616
 123.8265646  82.1225178  85.0253389 123.2376673  82.3515451  83.8084081
 123.4293476  82.5846549  84.5317784 120.8543654  81.3252090  91.7817442
 121.4992656  80.8324533  91.4628390 121.0945431  81.4676876  92.6083520
 120.9854239  81.2729532  91.8566975 123.3929745  84.1706996  91.4324334
 123.6752988  83.3758401  91.2111090 124.1215905  84.6487583  91.4529395
 123.5419309  84.1241592  91.4027350 121.3710939  71.7130030  88.6740100
 121.0414269  72.1641173  88.0043798 120.6955941  71.6346193  89.2213106
 121.2221375  71.7681165  88.6563323 119.8099388  81.5983270  81.8334589
 119.2256603  82.1033301  82.2400453 119.4069483  81.3725657  81.0931181
 119.6638692  81.6391518  81.7839614 115.3643417  87.3138031  88.6358260
 114.8810995  88.0388521  88.6117844 116.1766735  87.6114161  88.7468418
 115.4134164  87.4640385  88.6485539 121.4357571  86.1070212  91.2408075
 120.9184512  85.7477627  90.6369383 122.1331962  85.5832386  91.2514141
 121.4623152  85.9767900  91.1538333 125.0921163  86.5565026  97.2024248
 125.1804509  86.3691166  98.0502458 125.5210875  85.9102456  96.8029095
 125.1683265  86.4328034  97.2695999 122.6591623  85.8396186  96.1841910
 122.0962457  85.4268796  96.7081571 123.4212646  85.7649092  96.6035053
 122.6886071  85.7673587  96.3234910 124.2676603  77.8448922  80.3103509
 124.5072606  78.0526906  79.4978852 124.5892444  77.0406431  80.4192454
 124.3513760  77.7563023  80.2064062 119.5766893  69.7742318  84.1563047
 120.3312861  70.1420635  83.9180097 119.3994427  70.1481872  84.9242227
 119.6621371  69.8840506  84.2347936 118.2187614  87.8294207  88.7878540
 118.9208193  87.3146196  88.8451297 118.1385097  88.1568358  89.5925415
 118.3111374  87.8008433  88.9151332 119.2666521  78.0669794  97.9158955
 119.4387024  77.9575689  98.7644237 119.8035878  78.7124200  97.6790148
 119.3711525  78.1461796  98.0064052 117.9323957  72.1812637  80.8541160
 117.7499531  72.3984518  80.0282153 118.7949570  72.2951650  80.9099775
 118.0328547  72.2302535  80.7395647 117.5438389  84.0200559  88.2964148
 118.3827289  84.2523492  88.3437910 117.5750159  83.1504871  88.2271184
 117.6720107  83.9257506  88.2928793 118.1691092  84.4401434  92.5977454
 118.7089317  84.2972565  93.2680826 117.4861039  84.8398185  92.9661480
 118.1483246  84.4781105  92.7511875 123.6123677  69.1839048  83.8890184
 124.3409837  69.0055003  83.4428340 123.7018570  70.0257127  84.0997362
 123.7330339  69.2822926  83.8543702 113.5728238  80.6601725  92.7511875
 113.3066653  79.8440842  92.9102865 113.5866802  80.7054881  91.8807391
 113.5352960  80.5458630  92.6465357 117.4785984  75.4586810  79.3663633
 116.7644162  75.1724989  79.7786066 117.9629953  75.7983435  80.0070021
 117.4445348  75.4668459  79.5219268 118.3226844  74.1980103  95.3978883
 117.6298641  73.7277083  95.6439614 118.9387171  73.9718408  95.9720590
 118.3111374  74.0947235  95.5188036 125.3611615  87.8984147  93.5134487
 124.5626861  87.6583647  93.7708356 125.8097627  87.9498540  94.2601535
 125.3086227  87.8706538  93.6619411 124.6533302  83.9616764  79.7425441
 125.0684451  83.6301787  79.0509937 123.8225232  83.7285666  79.6145578
 124.5921311  83.8788019  79.6216289 113.9821651  81.4460505  90.0323619
 113.7997224  81.4207391  89.1795912 114.7171320  81.9159442  90.0712528
 114.0635715  81.5121867  89.9121538 117.0467403  78.1645507  96.5405728
 117.7707375  78.1498538  97.0270623 117.1483539  78.8740863  96.0427696
 117.1685612  78.2670211  96.5384515 124.4212352  81.6444592 101.4054675
 123.6285333  81.9588104 101.5907295 124.5361279  81.8596060 100.5675460
 124.3207763  81.7228429 101.3093010 113.9492561  78.3254005  90.1822686
 114.5266064  78.1890456  90.8214931 113.2506623  77.8689789  90.4368270
 113.9313583  78.2376271  90.3144976 120.7059864  79.9788061  88.3961169
 120.4479108  79.1459796  88.3692469 120.7608347  80.2045674  87.5553670
 120.6759642  79.8885832  88.2681306 125.7860914  72.0816512  88.4965262
 125.0817241  71.5925697  88.6549181 125.8345888  72.0938986  87.6253706
 125.6890965  72.0106160  88.3904602 119.6794576  77.5325823  88.8826064
 119.1044167  77.6917992  89.5190025 119.3030252  76.8961232  88.4194515
 119.5397388  77.4623636  88.9080622 123.3467864  76.0049173  93.7418442
 122.9582297  75.5803390  93.0870634 122.6822563  76.2531322  94.2495469
 123.1914792  75.9787894  93.7206310 109.4251395  77.1765898  86.8970505
 109.5111647  76.7997766  87.6784035 110.0527192  76.8026344  86.4190463
 109.5307946  77.0651380  86.9415982 124.4506803  80.2347777  81.9395249
 125.2647442  80.5262670  81.8278021 124.3865944  79.5807640  81.3653542
 124.5609542  80.1812972  81.8384087 120.3214711  83.7069295  87.0667562
 120.9588658  83.4681042  87.6119355 120.7469783  83.9106454  86.3320722
 120.4790877  83.7020305  87.0384719 115.0127353  85.9457631  90.9501865
 115.0531499  86.2172482  90.1221645 115.5721877  86.4699539  91.3659653
 115.1010699  86.0633386  90.8893753 120.9617526  78.9271584  81.4042451
 121.3462679  78.7079291  82.1558996 120.7129146  79.7534530  81.5343527
 120.9819599  79.0169731  81.5343527 121.1286066  72.2078000 101.1205035
 120.8139507  72.9777562 100.8574598 120.8075999  71.6448256 100.5357262
 121.0344986  72.2388268 100.9946385 122.7036183  84.1841717  88.7461348
 122.7775191  84.0216889  89.6003198 123.5205689  84.3731907  88.5021829
 122.8352542  84.1878460  88.8359373 116.4641940  84.5299580  85.7755791
 115.6380057  84.7761317  85.6490070 116.5253931  84.4511661  86.6417849
 116.3516107  84.5544529  85.8844736 118.6817963  70.5968521  86.7351231
 117.8140389  70.6691121  86.8008841 118.9693168  71.3990600  86.9239206
 118.5957711  70.7262668  86.7725998 121.2440769  87.1476460  83.4774821
 121.5339067  86.7565442  82.7534048 121.9744250  87.3293165  83.9180096
 121.3947653  87.1170274  83.4357628 121.8335514  81.9494206  94.5627952
 121.3347208  82.6609974  94.6412840 122.6435738  82.2694873  94.5246114
 121.8791621  82.1021055  94.5684520 119.1846684  89.1243843  86.5434971
 118.9646980  88.8341197  87.3361638 118.9641206  88.4658798  86.0152883
 119.1194278  88.9843551  86.5823880 118.0963631  81.2117159  88.8090673
 117.8076880  80.5854631  89.3436400 118.9646980  81.1537447  88.8755353
 118.1823883  81.1104704  88.8981627 121.3514640  90.4973233  85.3265663
 122.0038698  89.9649675  85.5556689 120.6540249  90.1441885  85.7133537
 121.3445358  90.3662756  85.4177831 118.2995905  82.8512410  84.7333038
 119.0541873  83.2325449  84.9468500 117.7066517  83.3023554  85.1879734
 118.3232618  82.9741238  84.8315916 120.7602572  74.8075251  99.8590250
 119.9502348  75.1133030  99.7480092 121.2377259  75.5280833  99.9742834
 120.7106051  74.9589852  99.8597321 119.6194131  84.0220972  90.1073153
 119.0974885  84.1621263  90.7925018 120.0068152  83.2631636  90.2975270
 119.5997832  83.9306496  90.2374229 116.6085315  74.0726780  84.1768108
 116.3210111  73.7028051  83.4400055 117.2955784  74.5421636  83.9151813
 116.6674213  74.0873750  84.0283183 121.0460457  81.0524991  85.5054644
 120.8503240  81.6599725  84.9114947 121.2694803  80.3592935  85.0246318
 121.0495098  81.0402516  85.3470725 119.4438987  77.9379729  85.6235512
 120.1661639  78.1020887  85.1639318 118.9646980  78.6589393  85.5174852
 119.4802718  78.0677958  85.5401126 117.0946604  80.3437801  94.7289652
 117.6067701  80.6222054  94.0798412 116.8082946  81.0827095  95.0952465
 117.1281467  80.4940155  94.6879530 114.1813510  74.8507993  85.0253389
 114.2829647  75.6534154  85.3534364 114.9769397  74.6495329  84.7276469
 114.3141416  74.9393892  85.0288744 120.6130329  72.4364190  94.7890694
 120.4213526  72.4519324  95.6390117 121.4628925  72.6327864  94.7657349
 120.7106051  72.4678541  94.9113989 114.9977242  74.9655171  92.7674510
 114.8562734  74.1139112  92.8919018 115.2817806  75.0083832  91.9436716
 115.0185088  74.8454921  92.6642134 125.1515835  76.8022261  86.9118999
 124.9050549  76.7218012  87.7455788 125.4800958  76.0175729  86.7181526
 125.1637078  76.6748527  87.0066522 121.1112862  79.5378980  96.3241982
 121.2556238  80.1180188  95.6885092 121.4588510  79.9155277  97.0291836
 121.1840323  79.6799684  96.3340977 123.2832779  78.7369148  94.1067113
 122.5356093  78.9300163  93.7015391 123.4374304  77.9114368  93.8691235
 123.1955207  78.6434260  94.0112519 120.1840617  87.7281752  93.1903008
 120.3330181  87.1684668  92.5376413 120.9640619  87.8073753  93.5735527
 120.3214710  87.6567317  93.1499958 122.7093917  87.8996395  94.4687499
 122.6337589  87.2305205  95.0238288 122.6383777  88.6014183  94.9828166
 122.6874524  87.9041302  94.6264347 123.5234556  72.6319699  94.9962517
 123.9807170  73.3643673  95.1235309 123.5990885  72.2086164  95.7549773
 123.6025526  72.6776937  95.1263593 115.7667547  72.8785519  96.0851961
 115.2309737  72.2665877  96.4012728 115.8285312  73.4533655  96.7385627
 115.6963180  72.8732446  96.2287387 123.3664164  86.4197393  85.3011105
 124.1314055  86.1507037  84.9793770 123.2642254  85.9347404  86.0181168
 123.4645660  86.3086958  85.3590933 121.4016934  74.6221803  91.8404341
 120.6113009  74.4413263  92.1621677 121.7977557  73.8448755  91.8234635
 121.3433810  74.4809264  91.8856889 123.9154764  77.0982062  96.3227840
 123.8513906  77.9592018  96.1947977 124.0551952  76.7814055  95.5223391
 123.9270234  77.1782229  96.1856053 122.5973858  79.7914201  90.4644043
 122.1736107  79.9918700  89.7283061 122.4218713  78.9443049  90.5768343
 122.5084739  79.6962983  90.3717733 122.0985552  91.3064714  92.9265500
 122.5881482  90.6075504  92.7441165 121.5269784  91.0088584  93.5141557
 122.0870082  91.1590938  92.9866541 117.8856303  80.2866253  85.8972015
 118.0420922  80.2213056  86.7528007 118.2256896  81.0614805  85.6850695
 117.9589538  80.3915451  85.9926609 124.4235448  79.6624136  84.7665379
 124.9650993  79.1594517  85.2303999 124.7382007  79.6089331  83.9554864
 124.5499845  79.5803557  84.7149191 122.5921898  85.0541488  82.0505407
 122.6614718  84.1956026  82.1898407 123.3710353  85.2713369  81.7224431
 122.7174748  84.9594352  82.0222564 125.5724717  74.5560441  94.8187679
 125.7866687  73.9171355  94.2651033 124.9558616  75.0006265  94.3895541
 125.5130046  74.5270585  94.6738110 114.4590565  77.4701203  86.2132783
 114.8389530  77.8885748  85.5493050 113.8845930  78.0514659  86.5201626
 114.4301890  77.6179062  86.1609523 124.9639446  67.6660377  89.8075022
 124.0933004  67.6399098  89.7608331 125.2179787  67.4937569  88.9900867
 124.8733006  67.6370520  89.6795159 121.9357425  79.7228343  78.7448165
 122.2249950  80.4993226  79.0191739 122.0229224  79.2117075  79.4462664
 121.9911682  79.7620262  78.8890663 124.8317313  77.5709578 100.5399688
 125.3016944  78.1951694 100.9267563 124.8779193  76.9026553 101.0992903
 124.9085189  77.5644258 100.6799760 121.9888586  69.6766605  91.2648492
 121.4727075  68.9846796  91.3900071 121.4282515  70.3437382  91.2111091
 121.8295100  69.6729863  91.2754558 124.0580820  70.2159565  93.0941345
 123.6712573  70.2408597  93.8754875 123.5713757  69.6501244  92.6415861
 123.9293329  70.1355316  93.1429248 123.7237962  67.1026551  95.3851605
 124.3531080  67.6386851  95.1072675 123.8923824  67.0103909  96.2365170
 123.8415756  67.1687913  95.4700133 123.5251876  71.8897745  97.6578016
 124.3525306  71.6182894  97.7136631 123.5459723  72.6858587  98.0141834
 123.6504727  71.9677499  97.7193199 118.1021366  79.0361608  90.8448277
 117.2609373  78.9365482  91.0527171 118.3111374  79.8057088  91.1962598
 118.0086059  79.1353651  90.9275592 115.5796933  76.6581145  88.6733028
 115.1853631  76.7324157  87.8983137 115.0237050  77.0439091  89.2241389
 115.4399746  76.7262920  88.6400687 121.9138031  76.9643007  90.0945874
 121.6101169  76.4098995  90.6956282 121.2117452  77.1435217  89.6073909
 121.7654241  76.9087790  90.1115580 120.9704128  74.2743527  84.6590576
 121.2463863  73.5562440  84.2468144 121.5702798  74.8728447  84.4511682
 121.0997393  74.2563898  84.5671337 119.9756382  84.1792728  94.8017972
 119.8676737  84.1894790  95.6680030 120.1852164  85.0047508  94.6122926
 119.9906493  84.3033803  94.9022064 124.4714649  71.9457044  82.9337171
 124.9258395  72.1167605  83.6585016 124.9454694  71.3325155  82.5334947
 124.6082969  71.8807930  82.9810933 117.9930174  81.4305370  92.2639910
 117.4018107  82.0714868  92.2342925 118.7551198  81.8542988  92.2371209
 118.0178435  81.5881209  92.2555057 118.3890797  72.5907368  92.9307927
 118.8492279  72.6646297  93.6683051 118.4346904  73.3888622  92.5807749
 118.4641352  72.7201515  92.9880684 120.0374147  73.2574063  97.4979955
 119.6459712  72.6107410  97.9335732 120.2060009  73.8485498  98.1174210
 120.0045057  73.2488331  97.6542661 121.8127669  78.6499579  84.0382179
 122.5569714  79.0373855  84.2765128 121.9588365  77.8057004  84.2022666
 121.9438254  78.5830052  84.0976148 123.7307244  70.4449838  89.0714040
 122.8843289  70.6172645  88.9455390 123.7278377  69.6399181  89.4079868
 123.6054394  70.3510867  89.1025167 124.8005545  74.2225052  89.9376098
 124.3265499  73.6966814  90.4481409 125.1723680  73.6754525  89.3690959
 124.7855434  74.0641049  89.9291245 115.1778575  76.2196559  95.3059644
 116.0404188  76.1192268  95.2196973 114.8470358  75.6391268  94.7445216
 115.2563771  76.1188185  95.2105050 118.5380361  75.0439008  91.9670062
 117.9133431  75.0557400  91.3596015 118.2025956  75.5199183  92.6161302
 118.3965853  75.1157525  91.9726630 118.7222109  73.3864126  78.0242747
 118.3734914  74.0383851  78.4874296 118.2418555  73.3721239  77.2966618
 118.5992353  73.4807180  77.9853838 115.2506036  83.1039468  93.4073826
 114.7205961  82.4131907  93.4568801 115.5231130  83.0949653  92.5786535
 115.2130759  83.0006600  93.2921242 124.6908579  81.6166982  91.1156496
 124.2636187  80.9916701  90.6821932 124.6833523  81.3341904  91.9415504
 124.6267720  81.4819763  91.1736324 117.8071106  76.6532156  94.1844930
 117.9664593  75.8975480  94.5896652 117.6264000  77.2023095  94.8385668
 117.8036465  76.6225969  94.3407636 123.0194289  72.4935737  91.3299030
 123.0436776  71.9595849  90.6411810 123.2705762  71.9853046  91.9924621
 123.0604207  72.3396641  91.3263675 110.5301879  79.7767232  90.7642174
 110.4245328  79.7314076  89.8994258 109.7802098  80.1221013  91.0456459
 110.4037481  79.8208140  90.6779504 119.2995611  71.2206555  90.7104775
 119.3393983  71.7215762  91.4239482 118.4745276  71.3116949  90.4410698
 119.1835137  71.3088372  90.7755313 121.4825224  80.7867295  98.8125069
 120.6320854  80.9239009  98.9482714 121.6453352  80.0531073  99.2572771
 121.3809087  80.6981396  98.8980668 120.7209974  77.7367065  93.0078674
 119.8901904  77.9040883  92.8013922 120.6661491  77.3603016  93.7927559
 120.5899389  77.7056796  93.0927202 118.5293758  71.2275958  98.6435084
 119.1546461  70.6838091  98.9164517 118.0744237  70.7470876  98.0742875
 118.5542018  71.0765439  98.5996678 119.0946018  76.0122657  83.5368791
 119.2348979  76.5095121  84.2397433 119.5928551  75.3108951  83.6783005
 119.1887099  75.9824635  83.6620370 119.1246241  76.8789768  80.8661368
 119.7591320  77.4750193  80.8010830 119.2071851  76.5793225  81.6807238
 119.2302791  76.9230676  80.9764455 120.7025223  72.8103743  80.8406810
 121.0241064  72.3306826  80.1866073 120.9652167  73.6203389  80.6497622
 120.7891249  72.8593641  80.7162302 123.9322196  83.8322617  94.3605626
 123.4247287  84.3858464  94.8046257 123.6348842  83.8930907  93.5424401
 123.8127081  83.9228929  94.3054083 115.6299228  79.0757608  84.1350914
 116.1391458  79.6722116  84.5162220 116.1033501  78.8083582  83.4527334
 115.7742604  79.1243424  84.0905437 124.5378601  68.6691037  86.6120866
 123.8946919  68.5188683  87.1806005 124.1978008  68.4233382  85.8469971
 124.3923679  68.6103159  86.5823881 123.1764681  88.7647176  91.2662633
 122.9530336  88.0066005  91.6346660 122.6874525  88.7945197  90.5443073
 123.0708130  88.6569400  91.2139374 117.9889760  75.7113867  87.0024095
 117.2701749  76.1278000  87.2696958 118.3602122  76.2768106  86.4515733
 117.9381692  75.8563148  86.9606902 121.8243138  88.9847634  88.7199718
 121.4103537  88.3221764  88.3303559 122.5090513  89.1325493  88.1995412
 121.8641510  88.9088292  88.5856215 125.1908432  88.1437719  89.4723334
 124.7924716  88.2539989  88.7044155 124.5759652  88.3519785  90.0549894
 125.0407322  88.1911287  89.4454634 123.7636335  74.7511867  82.3397474
 123.1701174  75.0728863  81.7882041 123.8011612  73.9052962  82.1318580
 123.6810724  74.6736195  82.2280245 120.9213380  76.5625844  95.3724325
 120.4092283  75.9547027  95.7309356 120.7492876  77.2782437  95.8398300
 120.8203017  76.5789144  95.4940548 115.7679094  75.0063420  98.0226686
 115.5981684  75.6664795  97.4774893 115.3245044  75.2169981  98.7439175
 115.6778428  75.1349402  98.0488316 119.6938914  73.2467918  87.0653420
 120.1696280  73.6084997  86.4303601 119.1927513  73.9024385  87.3453563
 119.6904273  73.3962106  87.0130161 124.7982450  74.4850089  97.8126580
 125.3553880  74.2563899  97.1805046 124.4743515  75.2455755  97.5361792
 124.8328860  74.5633926  97.6783077 112.6681159  77.9110285  93.2815176
 112.1207878  77.2410931  93.3996044 113.4573537  77.5440133  93.3458643
 112.7033342  77.7575272  93.3083877 122.5165567  77.5717742  98.7778587
 123.2676894  77.8869419  99.0918141 122.7088144  77.3696913  97.9512509
 122.6556981  77.5885124  98.7021983 121.7365567  75.3909117  80.4326804
 122.1164532  75.4088747  79.6477919 120.9958163  75.8363106  80.3117651
 121.6834404  75.4590892  80.2990372 111.4268128  77.1231093  90.4361199
 111.2489889  76.6707702  91.1616115 111.1387150  77.9257254  90.6199677
 111.3581081  77.1753651  90.5704702 122.5350321  82.2286624  81.8235594
 121.7261644  81.9053297  81.7768903 123.0425230  81.5219846  81.7563843
 122.4899988  82.0767940  81.8065888 113.1640598  79.6558817  87.5482958
 112.2986118  79.6444507  87.4365729 113.2639414  79.4689040  88.3954098
 113.0514765  79.6264878  87.6571903 118.7897608  89.4256715  91.1213064
 119.1044167  90.2393104  91.1290846 119.1991021  89.0406934  91.7895223
 118.8965706  89.4885418  91.2217155 122.6591623  69.6154233  95.6474971
 122.7919528  68.8185226  95.9755946 123.0436775  70.1420636  96.2273246
 122.7347951  69.5754150  95.7818473 125.7323978  66.5384559  92.2456064
 124.9269941  66.4282289  92.5623902 125.6030713  66.6397015  91.3885930
 125.5944111  66.5368229  92.1664104 121.7284737  71.6170646  83.1154436
 122.5500432  71.7868959  82.8736130 121.2654388  71.7717907  82.3920733
 121.7815900  71.6652379  82.9726080 120.3180069  69.6113408  93.8952864
 120.8624482  69.2704535  94.4857206 120.3717005  70.4698869  94.0374149
 120.4069189  69.6868667  94.0034738 116.1310628  83.3729824  90.7691672
 116.7355485  83.3325658  90.1405493 115.9237941  84.2200976  90.7995728
 116.1899525  83.4917826  90.6807789 111.3661910  82.3564441  90.6390595
 111.2686188  81.5460713  90.9480652 112.1490780  82.3356235  90.2536863
 111.4678047  82.2331532  90.6277458 124.7758676  97.9537668  87.3602054
 124.5408860  97.1205321  87.2534323 124.9144316  98.2342334  86.5463255
 124.7614338  97.8721172  87.2244409 124.5460821  96.1787033  92.7511875
 124.2799236  95.3626150  92.9102865 124.5599385  96.2240189  91.8807391
 124.5085543  96.0643938  92.6465357 124.9554235  96.9645812  90.0323619
 124.7729808  96.9392698  89.1795912 125.6903904  97.4344750  90.0712528
 125.0368299  97.0307175  89.9121538 124.9225145  93.8439313  90.1822686
 125.4998648  93.7075764  90.8214931 124.2239207  93.3875097  90.4368270
 124.9046166  93.7561579  90.3144976 120.3983978  92.6951206  86.8970505
 120.4844230  92.3183074  87.6784035 121.0259776  92.3211652  86.4190463
 120.5040529  92.5836688  86.9415982 125.4323148  92.9886511  86.2132783
 125.8122113  93.4071056  85.5493050 124.8578513  93.5699967  86.5201626
 125.4034473  93.1364370  86.1609523 121.5034462  95.2952540  90.7642174
 121.3977911  95.2499384  89.8994258 120.7534682  95.6406320  91.0456459
 121.3770065  95.3393448  90.6779504 123.6413742  93.4295593  93.2815176
 123.0940462  92.7596239  93.3996044 124.4306120  93.0625441  93.3458643
 123.6765926  93.2760580  93.3083877 122.4000712  92.6416401  90.4361199
 122.2222473  92.1893010  91.1616115 122.1119734  93.4442562  90.6199677
 122.3313665  92.6938959  90.5704702 124.1373182  95.1744125  87.5482958
 123.2718701  95.1629815  87.4365729 124.2371998  94.9874348  88.3954098
 124.0247349  95.1450186  87.6571903 122.3394494  97.8749749  90.6390595
 122.2418772  97.0646021  90.9480652 123.1223364  97.8541543  90.2536863
 122.4410630  97.7516840  90.6277458  74.8296781   1.2650581  72.4026995
  74.0779681   0.8866120  72.1743040  75.2782793   1.2969015  71.6545805
  74.7846448   1.2136188  72.2584497  79.8226032   3.6390219  73.7723653
  80.2065412   4.2077118  73.2328429  79.7585174   2.9139730  73.2929469
  79.8699460   3.6165683  73.6217516  76.2482277   6.1946563  76.0704623
  76.8919732   6.6359727  76.4600782  76.5738533   5.3899989  75.9834882
  76.3914106   6.1411757  76.1150101  71.1663906   2.1774931  75.5698307
  70.6831485   2.9025420  75.5457891  71.9787225   2.4751061  75.6808465
  71.2154654   2.3277284  75.5825586  74.0208104   2.6931107  75.7218587
  74.7228683   2.1783096  75.7791343  73.9405587   3.0205258  76.5265462
  74.1131864   2.6645333  75.8491379  70.8147843   0.8094531  77.8841912
  70.8551988   1.0809382  77.0561692  71.3742367   1.3336439  78.2999700
  70.9031189   0.9270286  77.8233800  74.9867174   3.9880742  73.4775018
  74.7667469   3.6978097  74.2701685  74.7661696   3.3295697  72.9492930
  74.9214768   3.8480451  73.5163926  77.1535130   5.3610132  72.2605710
  77.8059188   4.8286574  72.4896736  76.4560738   5.0078784  72.6473584
  77.1465848   5.2299655  72.3517878  75.9861106   2.5918651  80.1243055
  76.1350670   2.0321567  79.4716460  76.7661109   2.6710653  80.5075574
  76.1235200   2.5204217  80.0840004  78.5114407   2.7633294  81.4027546
  78.4358078   2.0942105  81.9578334  78.4404266   3.4651082  81.9168212
  78.4895014   2.7678201  81.5604394  77.9006041   6.1701614  79.8605547
  78.3901972   5.4712403  79.6781212  77.3290274   5.8725484  80.4481604
  77.8890571   6.0227837  79.9206588  78.9785171   3.6284075  78.2002680
  78.7550825   2.8702904  78.5686706  78.4895014   3.6582096  77.4783120
  78.8728620   3.5206300  78.1479421  77.6263628   3.8484533  75.6539765
  77.2124027   3.1858663  75.2643606  78.3111002   3.9962392  75.1335459
  77.6662000   3.7725191  75.5196262  80.9928922   3.0074618  76.4063381
  80.5945205   3.1176889  75.6384201  80.3780142   3.2156685  76.9889941
  80.8427811   3.0548187  76.3794681  74.5918098   4.2893615  78.0553111
  74.9064657   5.1030003  78.0630892  75.0011511   3.9043834  78.7235270
  74.6986196   4.3522317  78.1557202  85.8029365  16.7835889  72.4026995
  85.0512264  16.4051427  72.1743040  86.2515376  16.8154323  71.6545805
  85.7579032  16.7321496  72.2584497  94.7281942  13.5159697  86.2450219
  95.4348709  13.0211728  86.3737154  94.9169877  13.9568778  85.5152877
  94.8609847  13.5078047  86.1559265  91.2554325  17.2061259  67.8312542
  90.9205693  17.8838180  67.3956764  91.7681195  16.8166570  67.2429413
  91.2819906  17.2485837  67.6799333  90.7958616  19.1575527  73.7723653
  91.1797995  19.7262426  73.2328429  90.7317757  18.4325038  73.2929469
  90.8432043  19.1350991  73.6217516  94.2640046   9.3065215  79.2821415
  94.8096006   9.9850302  79.3415385  94.2056922   9.1652676  78.4222996
  94.3355960   9.3857217  79.1633475  87.3814121  16.7954281  74.6689767
  87.4824484  15.9854635  74.9786895  86.7855866  16.7011228  74.0389446
  87.3086660  16.6619309  74.6216006  96.0405115  10.7349822  70.1555143
  95.9244641  11.4857508  70.5847281  96.8361001  10.4773776  70.4051230
  96.1409704  10.8084669  70.2559234  87.2214861  21.7131870  76.0704623
  87.8652316  22.1545034  76.4600782  87.5471116  20.9085297  75.9834882
  87.3646689  21.6597065  76.1150101  80.5779165  12.8174568  74.2942101
  80.3429350  11.9842220  74.1874370  80.7164806  13.0979234  73.4803302
  80.5634828  12.7358071  74.1584456  82.8769253   4.9860298  77.1926409
  82.2574284   4.3952946  77.0236423  82.7753116   5.5771734  76.5590732
  82.7706928   4.9864381  77.0731398  87.9235440  14.7243845  71.4424485
  88.2451281  15.2649053  70.8385793  88.5707537  14.1540617  71.5746775
  88.0661495  14.7203020  71.3731520  82.6038386   8.5312580  79.4369978
  82.4797083   9.1175026  80.0719796  83.2556670   8.0372776  79.7382253
  82.6812035   8.5451385  79.5755907  90.1625084  13.1130285  71.5138663
  90.6018719  12.5047386  71.9593436  90.0129747  12.7337659  70.7424128
  90.2046549  12.9668756  71.4657831  87.6296727  11.7074297  78.7157489
  88.2745729  11.2146740  78.3968437  87.8698504  11.8499084  79.5423567
  87.7607312  11.6551739  78.7907022  90.1682818  14.5529203  78.3664381
  90.4506061  13.7580609  78.1451137  90.8968979  15.0309790  78.3869442
  90.3172382  14.5063800  78.3367396  93.7634420  11.4657467  68.4669432
  93.6785715  12.3218433  68.6119001  94.2518804  11.1901791  69.1351592
  93.8223318  11.5514788  68.5871514  94.6952854   8.0842261  69.9667168
  94.1664325   8.3001894  70.6264474  95.2177873   8.7778399  69.8868137
  94.6941307   8.2185398  70.0522767 100.1500906  13.6588565  75.3400212
  99.3198610  13.8699209  75.5033629 100.1010159  12.8325620  75.0642496
 100.0207642  13.5678171  75.3237577  86.5852461  11.9805478  68.7674636
  86.0009677  12.4855509  69.1740499  86.1822557  11.7547864  68.0271228
  86.4391765  12.0213726  68.7179661  82.1396490  17.6960239  75.5698307
  81.6564068  18.4210728  75.5457891  82.9519808  17.9936369  75.6808465
  82.1887238  17.8462592  75.5825586  88.2110644  16.4892419  78.1748122
  87.6937586  16.1299834  77.5709430  88.9085035  15.9654594  78.1854188
  88.2376225  16.3590107  78.0878380  91.8674236  16.9387233  84.1364295
  91.9557582  16.7513374  84.9842505  92.2963949  16.2924663  83.7369141
  91.9436338  16.8150241  84.2036046  89.4344696  16.2218393  83.1181957
  88.8715531  15.8091003  83.6421618  90.1965719  16.1471299  83.5375100
  89.4639144  16.1495794  83.2574957  91.0429676   8.2271130  67.2443556
  91.2825679   8.4349113  66.4318899  91.3645517   7.4228638  67.3532501
  91.1266834   8.1385231  67.1404109  84.9940687  18.2116415  75.7218587
  85.6961267  17.6968404  75.7791343  84.9138170  18.5390566  76.5265462
  85.0864448  18.1830641  75.8491379  86.0419594   8.4492001  84.8499002
  86.2140097   8.3397896  85.6984283  86.5788951   9.0946407  84.6130194
  86.1464598   8.5284003  84.9404099  84.3191463  14.4022767  75.2304195
  85.1580362  14.6345699  75.2777957  84.3503232  13.5327078  75.1611230
  84.4473180  14.3079713  75.2268840  84.9444166  14.8223642  79.5317500
  85.4842391  14.6794773  80.2020873  84.2614112  15.2220393  79.9001527
  84.9236320  14.8603313  79.6851922  94.3685051  10.5014642  74.7262525
  95.1242566  10.9346157  74.7651434  94.4747375   9.8519412  75.2997161
  94.4955221  10.4692126  74.8160550  97.4065222  14.3287920  75.4764928
  96.9700454  14.3324662  76.2323899  97.0728137  15.0093419  75.0444505
  97.2927842  14.4300375  75.5245760  91.9794295  16.3696252  86.8008078
  92.7634712  16.4827100  87.1663820  91.7790890  15.5437390  86.9966764
  92.0660321  16.2642972  86.8842464  80.3481311  11.0423933  79.6851922
  80.0819726  10.2263049  79.8442912  80.3619875  11.0877088  78.8147438
  80.3106033  10.9280837  79.5805404  84.2539058   5.8409017  66.3003680
  83.5397235   5.5547196  66.7126113  84.7383026   6.1805643  66.9410068
  84.2198421   5.8490667  66.4559315  92.1364689  18.2806354  80.4474534
  91.3379934  18.0405855  80.7048402  92.5850700  18.3320747  81.1941581
  92.0839300  18.2528746  80.5959458 100.5409568  11.0468839  74.3684565
 101.2026002  10.4859508  74.2680474  99.9000980  10.5520870  74.6937256
 100.5438435  10.8905249  74.4016905  91.4286376  14.3438971  66.6765488
  91.8437524  14.0123995  65.9849984  90.5978305  14.1107873  66.5485625
  91.3674384  14.2610227  66.5556336  80.7574724  11.8282712  76.9663666
  80.5750298  11.8029598  76.1135958  81.4924393  12.2981650  77.0052575
  80.8388788  11.8944074  76.8461585  96.8274399  12.0634222  74.1096554
  97.0629988  12.2079421  73.2823404  96.9763962  12.8276630  74.5028067
  96.8840202  12.1973276  74.0460158  83.8220476   8.5467715  83.4745775
  84.5460448   8.5320745  83.9610670  83.9236613   9.2563070  82.9767743
  83.9438685   8.6492418  83.4724562  98.6564855  10.9035888  71.9466158
  98.9873072  11.4363528  71.3406253  99.2297943  10.9574776  72.6028109
  98.7898534  10.9905457  71.9543939  91.1965425  12.0266799  88.3394722
  90.4038406  12.3410311  88.5247342  91.3114353  12.2418268  87.5015507
  91.0960836  12.1050636  88.2433057  93.8696744   8.7500791  72.6289738
  93.9643599   9.4890085  73.0829363  93.2455588   8.3218266  73.0624302
  93.7905775   8.7962111  72.7597885  92.1249218  11.9287003  83.2780019
  92.6988080  11.2914247  83.4328583  92.0464022  11.9291086  82.4089676
  92.1982453  11.8352115  83.1726430  80.7245635   8.7076213  77.1162733
  81.3019137   8.5712663  77.7554978  80.0259696   8.2511997  77.3708317
  80.7066656   8.6198479  77.2485023  94.1219766  10.5949530  65.8626690
  94.0399928  10.6651717  66.7281677  94.7599486  11.1579274  65.6710430
  94.2039603  10.6888501  65.9616639  87.4812937  10.3610268  75.3301216
  87.2232181   9.5282003  75.3032516  87.5361420  10.5867881  74.4893716
  87.4512715  10.2708040  75.2021353  86.4547649   7.9148031  75.8166111
  85.8797240   8.0740199  76.4530072  86.0783325   7.2783440  75.3534561
  86.3150461   7.8445844  75.8420669  76.2004468   7.5588106  73.8310551
  76.2864720   7.1819974  74.6124081  76.8280265   7.1848551  73.3530510
  76.3061019   7.4473588  73.8756029  91.2259876  10.6169985  68.8735296
  92.0400515  10.9084877  68.7618068  91.1619017   9.9629847  68.2993589
  91.3362615  10.5635179  68.7724134  97.4469366  13.2995981  83.2864872
  97.2108004  12.4684046  83.1676932  98.0912595  13.2481588  83.8719716
  97.5064037  13.1693669  83.3550765  87.0967784  14.0891502  74.0007608
  87.7341731  13.8503250  74.5459402  87.5222856  14.2928661  73.2660769
  87.2543950  14.0842512  73.9724766  81.7880427  16.3279839  77.8841912
  81.8284572  16.5994690  77.0561692  82.3474951  16.8521747  78.2999700
  81.8763773  16.4455594  77.8233800  87.7370599   9.3093792  68.3382498
  88.1215752   9.0901499  69.0899043  87.4882220  10.1356737  68.4683574
  87.7572672   9.3991938  68.4683574  98.4705787  13.0840430  79.3493166
  98.1651604  13.8168486  79.7106482  97.7512002  12.6778359  79.0685952
  98.3193129  13.1322162  79.3606303  89.4789256  14.5663925  75.6801395
  89.5528264  14.4039097  76.5343244  90.2958762  14.7554114  75.4361876
  89.6105615  14.5700667  75.7699420  83.2395013  14.9121788  72.7095838
  82.4133131  15.1583525  72.5830117  83.3007004  14.8333868  73.5757896
  83.1269180  14.9366736  72.8184782  88.0193842  17.5298668  70.4114868
  88.3092140  17.1387649  69.6874095  88.7497323  17.7115373  70.8520143
  88.1700726  17.4992482  70.3697675  88.6088587  12.3316414  81.4967998
  88.1100281  13.0432181  81.5752887  89.4188811  12.6517080  81.4586161
  88.6544694  12.4843262  81.5024567  85.9599757  19.5066050  73.4775018
  85.7400053  19.2163405  74.2701685  85.7394279  18.8481005  72.9492930
  85.8947352  19.3665759  73.5163926  84.8716705  11.5939367  75.7430719
  84.5829953  10.9676838  76.2776447  85.7400053  11.5359654  75.8095400
  84.9576957  11.4926911  75.8321674  88.1267713  20.8795440  72.2605710
  88.7791771  20.3471882  72.4896736  87.4293322  20.5264092  72.6473584
  88.1198431  20.7484963  72.3517878  85.0748978  13.2334618  71.6673084
  85.8294946  13.6147657  71.8808547  84.4819591  13.6845761  72.1219781
  85.0985692  13.3563445  71.7655963  96.1207632  13.1999854  71.6036689
  96.6865664  13.8593064  71.5195232  95.4735535  13.5449552  72.0753091
  96.1086388  13.3481795  71.6609446  86.3947205  14.4043179  77.0413200
  85.8727958  14.5443471  77.7265064  86.7821225  13.6453843  77.2315317
  86.3750906  14.3128703  77.1714276  83.3838389   4.4548988  71.1108154
  83.0963184   4.0850258  70.3740102  84.0708857   4.9243843  70.8491859
  83.4427286   4.4695957  70.9623230  92.5914210  16.1438638  71.0273769
  92.3500886  15.4106499  70.6200834  92.7715543  16.6925495  70.3740102
  92.5821834  16.1161029  70.8703991  87.8213530  11.4347198  72.4394691
  87.6256313  12.0421933  71.8454994  88.0447876  10.7415142  71.9586365
  87.8248171  11.4224724  72.2810772  86.2192060   8.3201936  72.5575559
  86.9414712   8.4843094  72.0979365  85.7400053   9.0411601  72.4514899
  86.2555791   8.4500166  72.4741173  83.8699677  10.7260008  81.6629699
  84.3820774  11.0044262  81.0138459  83.5836020  11.4649302  82.0292512
  83.9034540  10.8762362  81.6219577  98.0543092   9.8633722  75.2233486
  97.9677066  10.0189148  76.0768265  97.5993572  10.5071797  74.8492891
  97.9746348   9.9809477  75.2940593  80.9566583   5.2330200  71.9593436
  81.0582720   6.0356362  72.2874411  81.7522470   5.0317536  71.6616516
  81.0894489   5.3216099  71.9628791  81.7730315   5.3477378  79.7014557
  81.6315807   4.4961319  79.8259065  82.0570879   5.3906039  78.8776763
  81.7938161   5.2277129  79.5982181  95.8216957  13.8927828  77.6345827
  95.6831316  14.5908874  78.1394569  95.0416954  13.7376484  77.2782008
  95.6860183  13.9727995  77.6572101  94.1595042  10.1924203  83.8868208
  94.1543080   9.3204020  83.8910635  94.8656036  10.3912373  83.4137664
  94.2640046  10.0928078  83.8175244  87.8865935   9.9201187  83.2582028
  88.0309311  10.5002395  82.6225138  88.2341584  10.2977484  83.9631883
  87.9593396  10.0621891  83.2681023  90.0585852   9.1191356  81.0407160
  89.3109166   9.3122370  80.6355438  90.2127378   8.2936575  80.8031281
  89.9708280   9.0256467  80.9452566  97.3170329  13.2506082  68.3962326
  96.9377138  12.4643220  68.3891615  96.6536575  13.7992939  68.2533970
  97.1628804  13.2150906  68.3743123  89.4846991  18.2818602  81.4027546
  89.4090662  17.6127413  81.9578334  89.4136850  18.9836390  81.9168212
  89.4627598  18.2863509  81.5604394  90.1417238  16.8019601  72.2351152
  90.9067129  16.5329245  71.9133816  90.0395328  16.3169611  72.9521215
  90.2398733  16.6909165  72.2930980  92.6635898  13.8331785  64.2151101
  93.4308883  13.8931910  63.8056953  92.2167207  13.2612226  63.7307420
  92.7109325  13.7568360  64.0828812  93.5613694  12.6386440  76.5003834
  92.8858695  12.4071673  77.0017221  93.5706070  12.0307623  75.8745939
  93.4632198  12.5145366  76.4819986  90.6907838   7.4804269  83.2567887
  90.6266979   8.3414226  83.1288023  90.8305025   7.1636263  82.4563438
  90.7023308   7.5604436  83.1196100  95.5630428  15.4951573  68.7314012
  95.6450266  16.3018559  68.4075463  96.0480170  15.5147532  69.4554785
  95.6467586  15.6172235  68.7900910  89.3726932  10.1736409  77.3984090
  88.9489181  10.3740908  76.6623108  89.1971787   9.3265257  77.5108389
  89.2837812  10.0785190  77.3057780  84.6609376  10.6688460  72.8312062
  84.8173996  10.6035263  73.6868054  85.0009970  11.4437013  72.6190742
  84.7342611  10.7737658  72.9266656  91.1988521  10.0446344  71.7005425
  91.7404067   9.5416725  72.1644046  91.5135080   9.9911538  70.8894911
  91.3252918   9.9625765  71.6489237  95.0705628  14.2548991  88.8132338
  95.8840494  13.9834140  88.9737470  94.9100595  13.9556531  88.0092533
  95.1675577  14.1703917  88.7177743  89.3674971  15.4363695  68.9845453
  89.4367791  14.5778234  69.1238454  90.1463426  15.6535576  68.6564478
  89.4927821  15.3416559  68.9562611  93.7582458  17.8601397  73.1981947
  93.3662250  17.5568112  72.4804813  93.9135531  18.6970487  73.0086901
  93.7236048  17.9385233  73.0638444  81.2343638   7.8523411  73.1472829
  81.6142603   8.2707956  72.4833097  80.6599003   8.4336866  73.4541673
  81.2054963   8.0001269  73.0949570  93.9222133  14.4251385  73.1387977
  93.5636788  14.5966028  73.9152010  93.4360844  14.8864591  72.5815976
  93.7980830  14.5190356  73.1713246  88.7110499  10.1050551  65.6788212
  89.0003023  10.8815433  65.9531786  88.7982297   9.5939282  66.3802711
  88.7664755  10.1442469  65.8230709  91.6070386   7.9531785  87.4739735
  92.0770017   8.5773901  87.8607609  91.6532266   7.2848760  88.0332950
  91.6838262   7.9466465  87.6139807  95.0826872  15.3155281  84.0855178
  95.7206593  14.8215477  83.7517634  94.4400964  15.2432682  83.5007405
  95.0821099  15.2314290  83.9497533  95.1381129  16.0075090  80.7260535
  95.9273507  15.6564154  80.8462617  95.3124727  16.8211478  80.4637169
  95.2801411  16.0760947  80.7048403  84.8774440   9.4183815  77.7788324
  84.0362446   9.3187690  77.9867218  85.0864447  10.1879296  78.1302644
  84.7839132   9.5175859  77.8615639  82.3550006   7.0403352  75.6073074
  81.9606704   7.1146364  74.8323184  81.7990123   7.4261299  76.1581436
  82.2152819   7.1085127  75.5740734  88.6891104   7.3465215  77.0285921
  88.3854242   6.7921203  77.6296329  87.9870525   7.5257425  76.5413955
  88.5407314   7.2909997  77.0455627  86.7509455  14.5614935  81.7358019
  86.6429810  14.5716997  82.6020077  86.9605237  15.3869716  81.5462973
  86.7659566  14.6856010  81.8362111  84.7683247  11.8127578  79.1979957
  84.1771181  12.4537076  79.1682972  85.5304271  12.2365195  79.1711256
  84.7931508  11.9703416  79.1895104 100.8873669  11.6433347  80.1957235
 100.9456793  12.0919996  80.9417211 100.2540137  12.0532160  79.7587315
 100.8024964  11.7707082  80.2409783  94.5272764  17.2636889  76.6311981
  94.3292452  17.7527704  75.9368192  93.9060475  17.4678131  77.2096114
  94.4060328  17.3653428  76.6135204  88.5880742   9.0321786  70.9722225
  89.3322787   9.4196062  71.2105175  88.7341438   8.1879211  71.1362713
  88.7191327   8.9652259  71.0316195  81.9531648   6.6018766  82.2399690
  82.8157261   6.5014475  82.1537020  81.6223431   6.0213475  81.6785263
  82.0316844   6.5010393  82.1445096  96.4446566  10.8301042  82.1657229
  97.1680764  10.3773568  81.9868249  96.1796528  11.1105707  81.3829557
  96.5127839  10.8052010  82.0235945  85.3133434   5.4261215  78.9010109
  84.6886504   5.4379607  78.2936061  84.9779029   5.9021390  79.5501349
  85.1718926   5.4979732  78.9066677  82.0259109  13.4861675  80.3413873
  81.4959034  12.7954114  80.3908848  82.2984203  13.4771861  79.5126581
  81.9883832  13.3828807  80.2261289  93.0579200  14.0687378  69.0651556
  93.7813399  14.5345491  68.9216129  92.6179791  14.1360987  68.3149153
  93.0994892  14.1471214  68.9336337  92.2265355  10.9284920  80.3152245
  91.6122348  10.3842970  80.6100880  92.7432640  10.4149156  79.8358061
  92.2121017  10.7721329  80.2876473  91.4661652  11.9989190  78.0496543
  91.0389260  11.3738908  77.6161979  91.4586597  11.7164112  78.8755550
  91.4020793  11.8641970  78.1076371  84.5824179   7.0354363  81.1184977
  84.7417666   6.2797687  81.5236699  84.4017073   7.5845302  81.7725715
  84.5789538   7.0048177  81.2747683  77.3054952  10.1589439  77.6982221
  77.1998401  10.1136284  76.8334305  76.5555172  10.5043220  77.9796506
  77.1790555  10.2030348  77.6119551  88.2578297  11.1689503  85.7465116
  87.4073928  11.3061217  85.8822761  88.4206425  10.4353281  86.1912818
  88.1562161  11.0803604  85.8320715  87.4963048   8.1189272  79.9418721
  86.6654977   8.2863090  79.7353969  87.4414565   7.7425223  80.7267606
  87.3652462   8.0879004  80.0267249  85.8699091   6.3944864  70.4708838
  86.0102052   6.8917328  71.1737480  86.3681624   5.6931158  70.6123052
  85.9640172   6.3646843  70.5960417  85.8999314   7.2611975  67.8001415
  86.5344393   7.8572400  67.7350877  85.9824925   6.9615433  68.6147285
  86.0055865   7.3052883  67.9104502  90.7075269  14.2144825  81.2945673
  90.2000360  14.7680672  81.7386304  90.4101916  14.2753115  80.4764448
  90.5880154  14.3051136  81.2394130  82.4052302   9.4579816  71.0690961
  82.9144531  10.0544323  71.4502267  82.8786574   9.1905789  70.3867381
  82.5495677   9.5065631  71.0245484  93.3183050  18.1308082  69.2249617
  92.6012359  17.9568945  68.7596854  93.9689787  17.8960655  68.6925103
  93.3084900  18.0703875  69.0778835  89.9517755  19.1469383  78.2002680
  89.7283409  18.3888212  78.5686706  89.4627598  19.1767404  77.4783120
  89.8461204  19.0391608  78.1479421  84.7642833   6.0936074  73.9364141
  84.0454822   6.5100207  74.2037005  85.1355196   6.6590313  73.3855780
  84.7134765   6.2385356  73.8946948  92.0088744  13.3151115  85.7514614
  91.9684599  12.6700792  85.1659770  92.8212062  13.2587733  86.0640026
  92.1231898  13.2110082  85.7111563  88.5996212  19.3669841  75.6539765
  88.1856610  18.7043971  75.2643606  89.2843586  19.5147700  75.1335459
  88.6394583  19.2910499  75.5196262  91.9661506  18.5259926  76.4063381
  91.5677789  18.6362197  75.6384201  91.3512725  18.7341993  76.9889941
  91.8160395  18.5733494  76.3794681  87.6966453   6.9448052  82.3064371
  87.1845356   6.3369235  82.6649403  87.5245949   7.6604644  82.7738347
  87.5956090   6.9611351  82.4280595  82.5432167   5.3885627  84.9566733
  82.3734758   6.0487002  84.4114940  82.0998117   5.5992188  85.6779222
  82.4531501   5.5171609  84.9828363  99.7003348  13.1011893  69.7906472
 100.0836954  13.8503249  70.0204569  98.9047462  13.3477713  69.5318461
  99.6397131  13.2481587  69.7864045  79.4434232   8.2932493  80.2155223
  78.8960951   7.6233138  80.3336091  80.2326610   7.9262341  80.2798690
  79.4786416   8.1397479  80.2423924  89.2918640   7.9539950  85.7118634
  90.0429967   8.2691627  86.0258188  89.4841217   7.7519121  84.8852556
  89.4310054   7.9707332  85.6362030  88.5118640   5.7731325  67.3666851
  88.8917605   5.7910954  66.5817966  87.7711236   6.2185314  67.2457698
  88.4587478   5.8413099  67.2330419  78.2021201   7.5053300  77.3701246
  78.0242963   7.0529909  78.0956162  77.9140224   8.3079462  77.5539724
  78.1334155   7.5575858  77.5044749  93.8644783   8.7611018  76.6078636
  94.3598448   8.0434013  76.5682657  93.0544558   8.4581816  76.4933123
  93.8188676   8.6108664  76.5852362  89.3103394  12.6108831  68.7575641
  88.5014717  12.2875505  68.7108950  89.8178303  11.9042053  68.6903889
  89.2653061  12.4590147  68.7405935  79.9393671  10.0381024  74.4823005
  79.0739191  10.0266715  74.3705776  80.0392487   9.8511247  75.3294144
  79.8267838  10.0087085  74.5911950  95.9296601  11.5114705  79.2955765
  96.3551673  10.9889127  78.7426190  95.5653521  12.1095543  78.7744388
  95.9383204  11.5224932  79.1364775  92.5175201  15.2248970  75.6256923
  92.9886379  15.9389232  75.7946908  92.8535379  14.6247720  76.1616792
  92.6370316  15.2420434  75.7289298  94.6052185  16.8350283  87.8048995
  94.7149151  16.0458844  88.1605742  94.9343082  16.7456219  87.0023333
  94.6704591  16.7056136  87.7391385  93.1549147  15.0166904  82.3884615
  92.6070093  14.3924787  82.1204680  93.6162176  15.2061176  81.6728695
  93.1416357  14.9525954  82.2435046  82.9063701  13.7552031  77.7031719
  83.5108559  13.7147865  77.0745540  82.6991014  14.6023183  77.7335775
  82.9652599  13.8740034  77.6147836  92.7207473  16.0217976  78.9193956
  93.5405847  15.8780942  79.1810252  92.4401551  16.6464175  79.4610394
  92.8004217  16.0928328  79.0381896  78.1414984  12.7386649  77.5730642
  78.0439262  11.9282920  77.8820699  78.9243853  12.7178442  77.1876910
  78.2431120  12.6153739  77.5617505 109.1921124  23.6782828  71.8836833
 109.1615128  24.5327465  72.0555102 109.7902473  23.3778121  72.4422976
 109.2758282  23.7599325  71.9911635 102.3920809  22.7658479  76.6389763
 101.5358704  22.9266977  76.6898880 102.4388462  21.8950543  76.6594824
 102.2719920  22.6609281  76.6495829  96.7761948  32.3021197  72.4026995
  96.0244848  31.9236735  72.1743040  97.2247960  32.3339631  71.6545805
  96.7311615  32.2506804  72.2584497 105.7014525  29.0345005  86.2450219
 106.4081292  28.5397036  86.3737154 105.8902461  29.4754086  85.5152877
 105.8342431  29.0263355  86.1559265 102.2286908  32.7246567  67.8312542
 101.8938277  33.4023488  67.3956764 102.7413779  32.3351878  67.2429413
 102.2552489  32.7671145  67.6799333 101.7691200  34.6760835  73.7723653
 102.1530579  35.2447734  73.2328429 101.7050341  33.9510346  73.2929469
 101.8164627  34.6536299  73.6217516 105.2372630  24.8250523  79.2821415
 105.7828590  25.5035610  79.3415385 105.1789506  24.6837984  78.4222996
 105.3088544  24.9042525  79.1633475  98.3546705  32.3139589  74.6689767
  98.4557067  31.5039943  74.9786895  97.7588450  32.2196536  74.0389446
  98.2819243  32.1804617  74.6216006 107.0137698  26.2535130  70.1555143
 106.8977224  27.0042816  70.5847281 107.8093585  25.9959083  70.4051230
 107.1142288  26.3269977  70.2559234  93.8501836  20.5045606  77.1926409
  93.2306868  19.9138254  77.0236423  93.7485700  21.0957042  76.5590732
  93.7439512  20.5049689  77.0731398  98.8968024  30.2429153  71.4424485
  99.2183865  30.7834361  70.8385793  99.5440120  29.6725925  71.5746775
  99.0394079  30.2388328  71.3731520 100.9469732  22.2445148  71.5258872
 101.6449897  22.4233276  72.0180335 101.2622064  21.7215488  70.9029261
 101.0965069  22.1938920  71.5060882  93.5770969  24.0497888  79.4369978
  93.4529666  24.6360334  80.0719796  94.2289254  23.5558084  79.7382253
  93.6544619  24.0636693  79.5755907 101.1357667  28.6315593  71.5138663
 101.5751303  28.0232694  71.9593436 100.9862330  28.2522967  70.7424128
 101.1779133  28.4854064  71.4657831  98.6029310  27.2259605  78.7157489
  99.2478313  26.7332048  78.3968437  98.8431087  27.3684392  79.5423567
  98.7339895  27.1737047  78.7907022 101.1415402  30.0714511  78.3664381
 101.4238645  29.2765917  78.1451137 101.8701562  30.5495098  78.3869442
 101.2904965  30.0249108  78.3367396  99.1196596  17.6137545  75.6080146
  98.7899926  18.0648688  74.9383845  98.4441597  17.5353708  76.1553153
  98.9707032  17.6688680  75.5903370 104.7367004  26.9842774  68.4669432
 104.6518299  27.8403741  68.6119001 105.2251387  26.7087099  69.1351592
 104.7955901  27.0700096  68.5871514 106.3273003  13.6023068  73.8529757
 106.0126444  14.2926546  74.2850179 105.8099945  13.5467850  73.1515258
 106.2037474  13.6957956  73.8126706 105.6685437  23.6027569  69.9667168
 105.1396909  23.8187202  70.6264474 106.1910457  24.2963707  69.8868137
 105.6673890  23.7370706  70.0522767 111.1233490  29.1773873  75.3400212
 110.2931193  29.3884517  75.5033629 111.0742742  28.3510928  75.0642496
 110.9940225  29.0863479  75.3237577  97.5585045  27.4990785  68.7674636
  96.9742260  28.0040817  69.1740499  97.1555140  27.2733172  68.0271228
  97.4124349  27.5399034  68.7179661  99.1843228  32.0077727  78.1748122
  98.6670169  31.6485142  77.5709430  99.8817619  31.4839902  78.1854188
  99.2108809  31.8775415  78.0878380 102.8406820  32.4572541  84.1364295
 102.9290165  32.2698682  84.9842505 103.2696532  31.8109971  83.7369141
 102.9168922  32.3335549  84.2036046 100.4077279  31.7403701  83.1181957
  99.8448114  31.3276311  83.6421618 101.1698303  31.6656607  83.5375100
 100.4371728  31.6681102  83.2574957 102.0162259  23.7456438  67.2443556
 102.2558263  23.9534421  66.4318899 102.3378100  22.9413946  67.3532501
 102.0999417  23.6570539  67.1404109  97.3252550  15.6749833  71.0903094
  98.0798518  16.0428150  70.8520144  97.1480084  16.0489388  71.8582274
  97.4107028  15.7848021  71.1687983 110.6187448  21.8244274  79.1350633
 109.7815869  21.8946461  79.3698228 110.5875679  21.8268769  78.2624936
 110.4905731  21.8354501  79.0410181  97.0152177  23.9677309  84.8499002
  97.1872681  23.8583204  85.6984283  97.5521535  24.6131715  84.6130194
  97.1197181  24.0469311  84.9404099  95.6809614  18.0820152  67.7881207
  95.4985187  18.2992033  66.9622200  96.5435227  18.1959165  67.8439821
  95.7814204  18.1310050  67.6735694  95.2924046  29.9208074  75.2304195
  96.1312946  30.1531007  75.2777957  95.3235815  29.0512386  75.1611230
  95.4205764  29.8265021  75.2268840  95.9176749  30.3408950  79.5317500
  96.4574974  30.1980081  80.2020873  95.2346696  30.7405700  79.9001527
  95.8968903  30.3788621  79.6851922 101.3609333  15.0846563  70.8230231
 102.0895494  14.9062518  70.3768387 101.4504226  15.9264643  71.0337409
 101.4815996  15.1830441  70.7883749 105.3417634  26.0199950  74.7262525
 106.0975149  26.4531465  74.7651434 105.4479959  25.3704720  75.2997161
 105.4687805  25.9877434  74.8160550 108.3797805  29.8473228  75.4764928
 107.9433037  29.8509970  76.2323899 108.0460721  30.5278727  75.0444505
 108.2660425  29.9485683  75.5245760 102.9526879  31.8881560  86.8008078
 103.7367295  32.0012408  87.1663820 102.7523473  31.0622697  86.9966764
 103.0392904  31.7828280  86.8842464  91.3213894  26.5609240  79.6851922
  91.0552310  25.7448357  79.8442912  91.3352458  26.6062396  78.8147438
  91.2838617  26.4466145  79.5805404 108.2995288  16.8887055  77.7194356
 108.9421197  16.9585160  78.3056271 108.5518309  16.2216278  77.2173898
 108.4317420  16.8013404  77.7321635  95.2271641  21.3594325  66.3003680
  94.5129818  21.0732504  66.7126113  95.7115610  21.6990951  66.9410068
  95.1931005  21.3675975  66.4559315  96.0712501  20.0987619  82.3318930
  95.3784297  19.6284598  82.5779661  96.6872828  19.8725923  82.9060637
  96.0597031  19.9954751  82.4528082 103.1097272  33.7991662  80.4474534
 102.3112518  33.5591162  80.7048402 103.5583284  33.8506055  81.1941581
 103.0571883  33.7714054  80.5959458 111.5142151  26.5654147  74.3684565
 112.1758586  26.0044816  74.2680474 110.8733563  26.0706178  74.6937256
 111.5171019  26.4090556  74.4016905 102.4018959  29.8624279  66.6765488
 102.8170108  29.5309303  65.9849984 101.5710889  29.6293181  66.5485625
 102.3406968  29.7795535  66.5556336  91.7307308  27.3468020  76.9663666
  91.5482881  27.3214906  76.1135958  92.4656977  27.8166958  77.0052575
  91.8121372  27.4129382  76.8461585 107.8006982  27.5819530  74.1096554
 108.0362571  27.7264729  73.2823404 107.9496546  28.3461938  74.5028067
 107.8572785  27.7158584  74.0460158  94.7953060  24.0653023  83.4745775
  95.5193032  24.0506053  83.9610670  94.8969196  24.7748378  82.9767743
  94.9171269  24.1677726  83.4724562 109.6297439  26.4221196  71.9466158
 109.9605656  26.9548836  71.3406253 110.2030527  26.4760084  72.6028109
 109.7631118  26.5090765  71.9543939 102.1698009  27.5452107  88.3394722
 101.3770990  27.8595619  88.5247342 102.2846936  27.7603576  87.5015507
 102.0693420  27.6235944  88.2433057 104.8429328  24.2686098  72.6289738
 104.9376182  25.0075393  73.0829363 104.2188172  23.8403574  73.0624302
 104.7638358  24.3147419  72.7597885 103.0981802  27.4472311  83.2780019
 103.6720664  26.8099555  83.4328583 103.0196606  27.4476393  82.4089676
 103.1715037  27.3537422  83.1726430  91.6978218  24.2261521  77.1162733
  92.2751721  24.0897971  77.7554978  90.9992280  23.7697305  77.3708317
  91.6799240  24.1383787  77.2485023 105.0952349  26.1134838  65.8626690
 105.0132512  26.1837025  66.7281677 105.7332070  26.6764582  65.6710430
 105.1772187  26.2073809  65.9616639  98.4545520  25.8795576  75.3301216
  98.1964765  25.0467311  75.3032516  98.5094003  26.1053189  74.4893716
  98.4245298  25.7893347  75.2021353 103.5346571  17.9824027  75.4305309
 102.8302897  17.4933212  75.5889228 103.5831545  17.9946501  74.5593753
 103.4376622  17.9113675  75.3244649  97.4280233  23.4333339  75.8166111
  96.8529824  23.5925507  76.4530072  97.0515909  22.7968748  75.3534561
  97.2883045  23.3631152  75.8420669 101.0953521  21.9056688  80.6758489
 100.7067954  21.4810906  80.0210680 100.4308220  22.1538838  81.1835516
 100.9400449  21.8795409  80.6546357 110.7376790  21.6631693  73.4506319
 110.4813355  20.8511634  73.2604202 111.5806104  21.6709260  73.2236507
 110.8242816  21.5443690  73.3891136  87.1737052  23.0773413  73.8310551
  87.2597303  22.7005282  74.6124081  87.8012849  22.7033859  73.3530510
  87.2793602  22.9658896  73.8756029 104.9179883  15.6031317  78.1882473
 105.2990395  14.9209488  78.5750348 104.1143167  15.3140919  78.0058138
 104.8556345  15.4598365  78.2186529 102.1992460  26.1355293  68.8735296
 103.0133098  26.4270185  68.7618068 102.1351601  25.4815155  68.2993589
 102.3095199  26.0820487  68.7724134 108.4201950  28.8181289  83.2864872
 108.1840587  27.9869353  83.1676932 109.0645179  28.7666896  83.8719716
 108.4796620  28.6878977  83.3550765  98.0700368  29.6076810  74.0007608
  98.7074315  29.3688558  74.5459402  98.4955439  29.8113969  73.2660769
  98.2276534  29.6027820  73.9724766  92.7613010  31.8465146  77.8841912
  92.8017155  32.1179998  77.0561692  93.3207534  32.3707055  78.2999700
  92.8496356  31.9640902  77.8233800  98.7103183  24.8279100  68.3382498
  99.0948336  24.6086806  69.0899043  98.4614803  25.6542045  68.4683574
  98.7305255  24.9177246  68.4683574  98.8771723  18.1085515  88.0545082
  98.5625164  18.8785078  87.7914645  98.5561656  17.5455771  87.4697309
  98.7830642  18.1395784  87.9286432 109.4438370  28.6025737  79.3493166
 109.1384187  29.3353794  79.7106482 108.7244586  28.1963667  79.0685952
 109.2925713  28.6507470  79.3606303 100.4521840  30.0849233  75.6801395
 100.5260848  29.9224404  76.5343244 101.2691346  30.2739422  75.4361876
 100.5838198  30.0885975  75.7699420 115.1440162  25.2418738  78.6761511
 115.0764663  25.2614697  77.8064097 115.1295825  26.0849065  78.9017181
 115.1318919  25.3692473  78.5813987  94.2127596  30.4307095  72.7095838
  93.3865714  30.6768833  72.5830117  94.2739588  30.3519176  73.5757896
  94.1001763  30.4552044  72.8184782  96.4303620  16.4976036  73.6691278
  95.5626046  16.5698636  73.7348887  96.7178825  17.2998115  73.8579253
  96.3443368  16.6270184  73.7066045 105.5536509  16.6453896  82.0002600
 106.2990101  16.4563706  81.5866025 105.1373814  17.1712134  81.4416456
 105.6021483  16.6956041  81.8567173 112.9298780  24.0163124  76.9508105
 113.4806701  23.3831193  77.1905197 112.9142895  24.5478517  77.6423609
 113.0083976  24.0012072  77.0886963  99.5821171  27.8501722  81.4967998
  99.0832864  28.5617489  81.5752887 100.3921395  28.1702388  81.4586161
  99.6277277  28.0028570  81.5024567  95.8449288  27.1124675  75.7430719
  95.5562537  26.4862146  76.2776447  96.7132636  27.0544962  75.8095400
  95.9309540  27.0112219  75.8321674 106.6327186  22.2559458  76.0612701
 106.2891952  21.5349793  76.4119951 106.7320229  22.0473309  75.2191059
 106.5969229  22.1183661  75.9884381  99.1000297  36.3980748  72.2605710
  99.7524355  35.8657190  72.4896736  98.4025905  36.0449400  72.6473584
  99.0931015  36.2670271  72.3517878  96.0481562  28.7519926  71.6673084
  96.8027530  29.1332965  71.8808547  95.4552174  29.2031069  72.1219781
  96.0718275  28.8748753  71.7655963 107.0940215  28.7185162  71.6036689
 107.6598248  29.3778372  71.5195232 106.4468119  29.0634860  72.0753091
 107.0818972  28.8667103  71.6609446  98.5088229  20.7082766  86.7930297
  97.6988004  21.0140546  86.6820139  98.9862915  21.4288348  86.9082881
  98.4591707  20.8597367  86.7937368  97.3679788  29.9228487  77.0413200
  96.8460542  30.0628779  77.7265064  97.7553809  29.1639151  77.2315317
  97.3483489  29.8314011  77.1714276  94.3570972  19.9734296  71.1108154
  94.0695768  19.6035566  70.3740102  95.0441440  20.4429151  70.8491859
  94.4159870  19.9881265  70.9623230 103.5646793  31.6623946  71.0273769
 103.3233469  30.9291807  70.6200834 103.7448126  32.2110803  70.3740102
 103.5554417  31.6346337  70.8703991  98.7946114  26.9532506  72.4394691
  98.5988896  27.5607241  71.8454994  99.0180459  26.2600450  71.9586365
  98.7980755  26.9410032  72.2810772  97.1924644  23.8387244  72.5575559
  97.9147296  24.0028402  72.0979365  96.7132637  24.5596909  72.4514899
  97.2288375  23.9685474  72.4741173 105.1518151  20.1751043  77.9372244
 104.3129252  20.2012322  77.7010507 105.2222519  20.8221778  78.5177591
 105.0386545  20.2747169  77.9881361  94.8432261  26.2445316  81.6629699
  95.3553357  26.5229570  81.0138459  94.5568603  26.9834610  82.0292512
  94.8767124  26.3947670  81.6219577 103.5987430  17.0736420  72.6699860
 104.3013783  16.8744168  72.1919818 103.3331618  16.3012362  72.9768704
 103.6634062  16.9299386  72.6445302 109.0275675  25.3819030  75.2233486
 108.9409650  25.5374456  76.0768265 108.5726155  26.0257105  74.8492891
 108.9478932  25.4994785  75.2940593  91.9299167  20.7515508  71.9593436
  92.0315303  21.5541670  72.2874411  92.7255054  20.5502844  71.6616516
  92.0627072  20.8401407  71.9628791  98.3615986  18.3371705  81.7230741
  98.1699183  18.3526839  82.5730164  99.2114582  18.5335379  81.6997395
  98.4591708  18.3686056  81.8454035  92.7462899  20.8662686  79.7014557
  92.6048391  20.0146627  79.8259065  93.0303462  20.9091347  78.8776763
  92.7670745  20.7462436  79.5982181 102.9001491  22.7029777  73.8459045
 102.6536206  22.6225528  74.6795834 103.2286614  21.9183244  73.6521573
 102.9122735  22.5756042  73.9406568 106.7949540  29.4113136  77.6345827
 106.6563899  30.1094182  78.1394569 106.0149538  29.2561792  77.2782008
 106.6592767  29.4913303  77.6572101 105.1327625  25.7109511  83.8868208
 105.1275664  24.8389328  83.8910635 105.8388619  25.9097680  83.4137664
 105.2372629  25.6113385  83.8175244  98.8598519  25.4386495  83.2582028
  99.0041894  26.0187703  82.6225138  99.2074167  25.8162792  83.9631883
  98.9325980  25.5807199  83.2681023 101.0318436  24.6376664  81.0407160
 100.2841750  24.8307678  80.6355438 101.1859961  23.8121883  80.8031281
 100.9440864  24.5441775  80.9452566  97.9326274  33.6289267  80.1243055
  98.0815837  33.0692183  79.4716460  98.7126276  33.7081269  80.5075574
  98.0700367  33.5574832  80.0840004 108.2902913  28.7691390  68.3962326
 107.9109722  27.9828528  68.3891615 107.6269158  29.3178247  68.2533970
 108.1361388  28.7336214  68.3743123 100.4579574  33.8003910  81.4027546
 100.3823245  33.1312720  81.9578334 100.3869433  34.5021698  81.9168212
 100.4360181  33.8048817  81.5604394 101.2720213  18.5327214  81.9302564
 101.7292827  19.2651189  82.0575356 101.3476542  18.1093680  82.6889820
 101.3511183  18.5784452  82.0603640  93.5153204  18.7793034  83.0192007
  92.9795394  18.1673392  83.3352775  93.5770969  19.3541170  83.6725674
  93.4448837  18.7739962  83.1627434 101.1149821  32.3204909  72.2351152
 101.8799712  32.0514553  71.9133816 101.0127911  31.8354919  72.9521215
 101.2131317  32.2094473  72.2930980  99.1502591  20.5229318  78.7744388
  98.3598666  20.3420778  79.0961724  99.5463214  19.7456271  78.7574682
  99.0919467  20.3816779  78.8196936 103.6368482  29.3517093  64.2151101
 104.4041467  29.4117218  63.8056953 103.1899791  28.7797534  63.7307420
 103.6841909  29.2753668  64.0828812 104.5346277  28.1571748  76.5003834
 103.8591279  27.9256981  77.0017221 104.5438653  27.5492931  75.8745939
 104.4364782  28.0330674  76.4819986 101.6640421  22.9989577  83.2567887
 101.5999562  23.8599534  83.1288023 101.8037609  22.6821571  82.4563438
 101.6755891  23.0789744  83.1196100 106.5363012  31.0136881  68.7314012
 106.6182849  31.8203867  68.4075463 107.0212754  31.0332840  69.4554785
 106.6200170  31.1357543  68.7900910 100.3459515  25.6921717  77.3984090
  99.9221764  25.8926216  76.6623108 100.1704370  24.8450565  77.5108389
 100.2570396  25.5970498  77.3057780  95.6341960  26.1873768  72.8312062
  95.7906579  26.1220571  73.6868054  95.9742553  26.9622321  72.6190742
  95.7075195  26.2922966  72.9266656 102.1721105  25.5631652  71.7005425
 102.7136650  25.0602033  72.1644046 102.4867664  25.5096846  70.8894911
 102.2985502  25.4811073  71.6489237 106.0438212  29.7734299  88.8132338
 106.8573077  29.5019448  88.9737470 105.8833178  29.4741839  88.0092533
 106.1408161  29.6889225  88.7177743 100.3407554  30.9549003  68.9845453
 100.4100375  30.0963542  69.1238454 101.1196010  31.1720884  68.6564478
 100.4660404  30.8601867  68.9562611 103.3210374  20.4567956  81.7527726
 103.5352344  19.8178870  81.1991080 102.7044273  20.9013780  81.3235588
 103.2615703  20.4278100  81.6078157 104.7315042  33.3786705  73.1981947
 104.3394834  33.0753420  72.4804813 104.8868114  34.2155794  73.0086901
 104.6968632  33.4570541  73.0638444  92.2076222  23.3708719  73.1472829
  92.5875186  23.7893264  72.4833097  91.6331586  23.9522174  73.4541673
  92.1787546  23.5186577  73.0949570 105.4849462  22.0657021  82.6911033
 104.6726144  21.7582912  82.7724206 105.9439397  21.5856022  83.2553745
 105.4329847  21.9493514  82.7865627 104.8954717  29.9436693  73.1387977
 104.5369371  30.1151336  73.9152010 104.4093427  30.4049899  72.5815976
 104.7713414  30.0375664  73.1713246 102.7125103  13.5667892  76.7415069
 101.8418661  13.5406613  76.6948378 102.9665444  13.3945084  75.9240914
 102.6218663  13.5378036  76.6135205  99.6843082  25.6235859  65.6788212
  99.9735607  26.4000741  65.9531786  99.7714881  25.1124590  66.3802711
  99.7397338  25.6627777  65.8230709 102.5802970  23.4717093  87.4739735
 103.0502601  24.0959209  87.8607609 102.6264850  22.8034068  88.0332950
 102.6570845  23.4651773  87.6139807  99.7374243  15.5774120  78.1988539
  99.2212732  14.8854312  78.3240118  99.1768172  16.2444897  78.1451138
  99.5780756  15.5737378  78.2094605 101.8066477  16.1167080  80.0281392
 101.4198230  16.1416112  80.8094921 101.3199414  15.5508759  79.5755908
 101.6778986  16.0362831  80.0769295 106.0559456  30.8340589  84.0855178
 106.6939177  30.3400785  83.7517634 105.4133548  30.7617990  83.5007405
 106.0553683  30.7499598  83.9497533 107.7816456  22.6829735  78.6521094
 107.3544064  22.5956084  77.8969193 107.1442509  22.7907511  79.2375938
 107.6246063  22.6862395  78.6266535 101.4723618  13.0034066  82.3191651
 102.1016736  13.5394366  82.0412722 101.6409481  12.9111425  83.1705217
 101.5901413  13.0695428  82.4040180 101.2737533  17.7905261  84.5918063
 102.1010963  17.5190409  84.6476678 101.2945379  18.5866102  84.9481881
 101.3990383  17.8685015  84.6533246 106.1113713  31.5260398  80.7260535
 106.9006091  31.1749462  80.8462617 106.2857310  32.3396786  80.4637169
 106.2533994  31.5946255  80.7048403  95.8507023  24.9369123  77.7788324
  95.0095030  24.8372998  77.9867218  96.0597031  25.7064604  78.1302644
  95.7571716  25.0361167  77.8615639  93.3282590  22.5588660  75.6073074
  92.9339288  22.6331672  74.8323184  92.7722707  22.9446607  76.1581436
  93.1885402  22.6270435  75.5740734 104.9647537  15.5369954  75.2876953
 105.1697130  15.4692262  76.1333950 104.6373961  16.3428776  75.2198131
 104.9462785  15.6455895  75.4036608  99.6623688  22.8650523  77.0285921
  99.3586825  22.3106511  77.6296329  98.9603109  23.0442732  76.5413955
  99.5139898  22.8095305  77.0455627  98.7189785  20.1751042  71.5930623
  98.9949519  19.4569955  71.1808191  99.3188454  20.7735962  71.3851729
  98.8483050  20.1571413  71.5011384  97.7242039  30.0800243  81.7358019
  97.6162394  30.0902305  82.6020077  97.9337820  30.9055024  81.5462973
  97.7392150  30.2041318  81.8362111 108.2181225  16.0901719  74.7679719
 107.6055538  16.5772121  75.1533451 108.3145399  15.4145209  75.3117370
 108.1419122  16.0620027  74.9058577 102.2200306  17.8464560  69.8677218
 102.6744052  18.0175120  70.5925063 102.6940351  17.2332670  69.4674994
 102.3568626  17.7815445  69.9150980  95.7415831  27.3312886  79.1979957
  95.1503764  27.9722384  79.1682972  96.5036855  27.7550503  79.1711256
  95.7664092  27.4888724  79.1895104  96.1376454  18.4914883  79.8647974
  96.5977935  18.5653813  80.6023098  96.1832560  19.2896137  79.5147796
  96.2127009  18.6209030  79.9220731  97.7859803  19.1581578  84.4320001
  97.3945369  18.5114925  84.8675779  97.9545666  19.7493014  85.0514257
  97.7530714  19.1495846  84.5882707 111.8606253  27.1618655  80.1957235
 111.9189376  27.6105304  80.9417211 111.2272720  27.5717468  79.7587315
 111.7757548  27.2892390  80.2409783 105.5005347  32.7822197  76.6311981
 105.3025036  33.2713012  75.9368192 104.8793058  32.9863439  77.2096114
 105.3792912  32.8838735  76.6135204  99.5613326  24.5507094  70.9722225
 100.3055370  24.9381370  71.2105175  99.7074022  23.7064519  71.1362713
  99.6923911  24.4837567  71.0316195 101.4792901  16.3457353  76.0054087
 100.6328946  16.5180161  75.8795437 101.4764033  15.5406697  76.3419915
 101.3540051  16.2518382  76.0365214 102.5491201  20.1232567  76.8716145
 102.0751156  19.5974329  77.3821456 102.9209337  19.5762040  76.3031006
 102.5341090  19.9648564  76.8631292  92.9264232  22.1204074  82.2399690
  93.7889845  22.0199783  82.1537020  92.5956015  21.5398783  81.6785263
  93.0049428  22.0195701  82.1445096 108.8127932  25.1834943  78.2822925
 108.5726155  24.3441358  78.2865352 109.2919939  25.2635110  79.0063699
 108.8480116  25.0716343  78.3897728 104.4774701  21.0169122  69.9341899
 103.9497720  21.0997866  69.2447607 104.9370409  21.7586993  69.9306543
 104.4676552  21.1389784  69.8316594 110.8133119  21.9636400  76.2352184
 110.5742889  21.9232234  75.3972969 110.9767020  22.8107552  76.3617905
 110.8023422  22.0828485  76.1305666 107.4179149  26.3486350  82.1657229
 108.1413348  25.8958876  81.9868249 107.1529111  26.6291015  81.3829557
 107.4860422  26.3237318  82.0235945  96.2866018  20.9446523  78.9010109
  95.6619088  20.9564915  78.2936061  95.9511612  21.4206698  79.5501349
  96.1451509  21.0165040  78.9066677  96.4707766  19.2871642  64.9582794
  96.1220571  19.9391367  65.4214343  95.9904212  19.2728755  64.2306665
  96.3478010  19.3814695  64.9193885  92.9991693  29.0046983  80.3413873
  92.4691618  28.3139422  80.3908848  93.2716786  28.9957168  79.5126581
  92.9616415  28.9014115  80.2261289 104.0311784  29.5872686  69.0651556
 104.7545982  30.0530798  68.9216129 103.5912375  29.6546295  68.3149153
 104.0727476  29.6656522  68.9336337 103.1997939  26.4470228  80.3152245
 102.5854932  25.9028278  80.6100880 103.7165224  25.9334464  79.8358061
 103.1853601  26.2906637  80.2876473 102.4394236  27.5174498  78.0496543
 102.0121844  26.8924216  77.6161979 102.4319180  27.2349420  78.8755550
 102.3753377  27.3827278  78.1076371  95.5556763  22.5539671  81.1184977
  95.7150250  21.7982995  81.5236699  95.3749656  23.1030610  81.7725715
  95.5522122  22.5233485  81.2747683 103.4977066  14.7200906  81.6735767
 103.0017627  14.9164581  80.9827333 104.2546128  15.1193575  81.5024568
 103.5363891  14.8078640  81.5455903 100.7679945  18.3943252  78.2639077
 100.7922433  17.8603365  77.5751857 101.0191419  17.8860561  78.9264668
 100.8089864  18.2404156  78.2603722  88.2787535  25.6774747  77.6982221
  88.1730984  25.6321592  76.8334305  87.5287755  26.0228528  77.9796506
  88.1523138  25.7215655  77.6119551  97.0481268  17.1214071  77.6444821
  97.0879639  17.6223277  78.3579529  96.2230932  17.2124464  77.3750745
  96.9320794  17.2095887  77.7095360  99.2310881  26.6874811  85.7465116
  98.3806511  26.8246525  85.8822761  99.3939008  25.9538589  86.1912818
  99.1294744  26.5988912  85.8320715  98.4695631  23.6374580  79.9418721
  97.6387561  23.8048398  79.7353969  98.4147148  23.2610531  80.7267606
  98.3385046  23.6064312  80.0267249  96.2779414  17.1283473  85.5775131
  96.9032118  16.5845606  85.8504563  95.8229894  16.6478391  85.0082922
  96.3027675  16.9772955  85.5336725  96.8431675  21.9130172  70.4708838
  96.9834636  22.4102636  71.1737480  97.3414208  21.2116466  70.6123052
  96.9372756  21.8832151  70.5960417  96.8731897  22.7797283  67.8001415
  97.5076977  23.3757708  67.7350877  96.9557508  22.4800741  68.6147285
  96.9788448  22.8238191  67.9104502 109.8514463  25.3112760  80.6687779
 110.4432303  25.9510011  80.7005977 110.2873458  24.6135797  80.9579846
 110.0032894  25.3031111  80.7168612  98.4510880  18.7111258  67.7746857
  98.7726721  18.2314341  67.1206119  98.7137824  19.5210904  67.5837669
  98.5376906  18.7601156  67.6502349 101.6807853  29.7330133  81.2945673
 101.1732944  30.2865980  81.7386304 101.3834499  29.7938423  80.4764448
 101.5612738  29.8236444  81.2394130 103.8470035  18.0983452  80.1370336
 104.2725107  17.6455979  79.5253863 103.2327028  17.5443523  80.4135124
 103.8198681  17.9497429  80.0875361  93.3784885  24.9765124  71.0690961
  93.8877115  25.5729631  71.4502267  93.8519157  24.7091097  70.3867381
  93.5228261  25.0250939  71.0245484 104.2915633  33.6493390  69.2249617
 103.5744943  33.4754253  68.7596854 104.9422371  33.4145963  68.6925103
 104.2817484  33.5889183  69.0778835 102.2864258  14.5698552  73.5460913
 101.6432576  14.4196198  74.1146052 101.9463665  14.3240897  72.7810018
 102.1409335  14.5110675  73.5163928 106.8763604  22.5257979  72.9690922
 106.2054794  23.0687681  72.8403987 107.5703355  22.9952834  72.7272617
 106.8792472  22.6756250  72.9146449 100.9250338  34.6654691  78.2002680
 100.7015993  33.9073520  78.5686706 100.4360181  34.6952712  77.4783120
 100.8193787  34.5576915  78.1479421 107.0391732  18.9813863  75.8781295
 107.3919342  18.5543586  76.5527094 106.1806533  18.8964706  76.0082371
 106.9641177  18.9058603  75.9976305  95.7375417  21.6121382  73.9364141
  95.0187406  22.0285515  74.2037005  96.1087779  22.1775621  73.3855780
  95.6867349  21.7570664  73.8946948 105.0374998  22.2449231  79.8266137
 105.0172925  22.0632526  80.6800916 105.0854198  23.1161250  79.8025721
 105.0409639  22.3465769  79.9489432 102.9821328  28.8336423  85.7514614
 102.9417182  28.1886100  85.1659770 103.7944646  28.7773041  86.0640026
 103.0964481  28.7295390  85.7111563  99.5728795  34.8855149  75.6539765
  99.1589194  34.2229279  75.2643606 100.2576169  35.0333008  75.1335459
  99.6127167  34.8095807  75.5196262 102.9394089  34.0445234  76.4063381
 102.5410372  34.1547505  75.6384201 102.3245309  34.2527301  76.9889941
 102.7892979  34.0918802  76.3794681 101.5121991  20.6519382  69.2737521
 100.9186831  20.9736379  68.7222088 101.5497269  19.8060478  69.0658627
 101.4296380  20.5743710  69.1620292 108.4715792  14.1032274  76.8065607
 107.9646657  13.3961414  76.7386785 109.2683226  13.7725463  76.9366684
 108.5143031  13.9505426  76.8164602 104.3879808  20.6098887  72.7039271
 104.1593501  20.6331588  71.8617629 104.6477884  19.7856354  72.8234282
 104.3925996  20.4914967  72.5964469  98.6699036  22.4633360  82.3064371
  98.1577939  21.8554543  82.6649403  98.4978532  23.1789952  82.7738347
  98.5688673  22.4796659  82.4280595  93.5164751  20.9070935  84.9566733
  93.3467341  21.5672310  84.4114940  93.0730701  21.1177496  85.6779222
  93.4264085  21.0356917  84.9828363  97.4424570  19.1475433  73.9993467
  97.9181937  19.5092513  73.3643648  96.9413170  19.8031901  74.2793610
  97.4389929  19.2969622  73.9470208 110.6735932  28.6197201  69.7906472
 111.0569538  29.3688557  70.0204569 109.8780045  28.8663021  69.5318461
 110.6129714  28.7666895  69.7864045 102.5468107  20.3857604  84.7466627
 103.1039537  20.1571414  84.1145092 102.2229172  21.1463270  84.4701839
 102.5814517  20.4641441  84.6123124  90.4166816  23.8117801  80.2155223
  89.8693535  23.1418446  80.3336091  91.2059194  23.4447648  80.2798690
  90.4518999  23.6582787  80.2423924 100.2651224  23.4725258  85.7118634
 101.0162551  23.7876934  86.0258188 100.4573800  23.2704429  84.8852556
 100.4042638  23.4892639  85.6362030  99.4851224  21.2916633  67.3666851
  99.8650188  21.3096262  66.5817966  98.7443820  21.7370622  67.2457698
  99.4320061  21.3598407  67.2330419 107.1136514  19.5998824  72.9542429
 107.1130740  19.4447481  73.8126706 106.9092694  20.4461811  72.8983815
 107.0836292  19.7019445  73.0730369 104.8377366  24.2796326  76.6078636
 105.3331031  23.5619321  76.5682657 104.0277142  23.9767123  76.4933123
 104.7921259  24.1293972  76.5852362 100.2835978  28.1294139  68.7575641
  99.4747300  27.8060813  68.7108950 100.7910886  27.4227361  68.6903889
 100.2385644  27.9775455  68.7405935  90.9126255  25.5566332  74.4823005
  90.0471774  25.5452023  74.3705776  91.0125071  25.3696555  75.3294144
  90.8000422  25.5272393  74.5911950 106.9029185  27.0300013  79.2955765
 107.3284257  26.5074435  78.7426190 106.5386105  27.6280851  78.7744388
 106.9115788  27.0410240  79.1364775 103.4907784  30.7434278  75.6256923
 103.9618963  31.4574540  75.7946908 103.8267963  30.1433028  76.1616792
 103.6102899  30.7605742  75.7289298 105.5784769  32.3535591  87.8048995
 105.6881734  31.5644151  88.1605742 105.9075666  32.2641527  87.0023333
 105.6437175  32.2241444  87.7391385 100.4077279  15.5161748  82.5815017
 100.5405185  14.7192742  82.9095993 100.7922432  16.0428151  83.1613293
 100.4833608  15.4761665  82.7158520 104.1281731  30.5352212  82.3884615
 103.5802677  29.9110095  82.1204680 104.5894759  30.7246484  81.6728695
 104.1148940  30.4711262  82.2435046 103.4809635  12.4392074  79.1796111
 102.6755598  12.3289804  79.4963949 103.3516370  12.5404530  78.3225976
 103.3429767  12.4375744  79.1004151 106.9375595  18.6037566  79.7735808
 106.3538584  19.1046773  79.3613375 107.2579889  18.0967122  79.1400131
 106.8988770  18.6029401  79.6194315  99.4770394  17.5178161  70.0494482
 100.2986089  17.6876474  69.8076177  99.0140045  17.6725422  69.3260780
  99.5301556  17.5659894  69.9066127  98.0665726  15.5120923  80.8292911
  98.6110139  15.1712050  81.4197253  98.1202662  16.3706385  80.9714196
  98.1554846  15.5876183  80.9374784  93.8796285  29.2737339  77.7031719
  94.4841142  29.2333173  77.0745540  93.6723597  30.1208491  77.7335775
  93.9385182  29.3925342  77.6147836 103.6940057  31.5403284  78.9193956
 104.5138431  31.3966250  79.1810252 103.4134135  32.1649483  79.4610394
 103.7736800  31.6113636  79.0381896 120.1653707  39.1968136  71.8836833
 120.1347712  40.0512773  72.0555102 120.7635056  38.8963429  72.4422976
 120.2490865  39.2784633  71.9911635 113.3653392  38.2843787  76.6389763
 112.5091288  38.4452285  76.6898880 113.4121046  37.4135851  76.6594824
 113.2452504  38.1794589  76.6495829 107.7494532  47.8206505  72.4026995
 106.9977432  47.4422043  72.1743040 108.1980544  47.8524939  71.6545805
 107.7044199  47.7692112  72.2584497 116.6747109  44.5530313  86.2450219
 117.3813876  44.0582343  86.3737154 116.8635044  44.9939394  85.5152877
 116.8075014  44.5448663  86.1559265 113.2019492  48.2431874  67.8312542
 112.8670860  48.9208796  67.3956764 113.7146362  47.8537186  67.2429413
 113.2285073  48.2856453  67.6799333 112.7423783  50.1946143  73.7723653
 113.1263162  50.7633042  73.2328429 112.6782924  49.4695653  73.2929469
 112.7897210  50.1721607  73.6217516 116.2105213  40.3435831  79.2821415
 116.7561173  41.0220918  79.3415385 116.1522090  40.2023292  78.4222996
 116.2821128  40.4227833  79.1633475 109.3279288  47.8324897  74.6689767
 109.4289651  47.0225251  74.9786895 108.7321033  47.7381844  74.0389446
 109.2551827  47.6989925  74.6216006 117.9870282  41.7720438  70.1555143
 117.8709808  42.5228124  70.5847281 118.7826169  41.5144391  70.4051230
 118.0874871  41.8455285  70.2559234 109.1680028  52.7502486  76.0704623
 109.8117483  53.1915650  76.4600782 109.4936283  51.9455912  75.9834882
 109.3111856  52.6967681  76.1150101 104.8234420  36.0230914  77.1926409
 104.2039452  35.4323562  77.0236423 104.7218283  36.6142350  76.5590732
 104.7172095  36.0234997  77.0731398 109.8700607  45.7614461  71.4424485
 110.1916449  46.3019668  70.8385793 110.5172704  45.1911233  71.5746775
 110.0126663  45.7573636  71.3731520 111.9202316  37.7630456  71.5258872
 112.6182480  37.9418584  72.0180335 112.2354648  37.2400795  70.9029261
 112.0697653  37.7124228  71.5060882 104.5503553  39.5683196  79.4369978
 104.4262250  40.1545642  80.0719796 105.2021837  39.0743392  79.7382253
 104.6277202  39.5822000  79.5755907 112.1090251  44.1500901  71.5138663
 112.5483886  43.5418002  71.9593436 111.9594914  43.7708274  70.7424128
 112.1511717  44.0039372  71.4657831 109.5761894  42.7444913  78.7157489
 110.2210896  42.2517356  78.3968437 109.8163671  42.8869700  79.5423567
 109.7072479  42.6922355  78.7907022 112.1147985  45.5899819  78.3664381
 112.3971228  44.7951225  78.1451137 112.8434146  46.0680406  78.3869442
 112.2637549  45.5434416  78.3367396 110.0929179  33.1322853  75.6080146
 109.7632509  33.5833996  74.9383845 109.4174181  33.0539016  76.1553153
 109.9439615  33.1873988  75.5903370 115.7099587  42.5028082  68.4669432
 115.6250883  43.3589049  68.6119001 116.1983971  42.2272406  69.1351592
 115.7688485  42.5885404  68.5871514 117.3005587  29.1208376  73.8529757
 116.9859028  29.8111854  74.2850179 116.7832529  29.0653158  73.1515258
 117.1770057  29.2143264  73.8126706 116.6418021  39.1212877  69.9667168
 116.1129492  39.3372510  70.6264474 117.1643041  39.8149015  69.8868137
 116.6406474  39.2556013  70.0522767 122.0966074  44.6959181  75.3400212
 121.2663777  44.9069825  75.5033629 122.0475326  43.8696236  75.0642496
 121.9672809  44.6048787  75.3237577 108.5317628  43.0176093  68.7674636
 107.9474844  43.5226125  69.1740499 108.1287724  42.7918480  68.0271228
 108.3856932  43.0584342  68.7179661 110.1575811  47.5263035  78.1748122
 109.6402753  47.1670450  77.5709430 110.8550202  47.0025210  78.1854188
 110.1841392  47.3960723  78.0878380 113.8139403  47.9757849  84.1364295
 113.9022749  47.7883990  84.9842505 114.2429116  47.3295279  83.7369141
 113.8901506  47.8520857  84.2036046 111.3809863  47.2589009  83.1181957
 110.8180698  46.8461619  83.6421618 112.1430886  47.1841915  83.5375100
 111.4104312  47.1866410  83.2574957 112.9894843  39.2641745  67.2443556
 113.2290847  39.4719729  66.4318899 113.3110684  38.4599254  67.3532501
 113.0732001  39.1755847  67.1404109 108.2985133  31.1935141  71.0903094
 109.0531101  31.5613458  70.8520144 108.1212668  31.5674696  71.8582274
 108.3839612  31.3033329  71.1687983 121.5920032  37.3429582  79.1350633
 120.7548453  37.4131769  79.3698228 121.5608263  37.3454077  78.2624936
 121.4638314  37.3539809  79.0410181 107.9884761  39.4862617  84.8499002
 108.1605265  39.3768512  85.6984283 108.5254118  40.1317023  84.6130194
 108.0929765  39.5654619  84.9404099 106.6542198  33.6005460  67.7881207
 106.4717771  33.8177341  66.9622200 107.5167811  33.7144473  67.8439821
 106.7546787  33.6495358  67.6735694 106.8909333  45.8594258  79.5317500
 107.4307558  45.7165389  80.2020873 106.2079279  46.2591008  79.9001527
 106.8701487  45.8973928  79.6851922 112.3341917  30.6031871  70.8230231
 113.0628077  30.4247826  70.3768387 112.4236810  31.4449951  71.0337409
 112.4548579  30.7015749  70.7883749 116.3150218  41.5385258  74.7262525
 117.0707733  41.9716773  74.7651434 116.4212542  40.8890028  75.2997161
 116.4420388  41.5062742  74.8160550 119.3530389  45.3658535  75.4764928
 118.9165621  45.3695278  76.2323899 119.0193304  46.0464034  75.0444505
 119.2393009  45.4670991  75.5245760 113.9259462  47.4066868  86.8008078
 114.7099879  47.5197716  87.1663820 113.7256057  46.5808005  86.9966764
 114.0125488  47.3013588  86.8842464 119.2727872  32.4072363  77.7194356
 119.9153780  32.4770468  78.3056271 119.5250892  31.7401586  77.2173898
 119.4050004  32.3198712  77.7321635 106.2004225  36.8779633  66.3003680
 105.4862402  36.5917812  66.7126113 106.6848194  37.2176259  66.9410068
 106.1663588  36.8861282  66.4559315 107.0445084  35.6172927  82.3318930
 106.3516881  35.1469906  82.5779661 107.6605412  35.3911231  82.9060637
 107.0329614  35.5140058  82.4528082 114.0829856  49.3176970  80.4474534
 113.2845102  49.0776470  80.7048402 114.5315867  49.3691363  81.1941581
 114.0304467  49.2899361  80.5959458 122.4874735  42.0839455  74.3684565
 123.1491169  41.5230124  74.2680474 121.8466147  41.5891486  74.6937256
 122.4903603  41.9275864  74.4016905 113.3751543  45.3809587  66.6765488
 113.7902691  45.0494611  65.9849984 112.5443472  45.1478489  66.5485625
 113.3139551  45.2980843  66.5556336 118.7739566  43.1004838  74.1096554
 119.0095155  43.2450037  73.2823404 118.9229129  43.8647246  74.5028067
 118.8305369  43.2343892  74.0460158 105.7685643  39.5838331  83.4745775
 106.4925616  39.5691361  83.9610670 105.8701780  40.2933686  82.9767743
 105.8903852  39.6863034  83.4724562 120.6030022  41.9406504  71.9466158
 120.9338240  42.4734144  71.3406253 121.1763111  41.9945391  72.6028109
 120.7363702  42.0276073  71.9543939 113.1430593  43.0637415  88.3394722
 112.3503573  43.3780927  88.5247342 113.2579520  43.2788884  87.5015507
 113.0426003  43.1421252  88.2433057 115.8161912  39.7871406  72.6289738
 115.9108766  40.5260700  73.0829363 115.1920755  39.3588882  73.0624302
 115.7370942  39.8332727  72.7597885 114.0714385  42.9657619  83.2780019
 114.6453247  42.3284863  83.4328583 113.9929189  42.9661701  82.4089676
 114.1447620  42.8722730  83.1726430 116.0684933  41.6320146  65.8626690
 115.9865095  41.7022333  66.7281677 116.7064653  42.1949890  65.6710430
 116.1504770  41.7259117  65.9616639 109.4278104  41.3980884  75.3301216
 109.1697348  40.5652619  75.3032516 109.4826587  41.6238497  74.4893716
 109.3977882  41.3078655  75.2021353 114.5079154  33.5009335  75.4305309
 113.8035481  33.0118520  75.5889228 114.5564129  33.5131809  74.5593753
 114.4109206  33.4298983  75.3244649 108.4012816  38.9518647  75.8166111
 107.8262407  39.1110815  76.4530072 108.0248492  38.3154056  75.3534561
 108.2615629  38.8816460  75.8420669 112.0686105  37.4241996  80.6758489
 111.6800538  36.9996214  80.0210680 111.4040803  37.6724146  81.1835516
 111.9133033  37.3980717  80.6546357 121.7109374  37.1817001  73.4506319
 121.4545939  36.3696942  73.2604202 122.5538688  37.1894568  73.2236507
 121.7975399  37.0628998  73.3891136 115.8912466  31.1216625  78.1882473
 116.2722978  30.4394796  78.5750348 115.0875751  30.8326227  78.0058138
 115.8288928  30.9783673  78.2186529 113.1725043  41.6540600  68.8735296
 113.9865682  41.9455493  68.7618068 113.1084184  41.0000463  68.2993589
 113.2827782  41.6005795  68.7724134 119.3934533  44.3366597  83.2864872
 119.1573171  43.5054661  83.1676932 120.0377762  44.2852204  83.8719716
 119.4529204  44.2064285  83.3550765 109.0432951  45.1262118  74.0007608
 109.6806898  44.8873865  74.5459402 109.4688023  45.3299277  73.2660769
 109.2009118  45.1213128  73.9724766 109.6835766  40.3464408  68.3382498
 110.0680919  40.1272114  69.0899043 109.4347387  41.1727353  68.4683574
 109.7037839  40.4362554  68.4683574 109.8504307  33.6270823  88.0545082
 109.5357748  34.3970386  87.7914645 109.5294239  33.0641079  87.4697309
 109.7563226  33.6581092  87.9286432 120.4170954  44.1211045  79.3493166
 120.1116771  44.8539102  79.7106482 119.6977170  43.7148975  79.0685952
 120.2658296  44.1692778  79.3606303 111.4254423  45.6034541  75.6801395
 111.4993432  45.4409712  76.5343244 112.2423930  45.7924730  75.4361876
 111.5570782  45.6071283  75.7699420 107.4036204  32.0161344  73.6691278
 106.5358629  32.0883944  73.7348887 107.6911408  32.8183423  73.8579253
 107.3175952  32.1455491  73.7066045 116.5269093  32.1639204  82.0002600
 117.2722685  31.9749014  81.5866025 116.1106397  32.6897442  81.4416456
 116.5754067  32.2141349  81.8567173 109.9659009  48.5669284  70.4114868
 110.2557307  48.1758265  69.6874095 110.6962490  48.7485989  70.8520143
 110.1165893  48.5363097  70.3697675 123.9031363  39.5348432  76.9508105
 124.4539285  38.9016501  77.1905197 123.8875479  40.0663825  77.6423609
 123.9816560  39.5197380  77.0886963 110.5553754  43.3687030  81.4967998
 110.0565448  44.0802797  81.5752887 111.3653978  43.6887696  81.4586161
 110.6009861  43.5213878  81.5024567 107.9064925  50.5436666  73.4775018
 107.6865220  50.2534021  74.2701685 107.6859447  49.8851621  72.9492930
 107.8412519  50.4036374  73.5163926 106.8181872  42.6309983  75.7430719
 106.5295120  42.0047454  76.2776447 107.6865220  42.5730270  75.8095400
 106.9042124  42.5297527  75.8321674 117.6059770  37.7744766  76.0612701
 117.2624535  37.0535101  76.4119951 117.7052812  37.5658617  75.2191059
 117.5701812  37.6368969  75.9884381 110.0732880  51.9166056  72.2605710
 110.7256938  51.3842498  72.4896736 109.3758489  51.5634708  72.6473584
 110.0663598  51.7855579  72.3517878 118.0672799  44.2370470  71.6036689
 118.6330831  44.8963680  71.5195232 117.4200702  44.5820168  72.0753091
 118.0551555  44.3852411  71.6609446 109.4820812  36.2268074  86.7930297
 108.6720588  36.5325854  86.6820139 109.9595499  36.9473656  86.9082881
 109.4324291  36.3782675  86.7937368 108.3412372  45.4413795  77.0413200
 107.8193125  45.5814087  77.7265064 108.7286392  44.6824459  77.2315317
 108.3216073  45.3499319  77.1714276 105.3303556  35.4919604  71.1108154
 105.0428352  35.1220874  70.3740102 106.0174024  35.9614459  70.8491859
 105.3892453  35.5066573  70.9623230 114.5379377  47.1809254  71.0273769
 114.2966053  46.4477115  70.6200834 114.7180710  47.7296111  70.3740102
 114.5287001  47.1531645  70.8703991 109.7678697  42.4717814  72.4394691
 109.5721480  43.0792548  71.8454994 109.9913043  41.7785758  71.9586365
 109.7713338  42.4595339  72.2810772 108.1657227  39.3572552  72.5575559
 108.8879879  39.5213710  72.0979365 107.6865220  40.0782217  72.4514899
 108.2020958  39.4870781  72.4741173 116.1250735  35.6936351  77.9372244
 115.2861836  35.7197630  77.7010507 116.1955102  36.3407086  78.5177591
 116.0119128  35.7932476  77.9881361 105.8164844  41.7630624  81.6629699
 106.3285941  42.0414878  81.0138459 105.5301187  42.5019918  82.0292512
 105.8499707  41.9132978  81.6219577 114.5720013  32.5921728  72.6699860
 115.2746366  32.3929476  72.1919818 114.3064202  31.8197670  72.9768704
 114.6366646  32.4484694  72.6445302 120.0008259  40.9004337  75.2233486
 119.9142233  41.0559763  76.0768265 119.5458739  41.5442413  74.8492891
 119.9211515  41.0180093  75.2940593 102.9031750  36.2700816  71.9593436
 103.0047887  37.0726978  72.2874411 103.6987637  36.0688152  71.6616516
 103.0359656  36.3586715  71.9628791 109.3348569  33.8557013  81.7230741
 109.1431767  33.8712147  82.5730164 110.1847165  34.0520687  81.6997395
 109.4324291  33.8871364  81.8454035 103.7195483  36.3847994  79.7014557
 103.5780974  35.5331935  79.8259065 104.0036046  36.4276655  78.8776763
 103.7403329  36.2647744  79.5982181 113.8734075  38.2215085  73.8459045
 113.6268789  38.1410835  74.6795834 114.2019198  37.4368552  73.6521573
 113.8855318  38.0941350  73.9406568 117.7682124  44.9298444  77.6345827
 117.6296483  45.6279490  78.1394569 116.9882122  44.7747100  77.2782008
 117.6325351  45.0098611  77.6572101 116.1060209  41.2294819  83.8868208
 116.1008247  40.3574636  83.8910635 116.8121203  41.4282988  83.4137664
 116.2105213  41.1298693  83.8175244 109.8331102  40.9571803  83.2582028
 109.9774478  41.5373011  82.6225138 110.1806751  41.3348100  83.9631883
 109.9058564  41.0992507  83.2681023 112.0051020  40.1561972  81.0407160
 111.2574334  40.3492986  80.6355438 112.1592545  39.3307191  80.8031281
 111.9173447  40.0627083  80.9452566 108.9058857  49.1474575  80.1243055
 109.0548421  48.5877491  79.4716460 109.6858859  49.2266577  80.5075574
 109.0432951  49.0760140  80.0840004 119.2635497  44.2876698  68.3962326
 118.8842305  43.5013836  68.3891615 118.6001742  44.8363555  68.2533970
 119.1093971  44.2521522  68.3743123 111.4312158  49.3189218  81.4027546
 111.3555829  48.6498028  81.9578334 111.3602017  50.0207006  81.9168212
 111.4092765  49.3234125  81.5604394 112.2452797  34.0512522  81.9302564
 112.7025411  34.7836497  82.0575356 112.3209125  33.6278987  82.6889820
 112.3243766  34.0969760  82.0603640 104.4885788  34.2978342  83.0192007
 103.9527977  33.6858700  83.3352775 104.5503553  34.8726478  83.6725674
 104.4181420  34.2925270  83.1627434 116.7180122  27.2302397  75.7996407
 116.8363691  27.6878861  75.0663709 116.5442298  26.4247659  75.5132624
 116.7099293  27.1796170  75.6497340 112.0882405  47.8390217  72.2351152
 112.8532296  47.5699860  71.9133816 111.9860495  47.3540227  72.9521215
 112.1863900  47.7279781  72.2930980 110.1235174  36.0414626  78.7744388
 109.3331249  35.8606086  79.0961724 110.5195797  35.2641579  78.7574682
 110.0652051  35.9002087  78.8196936 114.6101065  44.8702400  64.2151101
 115.3774050  44.9302525  63.8056953 114.1632374  44.2982842  63.7307420
 114.6574492  44.7938976  64.0828812 115.5078861  43.6757056  76.5003834
 114.8323863  43.4442289  77.0017221 115.5171237  43.0678239  75.8745939
 115.4097365  43.5515982  76.4819986 112.6373005  38.5174885  83.2567887
 112.5732146  39.3784842  83.1288023 112.7770192  38.2006878  82.4563438
 112.6488475  38.5975052  83.1196100 117.5095595  46.5322189  68.7314012
 117.5915433  47.3389175  68.4075463 117.9945338  46.5518148  69.4554785
 117.5932753  46.6542851  68.7900910 111.3192099  41.2107025  77.3984090
 110.8954348  41.4111524  76.6623108 111.1436954  40.3635873  77.5108389
 111.2302979  41.1155806  77.3057780 110.8203792  52.7257538  79.8605547
 111.3099722  52.0268327  79.6781212 110.2488024  52.4281408  80.4481604
 110.8088322  52.5783761  79.9206588 106.6074544  41.7059076  72.8312062
 106.7639163  41.6405879  73.6868054 106.9475137  42.4807629  72.6190742
 106.6807778  41.8108274  72.9266656 113.1453688  41.0816960  71.7005425
 113.6869234  40.5787341  72.1644046 113.4600247  41.0282154  70.8894911
 113.2718085  40.9996381  71.6489237 117.0170796  45.2919607  88.8132338
 117.8305661  45.0204756  88.9737470 116.8565762  44.9927147  88.0092533
 117.1140744  45.2074533  88.7177743 111.3140138  46.4734311  68.9845453
 111.3832958  45.6148850  69.1238454 112.0928593  46.6906192  68.6564478
 111.4392988  46.3787175  68.9562611 114.2942958  35.9753264  81.7527726
 114.5084927  35.3364178  81.1991080 113.6776857  36.4199088  81.3235588
 114.2348287  35.9463408  81.6078157 115.7047626  48.8972012  73.1981947
 115.3127417  48.5938728  72.4804813 115.8600698  49.7341102  73.0086901
 115.6701215  48.9755849  73.0638444 103.1808805  38.8894027  73.1472829
 103.5607770  39.3078571  72.4833097 102.6064170  39.4707482  73.4541673
 103.1520130  39.0371885  73.0949570 116.4582046  37.5842329  82.6911033
 115.6458727  37.2768220  82.7724206 116.9171980  37.1041329  83.2553745
 116.4062430  37.4678822  82.7865627 115.8687300  45.4622001  73.1387977
 115.5101955  45.6336644  73.9152010 115.3826011  45.9235207  72.5815976
 115.7445997  45.5560972  73.1713246 113.6857686  29.0853200  76.7415069
 112.8151244  29.0591921  76.6948378 113.9398028  28.9130392  75.9240914
 113.5951246  29.0563344  76.6135205 110.6575666  41.1421167  65.6788212
 110.9468191  41.9186049  65.9531786 110.7447465  40.6309898  66.3802711
 110.7129922  41.1813085  65.8230709 113.5535553  38.9902401  87.4739735
 114.0235184  39.6144517  87.8607609 113.5997433  38.3219376  88.0332950
 113.6303429  38.9837081  87.6139807 110.7106827  31.0959428  78.1988539
 110.1945315  30.4039620  78.3240118 110.1500756  31.7630205  78.1451138
 110.5513340  31.0922686  78.2094605 112.7799060  31.6352388  80.0281392
 112.3930813  31.6601420  80.8094921 112.2931997  31.0694067  79.5755908
 112.6511569  31.5548139  80.0769295 117.0292040  46.3525897  84.0855178
 117.6671760  45.8586093  83.7517634 116.3866131  46.2803298  83.5007405
 117.0286266  46.2684906  83.9497533 118.7549040  38.2015043  78.6521094
 118.3276648  38.1141392  77.8969193 118.1175093  38.3092819  79.2375938
 118.5978647  38.2047703  78.6266535 112.4456202  28.5219374  82.3191651
 113.0749320  29.0579674  82.0412722 112.6142065  28.4296733  83.1705217
 112.5633996  28.5880736  82.4040180 112.2470117  33.3090568  84.5918063
 113.0743546  33.0375717  84.6476678 112.2677963  34.1051410  84.9481881
 112.3722967  33.3870323  84.6533246 117.0846296  47.0445706  80.7260535
 117.8738674  46.6934770  80.8462617 117.2589894  47.8582094  80.4637169
 117.2266578  47.1131563  80.7048403 106.8239607  40.4554431  77.7788324
 105.9827613  40.3558305  77.9867218 107.0329615  41.2249912  78.1302644
 106.7304299  40.5546475  77.8615639 104.3015174  38.0773968  75.6073074
 103.9071871  38.1516980  74.8323184 103.7455290  38.4631915  76.1581436
 104.1617986  38.1455743  75.5740734 115.9380120  31.0555262  75.2876953
 116.1429714  30.9877570  76.1333950 115.6106544  31.8614083  75.2198131
 115.9195368  31.1641203  75.4036608 110.6356272  38.3835830  77.0285921
 110.3319409  37.8291819  77.6296329 109.9335692  38.5628040  76.5413955
 110.4872481  38.3280613  77.0455627 109.6922369  35.6936350  71.5930623
 109.9682103  34.9755263  71.1808191 110.2921038  36.2921270  71.3851729
 109.8215633  35.6756721  71.5011384 108.6974623  45.5985551  81.7358019
 108.5894977  45.6087613  82.6020077 108.9070404  46.4240332  81.5462973
 108.7124734  45.7226626  81.8362111 119.1913808  31.6087027  74.7679719
 118.5788122  32.0957429  75.1533451 119.2877983  30.9330517  75.3117370
 119.1151706  31.5805335  74.9058577 113.1932889  33.3649868  69.8677218
 113.6476636  33.5360428  70.5925063 113.6672935  32.7517978  69.4674994
 113.3301209  33.3000753  69.9150980 106.7148415  42.8498194  79.1979957
 106.1236348  43.4907692  79.1682972 107.4769438  43.2735811  79.1711256
 106.7396675  43.0074032  79.1895104 107.1109037  34.0100191  79.8647974
 107.5710519  34.0839121  80.6023098 107.1565144  34.8081445  79.5147796
 107.1859593  34.1394338  79.9220731 108.7592387  34.6766886  84.4320001
 108.3677952  34.0300233  84.8675779 108.9278250  35.2678321  85.0514257
 108.7263297  34.6681154  84.5882707 122.8338836  42.6803963  80.1957235
 122.8921960  43.1290612  80.9417211 122.2005304  43.0902776  79.7587315
 122.7490131  42.8077698  80.2409783 116.4737931  48.3007505  76.6311981
 116.2757619  48.7898320  75.9368192 115.8525642  48.5048747  77.2096114
 116.3525495  48.4024043  76.6135204 110.5345909  40.0692402  70.9722225
 111.2787954  40.4566678  71.2105175 110.6806605  39.2249827  71.1362713
 110.6656494  40.0022875  71.0316195 112.4525485  31.8642661  76.0054087
 111.6061530  32.0365469  75.8795437 112.4496617  31.0592005  76.3419915
 112.3272634  31.7703690  76.0365214 113.5223785  35.6417875  76.8716145
 113.0483739  35.1159637  77.3821456 113.8941921  35.0947348  76.3031006
 113.5073674  35.4833872  76.8631292 103.8996815  37.6389382  82.2399690
 104.7622428  37.5385091  82.1537020 103.5688598  37.0584091  81.6785263
 103.9782011  37.5381009  82.1445096 119.7860516  40.7020251  78.2822925
 119.5458738  39.8626666  78.2865352 120.2652523  40.7820418  79.0063699
 119.8212699  40.5901651  78.3897728 115.4507285  36.5354430  69.9341899
 114.9230303  36.6183174  69.2447607 115.9102993  37.2772301  69.9306543
 115.4409135  36.6575092  69.8316594 121.7865703  37.4821708  76.2352184
 121.5475473  37.4417542  75.3972969 121.9499604  38.3292860  76.3617905
 121.7756006  37.6013793  76.1305666 118.3911733  41.8671657  82.1657229
 119.1145932  41.4144184  81.9868249 118.1261695  42.1476323  81.3829557
 118.4593006  41.8422626  82.0235945 107.2598601  36.4631831  78.9010109
 106.6351671  36.4750223  78.2936061 106.9244196  36.9392006  79.5501349
 107.1184093  36.5350348  78.9066677 107.4440350  34.8056949  64.9582794
 107.0953154  35.4576675  65.4214343 106.9636796  34.7914063  64.2306665
 107.3210594  34.9000003  64.9193885 115.0044367  45.1057993  69.0651556
 115.7278566  45.5716106  68.9216129 114.5644958  45.1731603  68.3149153
 115.0460059  45.1841830  68.9336337 114.1730522  41.9655536  80.3152245
 113.5587515  41.4213586  80.6100880 114.6897807  41.4519772  79.8358061
 114.1586185  41.8091945  80.2876473 113.4126819  43.0359806  78.0496543
 112.9854427  42.4109524  77.6161979 113.4051764  42.7534728  78.8755550
 113.3485961  42.9012586  78.1076371 106.5289346  38.0724979  81.1184977
 106.6882833  37.3168303  81.5236699 106.3482240  38.6215918  81.7725715
 106.5254705  38.0418793  81.2747683 114.4709649  30.2386214  81.6735767
 113.9750211  30.4349889  80.9827333 115.2278711  30.6378883  81.5024568
 114.5096474  30.3263948  81.5455903 111.7412529  33.9128560  78.2639077
 111.7655016  33.3788673  77.5751857 111.9924003  33.4045869  78.9264668
 111.7822448  33.7589464  78.2603722 108.0213851  32.6399379  77.6444821
 108.0612223  33.1408585  78.3579529 107.1963516  32.7309772  77.3750745
 107.9053377  32.7281195  77.7095360 110.2043464  42.2060118  85.7465116
 109.3539095  42.3431833  85.8822761 110.3671592  41.4723897  86.1912818
 110.1027328  42.1174220  85.8320715 109.4428215  39.1559888  79.9418721
 108.6120144  39.3233706  79.7353969 109.3879732  38.7795839  80.7267606
 109.3117630  39.1249620  80.0267249 107.2511998  32.6468781  85.5775131
 107.8764701  32.1030914  85.8504563 106.7962478  32.1663699  85.0082922
 107.2760259  32.4958263  85.5336725 107.8164258  37.4315480  70.4708838
 107.9567220  37.9287944  71.1737480 108.3146791  36.7301774  70.6123052
 107.9105339  37.4017459  70.5960417 107.8464481  38.2982591  67.8001415
 108.4809560  38.8943016  67.7350877 107.9290092  37.9986049  68.6147285
 107.9521032  38.3423499  67.9104502 120.8247047  40.8298068  80.6687779
 121.4164887  41.4695319  80.7005977 121.2606041  40.1321105  80.9579846
 120.9765478  40.8216419  80.7168612 109.4243464  34.2296566  67.7746857
 109.7459305  33.7499649  67.1206119 109.6870407  35.0396212  67.5837669
 109.5109489  34.2786464  67.6502349 112.6540437  45.2515441  81.2945673
 112.1465528  45.8051287  81.7386304 112.3567083  45.3123731  80.4764448
 112.5345321  45.3421752  81.2394130 114.8202619  33.6168760  80.1370336
 115.2457690  33.1641287  79.5253863 114.2059612  33.0628831  80.4135124
 114.7931264  33.4682736  80.0875361 104.3517469  40.4950432  71.0690961
 104.8609698  41.0914939  71.4502267 104.8251741  40.2276405  70.3867381
 104.4960844  40.5436247  71.0245484 115.2648217  49.1678698  69.2249617
 114.5477527  48.9939561  68.7596854 115.9154954  48.9331271  68.6925103
 115.2550067  49.1074491  69.0778835 113.2596842  30.0883860  73.5460913
 112.6165160  29.9381506  74.1146052 112.9196249  29.8426205  72.7810018
 113.1141919  30.0295983  73.5163928 117.8496188  38.0443287  72.9690922
 117.1787378  38.5872989  72.8403987 118.5435938  38.5138142  72.7272617
 117.8525056  38.1941558  72.9146449 111.8982922  50.1839999  78.2002680
 111.6748576  49.4258828  78.5686706 111.4092765  50.2138020  77.4783120
 111.7926371  50.0762223  78.1479421 118.0124316  34.4999171  75.8781295
 118.3651926  34.0728893  76.5527094 117.1539117  34.4150014  76.0082371
 117.9373760  34.4243911  75.9976305 106.7108001  37.1306690  73.9364141
 105.9919990  37.5470823  74.2037005 107.0820363  37.6960929  73.3855780
 106.6599932  37.2755972  73.8946948 116.0107581  37.7634539  79.8266137
 115.9905509  37.5817834  80.6800916 116.0586782  38.6346558  79.8025721
 116.0142222  37.8651077  79.9489432 113.9553911  44.3521731  85.7514614
 113.9149766  43.7071408  85.1659770 114.7677229  44.2958348  86.0640026
 114.0697065  44.2480698  85.7111563 110.5461379  50.4040457  75.6539765
 110.1321777  49.7414587  75.2643606 111.2308753  50.5518316  75.1335459
 110.5859750  50.3281115  75.5196262 113.9126673  49.5630542  76.4063381
 113.5142956  49.6732813  75.6384201 113.2977892  49.7712609  76.9889941
 113.7625562  49.6104110  76.3794681 112.4854575  36.1704690  69.2737521
 111.8919414  36.4921687  68.7222088 112.5229853  35.3245786  69.0658627
 112.4028964  36.0929018  69.1620292 119.4448376  29.6217582  76.8065607
 118.9379240  28.9146722  76.7386785 120.2415809  29.2910771  76.9366684
 119.4875615  29.4690734  76.8164602 115.3612391  36.1284195  72.7039271
 115.1326084  36.1516896  71.8617629 115.6210468  35.3041662  72.8234282
 115.3658579  36.0100275  72.5964469 109.6431620  37.9818668  82.3064371
 109.1310523  37.3739851  82.6649403 109.4711116  38.6975260  82.7738347
 109.5421257  37.9981967  82.4280595 104.4897335  36.4256243  84.9566733
 104.3199925  37.0857618  84.4114940 104.0463284  36.6362804  85.6779222
 104.3996668  36.5542225  84.9828363 108.4157154  34.6660741  73.9993467
 108.8914520  35.0277821  73.3643648 107.9145754  35.3217208  74.2793610
 108.4122513  34.8154930  73.9470208 121.6468516  44.1382509  69.7906472
 122.0302121  44.8873865  70.0204569 120.8512629  44.3848329  69.5318461
 121.5862298  44.2852203  69.7864045 113.5200690  35.9042912  84.7466627
 114.0772120  35.6756722  84.1145092 113.1961755  36.6648578  84.4701839
 113.5547100  35.9826749  84.6123124 111.2383807  38.9910566  85.7118634
 111.9895134  39.3062242  86.0258188 111.4306384  38.7889737  84.8852556
 111.3775222  39.0077947  85.6362030 110.4583807  36.8101941  67.3666851
 110.8382772  36.8281570  66.5817966 109.7176403  37.2555930  67.2457698
 110.4052645  36.8783715  67.2330419 118.0869098  35.1184132  72.9542429
 118.0863324  34.9632788  73.8126706 117.8825278  35.9647119  72.8983815
 118.0568875  35.2204753  73.0730369 115.8109950  39.7981634  76.6078636
 116.3063615  39.0804629  76.5682657 115.0009725  39.4952431  76.4933123
 115.7653843  39.6479280  76.5852362 111.2568561  43.6479447  68.7575641
 110.4479884  43.3246120  68.7108950 111.7643470  42.9412669  68.6903889
 111.2118228  43.4960763  68.7405935 117.8761769  42.5485321  79.2955765
 118.3016840  42.0259743  78.7426190 117.5118688  43.1466159  78.7744388
 117.8848371  42.5595548  79.1364775 107.5115848  50.8449539  78.0553111
 107.8262407  51.6585927  78.0630892 107.9209262  50.4599757  78.7235270
 107.6183946  50.9078241  78.1557202 114.4640368  46.2619585  75.6256923
 114.9351546  46.9759848  75.7946908 114.8000547  45.6618336  76.1616792
 114.5835483  46.2791050  75.7289298 116.5517353  47.8720899  87.8048995
 116.6614318  47.0829459  88.1605742 116.8808249  47.7826835  87.0023333
 116.6169758  47.7426752  87.7391385 111.3809863  31.0347056  82.5815017
 111.5137769  30.2378049  82.9095993 111.7655016  31.5613459  83.1613293
 111.4566192  30.9946973  82.7158520 115.1014314  46.0537520  82.3884615
 114.5535260  45.4295403  82.1204680 115.5627343  46.2431792  81.6728695
 115.0881524  45.9896570  82.2435046 114.4542218  27.9577382  79.1796111
 113.6488182  27.8475112  79.4963949 114.3248954  28.0589838  78.3225976
 114.3162351  27.9561052  79.1004151 117.9108179  34.1222874  79.7735808
 117.3271167  34.6232081  79.3613375 118.2312473  33.6152430  79.1400131
 117.8721354  34.1214709  79.6194315 110.4502978  33.0363469  70.0494482
 111.2718672  33.2061782  69.8076177 109.9872629  33.1910730  69.3260780
 110.5034140  33.0845202  69.9066127 109.0398310  31.0306231  80.8292911
 109.5842723  30.6897358  81.4197253 109.0935245  31.8891693  80.9714196
 109.1287429  31.1061490  80.9374784 114.6672641  47.0588592  78.9193956
 115.4871014  46.9151558  79.1810252 114.3866718  47.6834791  79.4610394
 114.7469384  47.1298944  79.0381896 124.3385976  53.8029095  76.6389763
 123.4823871  53.9637593  76.6898880 124.3853630  52.9321159  76.6594824
 124.2185087  53.6979897  76.6495829 118.7227116  63.3391813  72.4026995
 117.9710015  62.9607351  72.1743040 119.1713127  63.3710247  71.6545805
 118.6776782  63.2877420  72.2584497 124.1752075  63.7617182  67.8312542
 123.8403444  64.4394104  67.3956764 124.6878946  63.3722494  67.2429413
 124.2017657  63.8041761  67.6799333 123.7156367  65.7131451  73.7723653
 124.0995746  66.2818350  73.2328429 123.6515508  64.9880961  73.2929469
 123.7629794  65.6906915  73.6217516 120.3011872  63.3510205  74.6689767
 120.4022235  62.5410559  74.9786895 119.7053617  63.2567151  74.0389446
 120.2284410  63.2175233  74.6216006 120.1412611  68.2687794  76.0704623
 120.7850067  68.7100958  76.4600782 120.4668867  67.4641220  75.9834882
 120.2844440  68.2152989  76.1150101 113.4976916  59.3730492  74.2942101
 113.2627100  58.5398144  74.1874370 113.6362557  59.6535157  73.4803302
 113.4832578  59.2913995  74.1584456 115.7967003  51.5416222  77.1926409
 115.1772035  50.9508869  77.0236423 115.6950867  52.1327657  76.5590732
 115.6904679  51.5420305  77.0731398 120.8433191  61.2799769  71.4424485
 121.1649032  61.8204976  70.8385793 121.4905288  60.7096540  71.5746775
 120.9859246  61.2758944  71.3731520 122.8934899  53.2815764  71.5258872
 123.5915064  53.4603892  72.0180335 123.2087232  52.7586103  70.9029261
 123.0430236  53.2309536  71.5060882 115.5236136  55.0868504  79.4369978
 115.3994833  55.6730949  80.0719796 116.1754421  54.5928700  79.7382253
 115.6009786  55.1007308  79.5755907 123.0822834  59.6686209  71.5138663
 123.5216470  59.0603310  71.9593436 122.9327497  59.2893582  70.7424128
 123.1244300  59.5224680  71.4657831 120.5494477  58.2630221  78.7157489
 121.1943480  57.7702664  78.3968437 120.7896255  58.4055007  79.5423567
 120.6805063  58.2107663  78.7907022 123.0880569  61.1085127  78.3664381
 123.3703812  60.3136532  78.1451137 123.8166729  61.5865714  78.3869442
 123.2370133  61.0619724  78.3367396 121.0661763  48.6508161  75.6080146
 120.7365093  49.1019304  74.9383845 120.3906764  48.5724324  76.1553153
 120.9172199  48.7059296  75.5903370 119.5050212  58.5361401  68.7674636
 118.9207427  59.0411433  69.1740499 119.1020307  58.3103788  68.0271228
 119.3589516  58.5769650  68.7179661 115.0594241  64.2516162  75.5698307
 114.5761819  64.9766652  75.5457891 115.8717559  64.5492292  75.6808465
 115.1084988  64.4018516  75.5825586 121.1308395  63.0448343  78.1748122
 120.6135336  62.6855758  77.5709430 121.8282786  62.5210518  78.1854188
 121.1573976  62.9146031  78.0878380 124.7871987  63.4943157  84.1364295
 124.8755333  63.3069298  84.9842505 125.2161699  62.8480587  83.7369141
 124.8634089  63.3706165  84.2036046 122.3542446  62.7774317  83.1181957
 121.7913281  62.3646927  83.6421618 123.1163470  62.7027223  83.5375100
 122.3836895  62.7051718  83.2574957 123.9627426  54.7827053  67.2443556
 124.2023430  54.9905037  66.4318899 124.2843267  53.9784562  67.3532501
 124.0464584  54.6941155  67.1404109 119.2717717  46.7120449  71.0903094
 120.0263685  47.0798766  70.8520144 119.0945251  47.0860003  71.8582274
 119.3572195  46.8218637  71.1687983 117.9138438  64.7672338  75.7218587
 118.6159017  64.2524327  75.7791343 117.8335921  65.0946490  76.5265462
 118.0062198  64.7386565  75.8491379 118.9617345  55.0047925  84.8499002
 119.1337848  54.8953820  85.6984283 119.4986702  55.6502331  84.6130194
 119.0662348  55.0839927  84.9404099 117.6274781  49.1190768  67.7881207
 117.4450355  49.3362649  66.9622200 118.4900394  49.2329781  67.8439821
 117.7279371  49.1680666  67.6735694 117.2389213  60.9578690  75.2304195
 118.0778113  61.1901623  75.2777957 117.2700983  60.0883002  75.1611230
 117.3670931  60.8635637  75.2268840 117.8641916  61.3779566  79.5317500
 118.4040141  61.2350697  80.2020873 117.1811863  61.7776316  79.9001527
 117.8434070  61.4159236  79.6851922 123.3074501  46.1217179  70.8230231
 124.0360661  45.9433134  70.3768387 123.3969393  46.9635259  71.0337409
 123.4281163  46.2201057  70.7883749 124.8992046  62.9252176  86.8008078
 125.6832463  63.0383024  87.1663820 124.6988641  62.0993313  86.9966764
 124.9858071  62.8198896  86.8842464 113.2679061  57.5979856  79.6851922
 113.0017477  56.7818973  79.8442912 113.2817626  57.6433012  78.8147438
 113.2303784  57.4836761  79.5805404 117.1736808  52.3964941  66.3003680
 116.4594986  52.1103120  66.7126113 117.6580777  52.7361567  66.9410068
 117.1396172  52.4046590  66.4559315 118.0177668  51.1358235  82.3318930
 117.3249465  50.6655214  82.5779661 118.6337995  50.9096539  82.9060637
 118.0062198  51.0325366  82.4528082 125.0562439  64.8362278  80.4474534
 124.2577685  64.5961778  80.7048402 125.5048451  64.8876671  81.1941581
 125.0037051  64.8084669  80.5959458 124.3484126  60.8994895  66.6765488
 124.7635275  60.5679919  65.9849984 123.5176056  60.6663797  66.5485625
 124.2872135  60.8166151  66.5556336 113.6772475  58.3838636  76.9663666
 113.4948048  58.3585522  76.1135958 114.4122144  58.8537574  77.0052575
 113.7586539  58.4499998  76.8461585 116.7418227  55.1023639  83.4745775
 117.4658199  55.0876669  83.9610670 116.8434363  55.8118994  82.9767743
 116.8636436  55.2048342  83.4724562 124.1163176  58.5822723  88.3394722
 123.3236157  58.8966235  88.5247342 124.2312103  58.7974192  87.5015507
 124.0158587  58.6606560  88.2433057 125.0446969  58.4842927  83.2780019
 125.6185831  57.8470171  83.4328583 124.9661773  58.4847009  82.4089676
 125.1180204  58.3908038  83.1726430 113.6443385  55.2632136  77.1162733
 114.2216888  55.1268587  77.7554978 112.9457447  54.8067921  77.3708317
 113.6264407  55.1754403  77.2485023 120.4010688  56.9166192  75.3301216
 120.1429932  56.0837927  75.3032516 120.4559170  57.1423805  74.4893716
 120.3710465  56.8263963  75.2021353 125.4811738  49.0194643  75.4305309
 124.7768064  48.5303828  75.5889228 125.5296712  49.0317117  74.5593753
 125.3841789  48.9484291  75.3244649 119.3745400  54.4703955  75.8166111
 118.7994991  54.6296123  76.4530072 118.9981076  53.8339364  75.3534561
 119.2348212  54.4001767  75.8420669 123.0418688  52.9427304  80.6758489
 122.6533121  52.5181522  80.0210680 122.3773387  53.1909453  81.1835516
 122.8865616  52.9166025  80.6546357 109.1202219  54.1144029  73.8310551
 109.2062470  53.7375898  74.6124081 109.7478016  53.7404475  73.3530510
 109.2258770  54.0029511  73.8756029 124.1457627  57.1725908  68.8735296
 124.9598265  57.4640801  68.7618068 124.0816768  56.5185771  68.2993589
 124.2560366  57.1191103  68.7724134 120.0165535  60.6447426  74.0007608
 120.6539482  60.4059173  74.5459402 120.4420606  60.8484585  73.2660769
 120.1741701  60.6398436  73.9724766 114.7078177  62.8835762  77.8841912
 114.7482323  63.1550613  77.0561692 115.2672701  63.4077670  78.2999700
 114.7961523  63.0011517  77.8233800 120.6568350  55.8649716  68.3382498
 121.0413503  55.6457422  69.0899043 120.4079970  56.6912661  68.4683574
 120.6770423  55.9547862  68.4683574 120.8236890  49.1456131  88.0545082
 120.5090331  49.9155694  87.7914645 120.5026823  48.5826387  87.4697309
 120.7295809  49.1766399  87.9286432 122.3987007  61.1219848  75.6801395
 122.4726015  60.9595020  76.5343244 123.2156513  61.3110038  75.4361876
 122.5303365  61.1256591  75.7699420 116.1592764  61.4677711  72.7095838
 115.3330881  61.7139448  72.5830117 116.2204755  61.3889792  73.5757896
 116.0466931  61.4922660  72.8184782 118.3768787  47.5346652  73.6691278
 117.5091213  47.6069252  73.7348887 118.6643992  48.3368731  73.8579253
 118.2908535  47.6640799  73.7066045 120.9391593  64.0854592  70.4114868
 121.2289891  63.6943573  69.6874095 121.6695073  64.2671296  70.8520143
 121.0898477  64.0548405  70.3697675 121.5286338  58.8872337  81.4967998
 121.0298031  59.5988105  81.5752887 122.3386562  59.2073004  81.4586161
 121.5742444  59.0399186  81.5024567 118.8797508  66.0621974  73.4775018
 118.6597804  65.7719329  74.2701685 118.6592030  65.4036929  72.9492930
 118.8145102  65.9221682  73.5163926 117.7914455  58.1495290  75.7430719
 117.5027704  57.5232762  76.2776447 118.6597803  58.0915578  75.8095400
 117.8774707  58.0482835  75.8321674 121.0465464  67.4351364  72.2605710
 121.6989522  66.9027806  72.4896736 120.3491073  67.0820016  72.6473584
 121.0396182  67.3040887  72.3517878 117.9946729  59.7890542  71.6673084
 118.7492697  60.1703581  71.8808547 117.4017341  60.2401685  72.1219781
 118.0183442  59.9119369  71.7655963 120.4553396  51.7453382  86.7930297
 119.6453172  52.0511162  86.6820139 120.9328082  52.4658964  86.9082881
 120.4056875  51.8967983  86.7937368 119.3144955  60.9599103  77.0413200
 118.7925709  61.0999395  77.7265064 119.7018976  60.2009767  77.2315317
 119.2948656  60.8684627  77.1714276 116.3036139  51.0104912  71.1108154
 116.0160935  50.6406182  70.3740102 116.9906608  51.4799767  70.8491859
 116.3625037  51.0251881  70.9623230 125.5111960  62.6994562  71.0273769
 125.2698636  61.9662423  70.6200834 125.6913293  63.2481419  70.3740102
 125.5019584  62.6716953  70.8703991 120.7411281  57.9903122  72.4394691
 120.5454064  58.5977856  71.8454994 120.9645627  57.2971066  71.9586365
 120.7445922  57.9780647  72.2810772 119.1389811  54.8757860  72.5575559
 119.8612463  55.0399018  72.0979365 118.6597804  55.5967525  72.4514899
 119.1753542  55.0056089  72.4741173 116.7897428  57.2815932  81.6629699
 117.3018525  57.5600185  81.0138459 116.5033770  58.0205226  82.0292512
 116.8232291  57.4318286  81.6219577 113.8764334  51.7886124  71.9593436
 113.9780470  52.5912285  72.2874411 114.6720221  51.5873460  71.6616516
 114.0092240  51.8772023  71.9628791 120.3081153  49.3742321  81.7230741
 120.1164350  49.3897455  82.5730164 121.1579749  49.5705995  81.6997395
 120.4056875  49.4056672  81.8454035 114.6928066  51.9033302  79.7014557
 114.5513558  51.0517243  79.8259065 114.9768629  51.9461963  78.8776763
 114.7135912  51.7833052  79.5982181 124.8466658  53.7400392  73.8459045
 124.6001373  53.6596143  74.6795834 125.1751782  52.9553860  73.6521573
 124.8587902  53.6126658  73.9406568 120.8063686  56.4757111  83.2582028
 120.9507061  57.0558319  82.6225138 121.1539334  56.8533408  83.9631883
 120.8791147  56.6177815  83.2681023 122.9783603  55.6747279  81.0407160
 122.2306917  55.8678294  80.6355438 123.1325128  54.8492499  80.8031281
 122.8906031  55.5812391  80.9452566 119.8791441  64.6659883  80.1243055
 120.0281004  64.1062799  79.4716460 120.6591443  64.7451885  80.5075574
 120.0165534  64.5945448  80.0840004 122.4044741  64.8374526  81.4027546
 122.3288412  64.1683336  81.9578334 122.3334600  65.5392314  81.9168212
 122.3825348  64.8419433  81.5604394 123.2185380  49.5697830  81.9302564
 123.6757994  50.3021804  82.0575356 123.2941709  49.1464295  82.6889820
 123.2976350  49.6155068  82.0603640 115.4618371  49.8163650  83.0192007
 114.9260561  49.2044008  83.3352775 115.5236136  50.3911786  83.6725674
 115.3914004  49.8110578  83.1627434 123.0614988  63.3575525  72.2351152
 123.8264879  63.0885168  71.9133816 122.9593078  62.8725535  72.9521215
 123.1596484  63.2465089  72.2930980 121.0967758  51.5599934  78.7744388
 120.3063833  51.3791394  79.0961724 121.4928381  50.7826887  78.7574682
 121.0384634  51.4187395  78.8196936 123.6105588  54.0360193  83.2567887
 123.5464730  54.8970150  83.1288023 123.7502776  53.7192186  82.4563438
 123.6221058  54.1160360  83.1196100 122.2924682  56.7292333  77.3984090
 121.8686931  56.9296832  76.6623108 122.1169537  55.8821181  77.5108389
 122.2035563  56.6341114  77.3057780 121.7936376  68.2442846  79.8605547
 122.2832306  67.5453635  79.6781212 121.2220608  67.9466716  80.4481604
 121.7820906  68.0969069  79.9206588 117.5807127  57.2244384  72.8312062
 117.7371746  57.1591187  73.6868054 117.9207720  57.9992937  72.6190742
 117.6540362  57.3293582  72.9266656 124.1186272  56.6002268  71.7005425
 124.6601817  56.0972649  72.1644046 124.4332831  56.5467462  70.8894911
 124.2450669  56.5181688  71.6489237 122.2872722  61.9919619  68.9845453
 122.3565542  61.1334158  69.1238454 123.0661177  62.2091500  68.6564478
 122.4125572  61.8972483  68.9562611 125.2675541  51.4938572  81.7527726
 125.4817511  50.8549486  81.1991080 124.6509440  51.9384396  81.3235588
 125.2080870  51.4648716  81.6078157 114.1541389  54.4079334  73.1472829
 114.5340354  54.8263879  72.4833097 113.5796753  54.9892790  73.4541673
 114.1252714  54.5557193  73.0949570 124.6590270  44.6038508  76.7415069
 123.7883828  44.5777229  76.6948378 124.9130611  44.4315700  75.9240914
 124.5683830  44.5748651  76.6135205 121.6308249  56.6606475  65.6788212
 121.9200774  57.4371357  65.9531786 121.7180048  56.1495206  66.3802711
 121.6862506  56.6998393  65.8230709 124.5268137  54.5087709  87.4739735
 124.9967768  55.1329825  87.8607609 124.5730017  53.8404684  88.0332950
 124.6036013  54.5022389  87.6139807 121.6839410  46.6144736  78.1988539
 121.1677899  45.9224928  78.3240118 121.1233339  47.2815513  78.1451138
 121.5245924  46.6107994  78.2094605 123.7531644  47.1537696  80.0281392
 123.3663397  47.1786728  80.8094921 123.2664581  46.5879375  79.5755908
 123.6244153  47.0733447  80.0769295 123.4188786  44.0404682  82.3191651
 124.0481903  44.5764982  82.0412722 123.5874648  43.9482041  83.1705217
 123.5366580  44.1066044  82.4040180 123.2202700  48.8275876  84.5918063
 124.0476130  48.5561025  84.6476678 123.2410546  49.6236718  84.9481881
 123.3455550  48.9055631  84.6533246 117.7972190  55.9739739  77.7788324
 116.9560197  55.8743613  77.9867218 118.0062198  56.7435219  78.1302644
 117.7036883  56.0731783  77.8615639 115.2747757  53.5959276  75.6073074
 114.8804455  53.6702288  74.8323184 114.7187874  53.9817222  76.1581436
 115.1350570  53.6641051  75.5740734 121.6088855  53.9021138  77.0285921
 121.3051993  53.3477127  77.6296329 120.9068276  54.0813348  76.5413955
 121.4605065  53.8465921  77.0455627 120.6654952  51.2121658  71.5930623
 120.9414687  50.4940571  71.1808191 121.2653622  51.8106578  71.3851729
 120.7948217  51.1942029  71.5011384 119.6707206  61.1170859  81.7358019
 119.5627561  61.1272921  82.6020077 119.8802988  61.9425639  81.5462973
 119.6857317  61.2411934  81.8362111 124.1665473  48.8835176  69.8677218
 124.6209219  49.0545736  70.5925063 124.6405518  48.2703286  69.4674994
 124.3033793  48.8186061  69.9150980 117.6880998  58.3683502  79.1979957
 117.0968931  59.0093000  79.1682972 118.4502022  58.7921119  79.1711256
 117.7129259  58.5259340  79.1895104 118.0841621  49.5285499  79.8647974
 118.5443102  49.6024429  80.6023098 118.1297728  50.3266753  79.5147796
 118.1592176  49.6579646  79.9220731 119.7324971  50.1952194  84.4320001
 119.3410536  49.5485541  84.8675779 119.9010833  50.7863629  85.0514257
 119.6995881  50.1866462  84.5882707 121.5078493  55.5877710  70.9722225
 122.2520538  55.9751986  71.2105175 121.6539189  54.7435135  71.1362713
 121.6389078  55.5208183  71.0316195 123.4258068  47.3827969  76.0054087
 122.5794113  47.5550777  75.8795437 123.4229201  46.5777313  76.3419915
 123.3005218  47.2888998  76.0365214 124.4956369  51.1603183  76.8716145
 124.0216323  50.6344945  77.3821456 124.8674504  50.6132656  76.3031006
 124.4806257  51.0019180  76.8631292 114.8729399  53.1574690  82.2399690
 115.7355012  53.0570399  82.1537020 114.5421182  52.5769399  81.6785263
 114.9514595  53.0566317  82.1445096 118.2331185  51.9817139  78.9010109
 117.6084255  51.9935531  78.2936061 117.8976780  52.4577314  79.5501349
 118.0916677  52.0535656  78.9066677 118.4172933  50.3242257  64.9582794
 118.0685738  50.9761983  65.4214343 117.9369379  50.3099370  64.2306665
 118.2943177  50.4185311  64.9193885 114.9456860  60.0417599  80.3413873
 114.4156785  59.3510038  80.3908848 115.2181954  60.0327784  79.5126581
 114.9081583  59.9384731  80.2261289 125.1463106  57.4840844  80.3152245
 124.5320099  56.9398894  80.6100880 125.6630391  56.9705080  79.8358061
 125.1318768  57.3277253  80.2876473 124.3859403  58.5545114  78.0496543
 123.9587011  57.9294832  77.6161979 124.3784347  58.2720036  78.8755550
 124.3218544  58.4197894  78.1076371 117.5021930  53.5910287  81.1184977
 117.6615417  52.8353611  81.5236699 117.3214824  54.1401226  81.7725715
 117.4987289  53.5604100  81.2747683 122.7145113  49.4313868  78.2639077
 122.7387600  48.8973980  77.5751857 122.9656586  48.9231177  78.9264668
 122.7555031  49.2774772  78.2603722 110.2252702  56.7145363  77.6982221
 110.1196152  56.6692208  76.8334305 109.4752922  57.0599144  77.9796506
 110.0988305  56.7586271  77.6119551 118.9946435  48.1584686  77.6444821
 119.0344806  48.6593893  78.3579529 118.1696100  48.2495080  77.3750745
 118.8785961  48.2466503  77.7095360 121.1776048  57.7245426  85.7465116
 120.3271678  57.8617141  85.8822761 121.3404175  56.9909205  86.1912818
 121.0759911  57.6359528  85.8320715 120.4160798  54.6745196  79.9418721
 119.5852728  54.8419014  79.7353969 120.3612315  54.2981147  80.7267606
 120.2850213  54.6434928  80.0267249 118.2244581  48.1654089  85.5775131
 118.8497285  47.6216222  85.8504563 117.7695061  47.6849007  85.0082922
 118.2492842  48.0143571  85.5336725 118.7896842  52.9500788  70.4708838
 118.9299803  53.4473252  71.1737480 119.2879375  52.2487082  70.6123052
 118.8837923  52.9202767  70.5960417 118.8197064  53.8167899  67.8001415
 119.4542144  54.4128324  67.7350877 118.9022675  53.5171356  68.6147285
 118.9253615  53.8608807  67.9104502 120.3976047  49.7481874  67.7746857
 120.7191888  49.2684957  67.1206119 120.6602991  50.5581520  67.5837669
 120.4842073  49.7971772  67.6502349 123.6273020  60.7700749  81.2945673
 123.1198111  61.3236595  81.7386304 123.3299666  60.8309038  80.4764448
 123.5077905  60.8607060  81.2394130 115.3250052  56.0135740  71.0690961
 115.8342282  56.6100247  71.4502267 115.7984325  55.7461713  70.3867381
 115.4693428  56.0621555  71.0245484 124.2329425  45.6069168  73.5460913
 123.5897743  45.4566814  74.1146052 123.8928832  45.3611513  72.7810018
 124.0874502  45.5481290  73.5163928 122.8715505  65.7025307  78.2002680
 122.6481160  64.9444136  78.5686706 122.3825349  65.7323328  77.4783120
 122.7658954  65.5947531  78.1479421 117.6840584  52.6491998  73.9364141
 116.9652573  53.0656131  74.2037005 118.0552946  53.2146237  73.3855780
 117.6332516  52.7941280  73.8946948 124.9286495  59.8707039  85.7514614
 124.8882350  59.2256716  85.1659770 125.7409813  59.8143656  86.0640026
 125.0429648  59.7666006  85.7111563 121.5193962  65.9225765  75.6539765
 121.1054361  65.2599895  75.2643606 122.2041337  66.0703624  75.1335459
 121.5592334  65.8466423  75.5196262 124.8859256  65.0815850  76.4063381
 124.4875540  65.1918121  75.6384201 124.2710476  65.2897917  76.9889941
 124.7358146  65.1289418  76.3794681 123.4587158  51.6889998  69.2737521
 122.8651998  52.0106995  68.7222088 123.4962436  50.8431093  69.0658627
 123.3761548  51.6114326  69.1620292 120.6164203  53.5003976  82.3064371
 120.1043107  52.8925159  82.6649403 120.4443700  54.2160568  82.7738347
 120.5153840  53.5167275  82.4280595 115.4629918  51.9441551  84.9566733
 115.2932508  52.6042926  84.4114940 115.0195868  52.1548112  85.6779222
 115.3729252  52.0727533  84.9828363 119.3889738  50.1846049  73.9993467
 119.8647104  50.5463129  73.3643648 118.8878337  50.8402516  74.2793610
 119.3855097  50.3340238  73.9470208 124.4933274  51.4228220  84.7466627
 125.0504704  51.1942030  84.1145092 124.1694339  52.1833886  84.4701839
 124.5279684  51.5012057  84.6123124 112.3631983  54.8488416  80.2155223
 111.8158702  54.1789062  80.3336091 113.1524361  54.4818264  80.2798690
 112.3984166  54.6953403  80.2423924 122.2116391  54.5095874  85.7118634
 122.9627718  54.8247550  86.0258188 122.4038968  54.3075044  84.8852556
 122.3507805  54.5263255  85.6362030 121.4316391  52.3287249  67.3666851
 121.8115356  52.3466878  66.5817966 120.6908987  52.7741237  67.2457698
 121.3785228  52.3969023  67.2330419 111.1218952  54.0609224  77.3701246
 110.9440713  53.6085833  78.0956162 110.8337974  54.8635386  77.5539724
 111.0531905  54.1131782  77.5044749 122.2301145  59.1664755  68.7575641
 121.4212467  58.8431428  68.7108950 122.7376054  58.4597977  68.6903889
 122.1850812  59.0146071  68.7405935 112.8591422  56.5936948  74.4823005
 111.9936942  56.5822638  74.3705776 112.9590238  56.4067171  75.3294144
 112.7465589  56.5643009  74.5911950 118.4848432  66.3634847  78.0553111
 118.7994991  67.1771235  78.0630892 118.8941845  65.9785065  78.7235270
 118.5916530  66.4263549  78.1557202 122.3542447  46.5532364  82.5815017
 122.4870352  45.7563357  82.9095993 122.7387599  47.0798767  83.1613293
 122.4298775  46.5132281  82.7158520 125.4274802  43.4762690  79.1796111
 124.6220765  43.3660420  79.4963949 125.2981537  43.5775146  78.3225976
 125.2894935  43.4746360  79.1004151 121.4235561  48.5548777  70.0494482
 122.2451256  48.7247090  69.8076177 120.9605212  48.7096038  69.3260780
 121.4766724  48.6030510  69.9066127 120.0130893  46.5491539  80.8292911
 120.5575306  46.2082666  81.4197253 120.0667829  47.4077001  80.9714196
 120.1020013  46.6246798  80.9374784 115.8261452  60.3107955  77.7031719
 116.4306309  60.2703789  77.0745540 115.6188765  61.1579107  77.7335775
 115.8850349  60.4295958  77.6147836 111.0612734  59.2942573  77.5730642
 110.9637012  58.4838844  77.8820699 111.8441604  59.2734366  77.1876910
 111.1628871  59.1709663  77.5617505 124.4709500  74.8915800  74.2942101
 124.2359684  74.0583452  74.1874370 124.6095140  75.1720465  73.4803302
 124.4565162  74.8099303  74.1584456 124.2411645  73.1165164  79.6851922
 123.9750060  72.3004281  79.8442912 124.2550209  73.1618320  78.8147438
 124.2036367  73.0022069  79.5805404 124.6505059  73.9023944  76.9663666
 124.4680632  73.8770830  76.1135958 125.3854728  74.3722881  77.0052575
 124.7319123  73.9685306  76.8461585 124.6175969  70.7817444  77.1162733
 125.1949472  70.6453895  77.7554978 123.9190031  70.3253228  77.3708317
 124.5996990  70.6939711  77.2485023 120.0934802  69.6329337  73.8310551
 120.1795054  69.2561206  74.6124081 120.7210600  69.2589783  73.3530510
 120.1991353  69.5214819  73.8756029 124.8496918  67.3071432  71.9593436
 124.9513054  68.1097593  72.2874411 125.6452804  67.1058768  71.6616516
 124.9824823  67.3957331  71.9628791 125.1273972  69.9264642  73.1472829
 125.5072937  70.3449187  72.4833097 124.5529337  70.5078098  73.4541673
 125.0985297  70.0742501  73.0949570 121.1985286  72.2330671  77.6982221
 121.0928735  72.1877515  76.8334305 120.4485506  72.5784452  77.9796506
 121.0720889  72.2771579  77.6119551 123.3364566  70.3673724  80.2155223
 122.7891286  69.6974370  80.3336091 124.1256944  70.0003572  80.2798690
 123.3716750  70.2138711  80.2423924 122.0951536  69.5794532  77.3701246
 121.9173297  69.1271141  78.0956162 121.8070558  70.3820694  77.5539724
 122.0264489  69.6317090  77.5044749 123.8324006  72.1122256  74.4823005
 122.9669525  72.1007946  74.3705776 123.9322821  71.9252479  75.3294144
 123.7198173  72.0828317  74.5911950 122.0345318  74.8127881  77.5730642
 121.9369596  74.0024152  77.8820699 122.8174188  74.7919674  77.1876910
 122.1361454  74.6894971  77.5617505  96.4712772   9.2399328  59.3367042
  95.7195672   8.8614867  59.1083087  96.9198784   9.2717762  58.5885852
  96.4262439   9.1884935  59.1924544 101.4642024  11.6138966  60.7063700
 101.8481403  12.1825865  60.1668475 101.4001165  10.8888477  60.2269516
 101.5115451  11.5914430  60.5557563  97.8898268  14.1695310  63.0044670
  98.5335724  14.6108474  63.3940829  98.2154524  13.3648736  62.9174929
  98.0330097  14.1160504  63.0490147  92.8079897  10.1523678  62.5038354
  92.3247476  10.8774167  62.4797937  93.6203216  10.4499808  62.6148512
  92.8570645  10.3026031  62.5165633  95.6624095  10.6679854  62.6558634
  96.3644674  10.1531843  62.7131390  95.5821578  10.9954005  63.4605509
  95.7547855  10.6394080  62.7831426  92.4563834   8.7843278  64.8181959
  92.4967979   9.0558129  63.9901738  93.0158358   9.3085186  65.2339747
  92.5447180   8.9019033  64.7573847  98.6877249   9.9862107  57.3454915
  98.9775548   9.5951088  56.6214141  99.4180730  10.1678812  57.7860190
  98.8384134   9.9555921  57.3037722  96.6283165  11.9629489  60.4115064
  96.4083460  11.6726844  61.2041731  96.4077687  11.3044444  59.8832977
  96.5630759  11.8229198  60.4503973  98.7951121  13.3358879  59.1945757
  99.4475179  12.8035322  59.4236783  98.0976729  12.9827532  59.5813631
  98.7881839  13.2048402  59.2857925  97.6277098  10.5667398  67.0583102
  97.7766661  10.0070314  66.4056507  98.4077100  10.6459400  67.4415621
  97.7651191  10.4952964  67.0180051 100.1530398  10.7382041  68.3367593
 100.0774069  10.0690852  68.8918381 100.0820257  11.4399829  68.8508259
 100.1311005  10.7426948  68.4944441  99.5422032  14.1450361  66.7945594
 100.0317963  13.4461150  66.6121258  98.9706265  13.8474231  67.3821651
  99.5306562  13.9976584  66.8546635 100.6201162  11.6032822  65.1342727
 100.3966817  10.8451651  65.5026753 100.1311005  11.6330843  64.4123167
 100.5144611  11.4955047  65.0819468  99.2679619  11.8233280  62.5879811
  98.8540018  11.1607410  62.1983653  99.9526993  11.9711139  62.0675506
  99.3077991  11.7473938  62.4536309 102.6344913  10.9823366  63.3403428
 102.2361196  11.0925636  62.5724248 102.0196133  11.1905432  63.9229988
 102.4843803  11.0296934  63.3134727  96.2334089  12.2642362  64.9893157
  96.5480648  13.0778750  64.9970939  96.6427502  11.8792581  65.6575317
  96.3402187  12.3271064  65.0897249 113.0604216  15.2221918  63.5729810
 112.2042112  15.3830417  63.6238927 113.1071870  14.3513982  63.5934871
 112.9403328  15.1172720  63.5835876 107.4445356  24.7584636  59.3367042
 106.6928255  24.3800174  59.1083087 107.8931368  24.7903070  58.5885852
 107.3995023  24.7070243  59.1924544 116.3697933  21.4908444  73.1790266
 117.0764700  20.9960475  73.3077201 116.5585868  21.9317525  72.4492924
 116.5025838  21.4826794  73.0899312 112.8970316  25.1810006  54.7652589
 112.5621684  25.8586927  54.3296811 113.4097186  24.7915317  54.1769460
 112.9235897  25.2234584  54.6139380 112.4374607  27.1324274  60.7063700
 112.8213986  27.7011173  60.1668475 112.3733748  26.4073785  60.2269516
 112.4848034  27.1099738  60.5557563 115.9056037  17.2813962  66.2161462
 116.4511997  17.9599049  66.2755431 115.8472914  17.1401423  65.3563043
 115.9771952  17.3605964  66.0973522 109.0230112  24.7703028  61.6029814
 109.1240475  23.9603382  61.9126942 108.4271857  24.6759975  60.9729493
 108.9502651  24.6368056  61.5556053 117.6821106  18.7098569  57.0895189
 117.5660632  19.4606255  57.5187328 118.4776993  18.4522523  57.3391276
 117.7825695  18.7833416  57.1899281 108.8630852  29.6880617  63.0044670
 109.5068307  30.1293782  63.3940829 109.1887107  28.8834044  62.9174929
 109.0062680  29.6345812  63.0490147 102.2195156  20.7923315  61.2282148
 101.9845341  19.9590967  61.1214417 102.3580797  21.0727981  60.4143349
 102.2050819  20.7106818  61.0924503 104.5185244  12.9609045  64.1266455
 103.8990275  12.3701693  63.9576470 104.4169107  13.5520481  63.4930779
 104.4122919  12.9613128  64.0071445 109.5651431  22.6992592  58.3764532
 109.8867272  23.2397800  57.7725840 110.2123528  22.1289364  58.5086822
 109.7077487  22.6951767  58.3071567 111.6153139  14.7008587  58.4598919
 112.3133304  14.8796715  58.9520382 111.9305472  14.1778927  57.8369308
 111.7648477  14.6502359  58.4400929 104.2454377  16.5061327  66.3710024
 104.1213074  17.0923773  67.0059843 104.8972661  16.0121523  66.6722299
 104.3228026  16.5200132  66.5095954 111.8041075  21.0879032  58.4478710
 112.2434710  20.4796133  58.8933483 111.6545738  20.7086406  57.6764175
 111.8462541  20.9417503  58.3997877 109.2712718  19.6823044  65.6497536
 109.9161720  19.1895487  65.3308484 109.5114495  19.8247831  66.4763614
 109.4023303  19.6300486  65.7247069 111.8098809  22.5277950  65.3004428
 112.0922052  21.7329356  65.0791184 112.5384970  23.0058537  65.3209489
 111.9588373  22.4812547  65.2707443 115.4050411  19.4406214  55.4009479
 115.3201707  20.2967180  55.5459048 115.8934795  19.1650538  56.0691638
 115.4639309  19.5263535  55.5211561 116.3368845  16.0591008  56.9007214
 115.8080316  16.2750641  57.5604521 116.8593865  16.7527146  56.8208184
 116.3357298  16.1934145  56.9862814 121.7916898  21.6337312  62.2740259
 120.9614601  21.8447956  62.4373675 121.7426150  20.8074367  61.9982542
 121.6623633  21.5426919  62.2577624 108.2268452  19.9554225  55.7014682
 107.6425668  20.4604256  56.1080546 107.8238548  19.7296611  54.9611274
 108.0807756  19.9962473  55.6519708 103.7812481  25.6708986  62.5038354
 103.2980059  26.3959475  62.4797937 104.5935799  25.9685116  62.6148512
 103.8303229  25.8211339  62.5165633 109.8526635  24.4641166  65.1088168
 109.3353577  24.1048581  64.5049476 110.5501026  23.9403341  65.1194234
 109.8792216  24.3338854  65.0218427 113.5090227  24.9135980  71.0704341
 113.5973573  24.7262121  71.9182552 113.9379940  24.2673410  70.6709188
 113.5852329  24.7898988  71.1376093 111.0760687  24.1967140  70.0522004
 110.5131522  23.7839750  70.5761665 111.8381710  24.1220046  70.4715147
 111.1055135  24.1244541  70.1915004 112.6845667  16.2019877  54.1783603
 112.9241671  16.4097860  53.3658946 113.0061508  15.3977385  54.2872547
 112.7682825  16.1133978  54.0744156 106.6356678  26.1865162  62.6558634
 107.3377258  25.6717151  62.7131390 106.5554161  26.5139313  63.4605509
 106.7280439  26.1579388  62.7831426 107.6835585  16.4240748  71.7839049
 107.8556089  16.3146643  72.6324330 108.2204942  17.0695154  71.5470241
 107.7880589  16.5032750  71.8744146 105.9607454  22.3771514  62.1644242
 106.7996353  22.6094446  62.2118003 105.9919223  21.5075825  62.0951277
 106.0889171  22.2828460  62.1608886 106.5860157  22.7972389  66.4657547
 107.1258382  22.6543520  67.1360920 105.9030103  23.1969140  66.8341574
 106.5652311  22.8352060  66.6191969 116.0101042  18.4763389  61.6602572
 116.7658557  18.9094904  61.6991480 116.1163366  17.8268159  62.2337208
 116.1371212  18.4440873  61.7500597 119.0481213  22.3036667  62.4104975
 118.6116445  22.3073409  63.1663946 118.7144128  22.9842166  61.9784552
 118.9343833  22.4049122  62.4585807 113.6210286  24.3444999  73.7348125
 114.4050703  24.4575847  74.1003867 113.4206881  23.5186137  73.9306811
 113.7076312  24.2391719  73.8182511 101.9897302  19.0172680  66.6191969
 101.7235717  18.2011796  66.7782959 102.0035866  19.0625835  65.7487484
 101.9522024  18.9029584  66.5145451 105.8955049  13.8157764  53.2343727
 105.1813226  13.5295943  53.6466159 106.3799017  14.1554390  53.8750114
 105.8614412  13.8239414  53.3899362 106.7395908  12.5551058  69.2658977
 106.0467705  12.0848038  69.5119708 107.3556236  12.3289362  69.8400684
 106.7280438  12.4518190  69.3868129 113.7780680  26.2555102  67.3814581
 112.9795925  26.0154602  67.6388449 114.2266691  26.3069494  68.1281628
 113.7255291  26.2277493  67.5299505 122.1825559  19.0217587  61.3024612
 122.8441993  18.4608255  61.2020520 121.5416971  18.5269617  61.6277303
 122.1854426  18.8653996  61.3356952 113.0702367  22.3187718  53.6105535
 113.4853515  21.9872742  52.9190031 112.2394296  22.0856620  53.4825672
 113.0090375  22.2358974  53.4896383 102.3990715  19.8031459  63.9003713
 102.2166289  19.7778345  63.0476005 103.1340384  20.2730397  63.9392622
 102.4804779  19.8692821  63.7801632 118.4690390  20.0382969  61.0436601
 118.7045979  20.1828168  60.2163451 118.6179953  20.8025377  61.4368114
 118.5256193  20.1722023  60.9800205 105.4636467  16.5216462  70.4085822
 106.1876439  16.5069492  70.8950716 105.5652604  17.2311817  69.9107790
 105.5854676  16.6241165  70.4064609 120.2980846  18.8784635  58.8806204
 120.6289064  19.4112275  58.2746299 120.8713935  18.9323523  59.5368155
 120.4314526  18.9654204  58.8883986 112.8381417  20.0015546  75.2734769
 112.0454397  20.3159058  75.4587388 112.9530344  20.2167015  74.4355553
 112.7376827  20.0799383  75.1773104 115.5112736  16.7249538  59.5629785
 115.6059590  17.4638832  60.0169410 114.8871579  16.2967013  59.9964349
 115.4321766  16.7710858  59.6937932 113.7665209  19.9035750  70.2120065
 114.3404071  19.2662994  70.3668629 113.6880013  19.9039833  69.3429723
 113.8398444  19.8100862  70.1066476 102.3661626  16.6824960  64.0502780
 102.9435128  16.5461410  64.6895025 101.6675688  16.2260744  64.3048364
 102.3482647  16.5947226  64.1825069 115.7635757  18.5698277  52.7966737
 115.6815919  18.6400464  53.6621724 116.4015477  19.1328021  52.6050477
 115.8455594  18.6637248  52.8956686 109.1228928  18.3359015  62.2641263
 108.8648172  17.5030750  62.2372562 109.1777411  18.5616628  61.4233763
 109.0928706  18.2456787  62.1361400 108.0963640  15.8896778  62.7506158
 107.5213231  16.0488946  63.3870119 107.7199316  15.2532187  62.2874608
 107.9566452  15.8194591  62.7760716 111.7636929  14.3620127  67.6098536
 111.3751362  13.9374345  66.9550727 111.0991627  14.6102277  68.1175563
 111.6083857  14.3358848  67.5886404  97.8420459  15.5336853  60.7650598
  97.9280711  15.1568721  61.5464128  98.4696256  15.1597298  60.2870557
  97.9477010  15.4222335  60.8096076 112.8675867  18.5918732  55.8075343
 113.6816506  18.8833624  55.6958114 112.8035008  17.9378594  55.2333636
 112.9778606  18.5383926  55.7064180 119.0885357  21.2744728  70.2204919
 118.8523995  20.4432793  70.1016979 119.7328586  21.2230335  70.8059763
 119.1480028  21.1442416  70.2890812 108.7383775  22.0640249  60.9347655
 109.3757722  21.8251997  61.4799448 109.1638847  22.2677408  60.2000816
 108.8959942  22.0591259  60.9064812 103.4296418  24.3028586  64.8181959
 103.4700563  24.5743437  63.9901738 103.9890942  24.8270494  65.2339747
 103.5179764  24.4204341  64.7573847 109.3786590  17.2842539  55.2722544
 109.7631743  17.0650246  56.0239090 109.1298211  18.1105484  55.4023621
 109.3988663  17.3740685  55.4023621 120.1121778  21.0589177  66.2833213
 119.8067595  21.7917233  66.6446529 119.3927994  20.6527106  66.0025999
 119.9609120  21.1070910  66.2946350 111.1205247  22.5412672  62.6141441
 111.1944256  22.3787844  63.4683291 111.9374754  22.7302861  62.3701923
 111.2521606  22.5449414  62.7039467 104.8811004  22.8870535  59.6435885
 104.0549122  23.1332272  59.5170164 104.9422995  22.8082615  60.5097943
 104.7685171  22.9115484  59.7524829 109.6609833  25.5047415  57.3454915
 109.9508131  25.1136396  56.6214141 110.3913314  25.6864120  57.7860190
 109.8116717  25.4741229  57.3037722 110.2504578  20.3065161  68.4308045
 109.7516272  21.0180928  68.5092934 111.0604802  20.6265827  68.3926208
 110.2960685  20.4592009  68.4364614 107.6015749  27.4814797  60.4115064
 107.3816044  27.1912152  61.2041731 107.3810271  26.8229752  59.8832977
 107.5363343  27.3414506  60.4503973 106.5132696  19.5688114  62.6770766
 106.2245944  18.9425585  63.2116493 107.3816044  19.5108401  62.7435447
 106.5992948  19.4675658  62.7661721 109.7683704  28.8544187  59.1945757
 110.4207762  28.3220629  59.4236783 109.0709313  28.5012839  59.5813631
 109.7614422  28.7233710  59.2857925 106.7164969  21.2083365  58.6013131
 107.4710937  21.5896404  58.8148594 106.1235582  21.6594508  59.0559828
 106.7401683  21.3312192  58.6996010 117.7623623  21.1748601  58.5376736
 118.3281655  21.8341811  58.4535279 117.1151526  21.5198299  59.0093138
 117.7502379  21.3230542  58.5949493 109.1771636  13.1646205  73.7270344
 108.3671412  13.4703985  73.6160186 109.6546323  13.8851787  73.8422928
 109.1275115  13.3160806  73.7277415 108.0363196  22.3791926  63.9753247
 107.5143949  22.5192218  64.6605111 108.4237216  21.6202590  64.1655364
 108.0166897  22.2877450  64.1054323 105.0254380  12.4297735  58.0448201
 104.7379176  12.0599005  57.3080149 105.7124848  12.8992590  57.7831906
 105.0843277  12.4444704  57.8963277 114.2330201  24.1187385  57.9613815
 113.9916877  23.3855246  57.5540880 114.4131534  24.6674242  57.3080149
 114.2237825  24.0909776  57.8044038 109.4629521  19.4095945  59.3734738
 109.2672304  20.0170680  58.7795041 109.6863867  18.7163889  58.8926412
 109.4664162  19.3973471  59.2150818 107.8608051  16.2950683  59.4915606
 108.5830703  16.4591841  59.0319412 107.3816044  17.0160348  59.3854946
 107.8971782  16.4248913  59.4081220 105.5115668  18.7008755  68.5969746
 106.0236765  18.9793009  67.9478506 105.2252011  19.4398050  68.9632559
 105.5450531  18.8511109  68.5559624 119.6959083  17.8382469  62.1573533
 119.6093057  17.9937895  63.0108312 119.2409563  18.4820544  61.7832938
 119.6162339  17.9558224  62.2280639 102.5982574  13.2078947  58.8933482
 102.6998711  14.0105109  59.2214458 103.3938461  13.0066283  58.5956563
 102.7310480  13.2964846  58.8968838 103.4146306  13.3226126  66.6354604
 103.2731798  12.4710066  66.7599112 103.6986870  13.3654786  65.8116810
 103.4354153  13.2025876  66.5322228 117.4632948  21.8676575  64.5685873
 117.3247307  22.5657621  65.0734616 116.6832946  21.7125232  64.2122055
 117.3276175  21.9476742  64.5912148 115.8011033  18.1672950  70.8208255
 115.7959071  17.2952767  70.8250682 116.5072027  18.3661120  70.3477711
 115.9056037  18.0676825  70.7515291 109.5281926  17.8949934  70.1922075
 109.6725302  18.4751142  69.5565185 109.8757575  18.2726231  70.8971930
 109.6009387  18.0370638  70.2021070 111.7001843  17.0940103  67.9747207
 110.9525158  17.2871117  67.5695485 111.8543369  16.2685322  67.7371328
 111.6124271  17.0005214  67.8792613 108.6009681  26.0852706  67.0583102
 108.7499245  25.5255622  66.4056507 109.3809683  26.1644708  67.4415621
 108.7383775  26.0138272  67.0180051 118.9586320  21.2254829  55.3302373
 118.5793129  20.4391967  55.3231662 118.2952566  21.7741686  55.1874017
 118.8044795  21.1899653  55.3083170 111.1262982  26.2567349  68.3367593
 111.0506653  25.5876160  68.8918381 111.0552841  26.9585137  68.8508259
 111.1043589  26.2612256  68.4944441 111.7833229  24.7768348  59.1691199
 112.5483120  24.5077992  58.8473863 111.6811319  24.2918358  59.8861262
 111.8814724  24.6657913  59.2271026 114.3051889  21.8080532  51.1491148
 115.0724874  21.8680657  50.7397000 113.8583198  21.2360973  50.6647467
 114.3525316  21.7317107  51.0168859 115.2029685  20.6135187  63.4343881
 114.5274687  20.3820420  63.9357268 115.2122061  20.0056370  62.8085986
 115.1048189  20.4894113  63.4160033 112.3323829  15.4553016  70.1907934
 112.2682970  16.3162973  70.0628070 112.4721016  15.1385010  69.3903485
 112.3439299  15.5353183  70.0536146 117.2046419  23.4700320  55.6654059
 117.2866257  24.2767306  55.3415509 117.6896161  23.4896279  56.3894832
 117.2883577  23.5920982  55.7240957 111.0142923  18.1485156  64.3324136
 110.5905172  18.3489655  63.5963155 110.8387778  17.3014004  64.4448436
 110.9253803  18.0533937  64.2397827 110.5154616  29.6635669  66.7945594
 111.0050546  28.9646458  66.6121258 109.9438848  29.3659539  67.3821651
 110.5039146  29.5161892  66.8546635 106.3025368  18.6437207  59.7652109
 106.4589987  18.5784010  60.6208101 106.6425961  19.4185760  59.5530789
 106.3758602  18.7486405  59.8606703 112.8404512  18.0195091  58.6345472
 113.3820058  17.5165472  59.0984093 113.1551071  17.9660285  57.8234957
 112.9668909  17.9374512  58.5829284 116.7121620  22.2297738  75.7472384
 117.5256485  21.9582887  75.9077517 116.5516586  21.9305278  74.9432580
 116.8091568  22.1452664  75.6517790 111.0090962  23.4112442  55.9185500
 111.0783782  22.5526981  56.0578501 111.7879417  23.6284323  55.5904525
 111.1343812  23.3165306  55.8902657 115.3998449  25.8350144  60.1321994
 115.0078241  25.5316859  59.4144860 115.5551522  26.6719234  59.9426947
 115.3652039  25.9133980  59.9978491 102.8759629  15.8272158  60.0812876
 103.2558594  16.2456703  59.4173143 102.3014994  16.4085613  60.3881719
 102.8470954  15.9750017  60.0289617 115.5638124  22.4000132  60.0728024
 115.2052779  22.5714775  60.8492056 115.0776835  22.8613338  59.5156023
 115.4396821  22.4939104  60.1053293 110.3526490  18.0799298  52.6128258
 110.6419014  18.8564180  52.8871833 110.4398288  17.5688029  53.3142758
 110.4080746  18.1191216  52.7570756 113.2486377  15.9280532  74.4079782
 113.7186008  16.5522648  74.7947656 113.2948257  15.2597507  74.9672997
 113.3254253  15.9215212  74.5479853 116.7242864  23.2904028  71.0195225
 117.3622584  22.7964224  70.6857681 116.0816955  23.2181429  70.4347452
 116.7237090  23.2063037  70.8837580 116.7797120  23.9823837  67.6600582
 117.5689498  23.6312901  67.7802663 116.9540718  24.7960225  67.3977216
 116.9217402  24.0509694  67.6388450 106.5190431  17.3932562  64.7128371
 105.6778437  17.2936437  64.9207264 106.7280439  18.1628043  65.0642691
 106.4255123  17.4924606  64.7955685 103.9965998  15.0152099  62.5413121
 103.6022695  15.0895111  61.7663231 103.4406114  15.4010046  63.0921483
 103.8568810  15.0833874  62.5080781 110.3307095  15.3213962  63.9625968
 110.0270233  14.7669950  64.5636376 109.6286516  15.5006172  63.4754002
 110.1823305  15.2658744  63.9795674 108.3925446  22.5363682  68.6698066
 108.2845801  22.5465744  69.5360124 108.6021228  23.3618463  68.4803020
 108.4075558  22.6604757  68.7702157 106.4099238  19.7876325  66.1320003
 105.8187172  20.4285823  66.1023019 107.1720262  20.2113942  66.1051303
 106.4347499  19.9452163  66.1235151 122.5289660  19.6182094  67.1297282
 122.5872784  20.0668743  67.8757258 121.8956128  20.0280907  66.6927362
 122.4440955  19.7455829  67.1749830 116.1688755  25.2385636  63.5652028
 115.9708443  25.7276451  62.8708239 115.5476466  25.4426878  64.1436161
 116.0476319  25.3402175  63.5475251 110.2296733  17.0070533  57.9062272
 110.9738778  17.3944809  58.1445222 110.3757429  16.1627959  58.0702760
 110.3607318  16.9401006  57.9656242 103.5947639  14.5767513  69.1739737
 104.4573252  14.4763222  69.0877067 103.2639422  13.9962222  68.6125309
 103.6732835  14.4759140  69.0785143 119.4811339  17.6398382  65.2162972
 119.2409562  16.8004797  65.2205398 119.9603347  17.7198549  65.9403746
 119.5163523  17.5279782  65.3237774 118.0862557  18.8049789  69.0997276
 118.8096756  18.3522315  68.9208296 117.8212519  19.0854454  68.3169604
 118.1543830  18.7800757  68.9575992 106.9549425  13.4009962  65.8350155
 106.3302495  13.4128354  65.2276108 106.6195020  13.8770137  66.4841396
 106.8134917  13.4728479  65.8406724 103.6675101  21.4610422  67.2753920
 103.1375025  20.7702861  67.3248894 103.9400194  21.4520608  66.4466628
 103.6299823  21.3577554  67.1601336 114.6995191  22.0436125  55.9991602
 115.4229390  22.5094238  55.8556176 114.2595782  22.1109734  55.2489199
 114.7410883  22.1219961  55.8676384 113.8681346  18.9033667  67.2492291
 113.2538339  18.3591717  67.5440927 114.3848631  18.3897903  66.7698107
 113.8537009  18.7470076  67.2216520 113.1077643  19.9737937  64.9836590
 112.6805251  19.3487656  64.5502025 113.1002588  19.6912859  65.8095597
 113.0436784  19.8390718  65.0416418 106.2240170  15.0103110  68.0525024
 106.3833657  14.2546434  68.4576746 106.0433064  15.5594049  68.7065762
 106.2205529  14.9796924  68.2087730  98.9470943  18.1338186  64.6322268
  98.8414392  18.0885031  63.7674352  98.1971163  18.4791967  64.9136553
  98.8206546  18.1779095  64.5459598 109.8994288  19.1438250  72.6805163
 109.0489919  19.2809964  72.8162808 110.0622416  18.4102028  73.1252865
 109.7978152  19.0552351  72.7660762 109.1379039  16.0938019  66.8758767
 108.3070968  16.2611837  66.6694015 109.0830556  15.7173970  67.6607653
 109.0068453  16.0627751  66.9607295 107.5115082  14.3693611  57.4048885
 107.6518044  14.8666075  58.1077526 108.0097615  13.6679905  57.5463099
 107.6056163  14.3395590  57.5300464 107.5415305  15.2360722  54.7341462
 108.1760384  15.8321147  54.6690924 107.6240916  14.9364180  55.5487332
 107.6471856  15.2801630  54.8444548 112.3491260  22.1893572  68.2285720
 111.8416352  22.7429419  68.6726350 112.0517907  22.2501862  67.4104494
 112.2296145  22.2799883  68.1734177 104.0468293  17.4328563  58.0031008
 104.5560522  18.0293070  58.3842313 104.5202565  17.1654536  57.3207427
 104.1911668  17.4814378  57.9585531 114.9599041  26.1056830  56.1589663
 114.2428350  25.9317692  55.6936901 115.6105778  25.8709402  55.6265149
 114.9500891  26.0452622  56.0118881 111.5933746  27.1218130  65.1342727
 111.3699400  26.3636959  65.5026753 111.1043589  27.1516151  64.4123167
 111.4877195  27.0140355  65.0819468 106.4058824  14.0684821  60.8704188
 105.6870814  14.4848954  61.1377052 106.7771187  14.6339060  60.3195826
 106.3550756  14.2134103  60.8286995 113.6504735  21.2899862  72.6854661
 113.6100590  20.6449539  72.0999816 114.4628053  21.2336480  72.9980073
 113.7647889  21.1858829  72.6451610 110.2412203  27.3418588  62.5879811
 109.8272601  26.6792718  62.1983653 110.9259577  27.4896447  62.0675506
 110.2810574  27.2659246  62.4536309 113.6077497  26.5008673  63.3403428
 113.2093780  26.6110944  62.5724248 112.9928716  26.7090740  63.9229988
 113.4576386  26.5482241  63.3134727 109.3382444  14.9196799  69.2404418
 108.8261347  14.3117982  69.5989450 109.1661940  15.6353391  69.7078394
 109.2372081  14.9360098  69.3620642 104.1848159  13.3634374  71.8906780
 104.0150749  14.0235749  71.3454987 103.7414108  13.5740935  72.6119269
 104.0947492  13.4920356  71.9168409 121.3419339  21.0760640  56.7246519
 121.7252945  21.8251996  56.9544616 120.5463453  21.3226460  56.4658508
 121.2813122  21.2230334  56.7204092 101.0850223  16.2681240  67.1495270
 100.5376942  15.5981885  67.2676138 101.8742601  15.9011088  67.2138737
 101.1202407  16.1146226  67.1763970 110.9334631  15.9288697  72.6458681
 111.6845958  16.2440374  72.9598235 111.1257208  15.7267868  71.8192603
 111.0726046  15.9456079  72.5702077 110.1534631  13.7480072  54.3006898
 110.5333596  13.7659701  53.5158012 109.4127227  14.1934061  54.1797745
 110.1003469  13.8161847  54.1670466  99.8437193  15.4802048  64.3041293
  99.6658954  15.0278656  65.0296208  99.5556215  16.2828209  64.4879770
  99.7750146  15.5324605  64.4384796 115.5060774  16.7359765  63.5418683
 116.0014439  16.0182760  63.5022703 114.6960549  16.4330563  63.4273170
 115.4604667  16.5857411  63.5192409 110.9519385  20.5857578  55.6915688
 110.1430708  20.2624252  55.6448997 111.4594294  19.8790800  55.6243936
 110.9069052  20.4338894  55.6745982 101.5809662  18.0129771  61.4163052
 100.7155182  18.0015462  61.3045823 101.6808478  17.8259994  62.2634191
 101.4683829  17.9835832  61.5251996 117.5712592  19.4863452  66.2295812
 117.9967664  18.9637874  65.6766237 117.2069512  20.0844290  65.7084435
 117.5799195  19.4973679  66.0704822 107.2066672  27.7827670  64.9893157
 107.5213231  28.5964058  64.9970939 107.6160086  27.3977889  65.6575317
 107.3134770  27.8456372  65.0897249 114.1591192  23.1997717  62.5596969
 114.6302370  23.9137979  62.7286955 114.4951370  22.5996467  63.0956839
 114.2786307  23.2169181  62.6629345 116.2468177  24.8099030  74.7389041
 116.3565142  24.0207591  75.0945789 116.5759073  24.7204966  73.9363380
 116.3120582  24.6804883  74.6731432 114.7965138  22.9915651  69.3224662
 114.2486084  22.3673534  69.0544727 115.2578167  23.1809923  68.6068741
 114.7832348  22.9274701  69.1775093 104.5479692  21.7300778  64.6371766
 105.1524550  21.6896612  64.0085587 104.3407005  22.5771930  64.6675822
 104.6068590  21.8488781  64.5487882 114.3623465  23.9966723  65.8534003
 115.1821838  23.8529690  66.1150298 114.0817542  24.6212922  66.3950441
 114.4420208  24.0677076  65.9721943  99.7830975  20.7135396  64.5070689
  99.6855253  19.9031667  64.8160746 100.5659844  20.6927189  64.1216957
  99.8847111  20.5902486  64.4957552 124.0336800  30.7407226  63.5729810
 123.1774695  30.9015724  63.6238927 124.0804454  29.8699290  63.5934871
 123.9135911  30.6358028  63.5835876 118.4177940  40.2769944  59.3367042
 117.6660839  39.8985482  59.1083087 118.8663951  40.3088378  58.5885852
 118.3727606  40.2255551  59.1924544 123.8702899  40.6995314  54.7652589
 123.5354268  41.3772235  54.3296811 124.3829770  40.3100625  54.1769460
 123.8968480  40.7419892  54.6139380 123.4107191  42.6509582  60.7063700
 123.7946570  43.2196481  60.1668475 123.3466332  41.9259093  60.2269516
 123.4580618  42.6285046  60.5557563 119.9962696  40.2888336  61.6029814
 120.0973059  39.4788690  61.9126942 119.4004441  40.1945283  60.9729493
 119.9235234  40.1553364  61.5556053 119.8363435  45.2065925  63.0044670
 120.4800891  45.6479089  63.3940829 120.1619691  44.4019352  62.9174929
 119.9795264  45.1531120  63.0490147 113.1927740  36.3108623  61.2282148
 112.9577924  35.4776275  61.1214417 113.3313381  36.5913288  60.4143349
 113.1783402  36.2292126  61.0924503 115.4917827  28.4794353  64.1266455
 114.8722859  27.8887001  63.9576470 115.3901691  29.0705789  63.4930779
 115.3855503  28.4798436  64.0071445 120.5384015  38.2177900  58.3764532
 120.8599856  38.7583108  57.7725840 121.1856111  37.6474672  58.5086822
 120.6810070  38.2137075  58.3071567 122.5885723  30.2193895  58.4598919
 123.2865888  30.3982023  58.9520382 122.9038056  29.6964235  57.8369308
 122.7381060  30.1687667  58.4400929 115.2186960  32.0246635  66.3710024
 115.0945657  32.6109081  67.0059843 115.8705245  31.5306831  66.6722299
 115.2960610  32.0385440  66.5095954 122.7773658  36.6064340  58.4478710
 123.2167294  35.9981441  58.8933483 122.6278321  36.2271714  57.6764175
 122.8195124  36.4602811  58.3997877 120.2445301  35.2008352  65.6497536
 120.8894304  34.7080795  65.3308484 120.4847078  35.3433139  66.4763614
 120.3755887  35.1485794  65.7247069 122.7831393  38.0463258  65.3004428
 123.0654636  37.2514664  65.0791184 123.5117553  38.5243845  65.3209489
 122.9320956  37.9997855  65.2707443 120.7612587  25.5886292  62.5420193
 120.4315917  26.0397435  61.8723892 120.0857588  25.5102455  63.0893200
 120.6123023  25.6437427  62.5243416 119.2001036  35.4739532  55.7014682
 118.6158251  35.9789564  56.1080546 118.7971131  35.2481919  54.9611274
 119.0540340  35.5147781  55.6519708 114.7545065  41.1894294  62.5038354
 114.2712643  41.9144783  62.4797937 115.5668383  41.4870424  62.6148512
 114.8035812  41.3396647  62.5165633 120.8259219  39.9826474  65.1088168
 120.3086160  39.6233889  64.5049476 121.5233610  39.4588649  65.1194234
 120.8524800  39.8524162  65.0218427 124.4822811  40.4321288  71.0704341
 124.5706157  40.2447429  71.9182552 124.9112523  39.7858718  70.6709188
 124.5584913  40.3084296  71.1376093 122.0493270  39.7152448  70.0522004
 121.4864105  39.3025058  70.5761665 122.8114294  39.6405354  70.4715147
 122.0787719  39.6429849  70.1915004 123.6578250  31.7205185  54.1783603
 123.8974254  31.9283168  53.3658946 123.9794091  30.9162693  54.2872547
 123.7415408  31.6319286  54.0744156 118.9668541  23.6498580  58.0243141
 119.7214509  24.0176897  57.7860191 118.7896075  24.0238135  58.7922320
 119.0523019  23.7596768  58.1028029 117.6089262  41.7050470  62.6558634
 118.3109841  41.1902459  62.7131390 117.5286745  42.0324621  63.4605509
 117.7013022  41.6764696  62.7831426 118.6568168  31.9426056  71.7839049
 118.8288672  31.8331951  72.6324330 119.1937526  32.5880462  71.5470241
 118.7613172  32.0218058  71.8744146 117.3225605  26.0568899  54.7221254
 117.1401179  26.2740780  53.8962247 118.1851218  26.1707912  54.7779868
 117.4230195  26.1058797  54.6075741 116.9340037  37.8956821  62.1644242
 117.7728937  38.1279754  62.2118003 116.9651806  37.0261133  62.0951277
 117.0621755  37.8013768  62.1608886 117.5592740  38.3157697  66.4657547
 118.0990965  38.1728828  67.1360920 116.8762687  38.7154447  66.8341574
 117.5384894  38.3537368  66.6191969 123.0025325  23.0595310  57.7570278
 123.7311485  22.8811265  57.3108434 123.0920217  23.9013390  57.9677456
 123.1231987  23.1579188  57.7223795 124.5942870  39.8630307  73.7348125
 125.3783287  39.9761155  74.1003867 124.3939464  39.0371444  73.9306811
 124.6808895  39.7577027  73.8182511 112.9629885  34.5357987  66.6191969
 112.6968301  33.7197104  66.7782959 112.9768450  34.5811143  65.7487484
 112.9254608  34.4214892  66.5145451 116.8687632  29.3343072  53.2343727
 116.1545809  29.0481251  53.6466159 117.3531601  29.6739698  53.8750114
 116.8346996  29.3424722  53.3899362 117.7128492  28.0736366  69.2658977
 117.0200289  27.6033345  69.5119708 118.3288819  27.8474670  69.8400684
 117.7013022  27.9703498  69.3868129 124.7513263  41.7740409  67.3814581
 123.9528509  41.5339909  67.6388449 125.1999275  41.8254802  68.1281628
 124.6987875  41.7462801  67.5299505 124.0434950  37.8373026  53.6105535
 124.4586099  37.5058050  52.9190031 123.2126880  37.6041928  53.4825672
 123.9822959  37.7544282  53.4896383 113.3723299  35.3216767  63.9003713
 113.1898872  35.2963653  63.0476005 114.1072968  35.7915705  63.9392622
 113.4537363  35.3878129  63.7801632 116.4369051  32.0401770  70.4085822
 117.1609023  32.0254800  70.8950716 116.5385187  32.7497125  69.9107790
 116.5587260  32.1426473  70.4064609 123.8114000  35.5200854  75.2734769
 123.0186981  35.8344366  75.4587388 123.9262927  35.7352323  74.4355553
 123.7109411  35.5984691  75.1773104 124.7397793  35.4221058  70.2120065
 125.3136655  34.7848302  70.3668629 124.6612597  35.4225141  69.3429723
 124.8131028  35.3286170  70.1066476 113.3394209  32.2010268  64.0502780
 113.9167712  32.0646718  64.6895025 112.6408271  31.7446052  64.3048364
 113.3215231  32.1132534  64.1825069 120.0961512  33.8544323  62.2641263
 119.8380756  33.0216058  62.2372562 120.1509994  34.0801936  61.4233763
 120.0661289  33.7642094  62.1361400 125.1762562  25.9572774  62.3645356
 124.4718888  25.4681959  62.5229275 125.2247536  25.9695248  61.4933800
 125.0792613  25.8862422  62.2584695 119.0696224  31.4082086  62.7506158
 118.4945815  31.5674254  63.3870119 118.6931900  30.7717495  62.2874608
 118.9299036  31.3379899  62.7760716 122.7369512  29.8805435  67.6098536
 122.3483945  29.4559653  66.9550727 122.0724211  30.1287585  68.1175563
 122.5816440  29.8544156  67.5886404 108.8153043  31.0522160  60.7650598
 108.9013294  30.6754029  61.5464128 109.4428840  30.6782606  60.2870557
 108.9209594  30.9407643  60.8096076 123.8408451  34.1104040  55.8075343
 124.6549089  34.4018932  55.6958114 123.7767592  33.4563902  55.2333636
 123.9511190  34.0569234  55.7064180 119.7116359  37.5825557  60.9347655
 120.3490306  37.3437305  61.4799448 120.1371430  37.7862716  60.2000816
 119.8692525  37.5776567  60.9064812 114.4029001  39.8213894  64.8181959
 114.4433147  40.0928745  63.9901738 114.9623525  40.3455802  65.2339747
 114.4912347  39.9389649  64.7573847 120.3519174  32.8027847  55.2722544
 120.7364327  32.5835554  56.0239090 120.1030794  33.6290792  55.4023621
 120.3721246  32.8925993  55.4023621 120.5187714  26.0834262  74.9885129
 120.2041155  26.8533825  74.7254691 120.1977647  25.5204518  74.4037356
 120.4246633  26.1144531  74.8626479 122.0937831  38.0597980  62.6141441
 122.1676839  37.8973152  63.4683291 122.9107337  38.2488169  62.3701923
 122.2254189  38.0634722  62.7039467 115.8543588  38.4055842  59.6435885
 115.0281705  38.6517580  59.5170164 115.9155579  38.3267923  60.5097943
 115.7417754  38.4300791  59.7524829 118.0719611  24.4724783  60.6031325
 117.2042037  24.5447383  60.6688934 118.3594816  25.2746862  60.7919300
 117.9859359  24.6018931  60.6406092 120.6342417  41.0232723  57.3454915
 120.9240715  40.6321704  56.6214141 121.3645897  41.2049428  57.7860190
 120.7849301  40.9926536  57.3037722 121.2237162  35.8250469  68.4308045
 120.7248855  36.5366236  68.5092934 122.0337386  36.1451135  68.3926208
 121.2693268  35.9777317  68.4364614 118.5748332  43.0000105  60.4115064
 118.3548628  42.7097460  61.2041731 118.3542854  42.3415060  59.8832977
 118.5095926  42.8599813  60.4503973 117.4865279  35.0873422  62.6770766
 117.1978528  34.4610893  63.2116493 118.3548627  35.0293709  62.7435447
 117.5725531  34.9860966  62.7661721 120.7416288  44.3729495  59.1945757
 121.3940346  43.8405937  59.4236783 120.0441897  44.0198147  59.5813631
 120.7347006  44.2419018  59.2857925 117.6897553  36.7268673  58.6013131
 118.4443521  37.1081712  58.8148594 117.0968165  37.1779816  59.0559828
 117.7134266  36.8497500  58.6996010 120.1504220  28.6831513  73.7270344
 119.3403995  28.9889293  73.6160186 120.6278906  29.4037095  73.8422928
 120.1007698  28.8346114  73.7277415 119.0095779  37.8977234  63.9753247
 118.4876533  38.0377526  64.6605111 119.3969800  37.1387898  64.1655364
 118.9899480  37.8062758  64.1054323 115.9986963  27.9483043  58.0448201
 115.7111759  27.5784313  57.3080149 116.6857432  28.4177898  57.7831906
 116.0575861  27.9630012  57.8963277 125.2062784  39.6372693  57.9613815
 124.9649460  38.9040554  57.5540880 125.3864117  40.1859550  57.3080149
 125.1970408  39.6095084  57.8044038 120.4362105  34.9281253  59.3734738
 120.2404888  35.5355988  58.7795041 120.6596451  34.2349197  58.8926412
 120.4396746  34.9158779  59.2150818 118.8340635  31.8135991  59.4915606
 119.5563287  31.9777149  59.0319412 118.3548628  32.5345656  59.3854946
 118.8704366  31.9434221  59.4081220 116.4848252  34.2194063  68.5969746
 116.9969349  34.4978317  67.9478506 116.1984594  34.9583357  68.9632559
 116.5183115  34.3696417  68.5559624 113.5715158  28.7264255  58.8933482
 113.6731294  29.5290417  59.2214458 114.3671045  28.5251591  58.5956563
 113.7043064  28.8150154  58.8968838 120.0031977  26.3120452  68.6570787
 119.8115174  26.3275586  69.5070211 120.8530573  26.5084126  68.6337442
 120.1007699  26.3434803  68.7794082 114.3878890  28.8411433  66.6354604
 114.2464382  27.9895374  66.7599112 114.6719453  28.8840094  65.8116810
 114.4086736  28.7211183  66.5322228 124.5417482  30.6778524  60.7799092
 124.2952197  30.5974275  61.6135881 124.8702605  29.8931991  60.5861620
 124.5538726  30.5504789  60.8746615 120.5014510  33.4135242  70.1922075
 120.6457885  33.9936450  69.5565185 120.8490158  33.7911539  70.8971930
 120.5741971  33.5555946  70.2021070 122.6734427  32.6125411  67.9747207
 121.9257741  32.8056425  67.5695485 122.8275952  31.7870630  67.7371328
 122.5856855  32.5190522  67.8792613 119.5742265  41.6038014  67.0583102
 119.7231828  41.0440930  66.4056507 120.3542267  41.6830016  67.4415621
 119.7116358  41.5323580  67.0180051 122.0995565  41.7752657  68.3367593
 122.0239236  41.1061467  68.8918381 122.0285424  42.4770445  68.8508259
 122.0776172  41.7797564  68.4944441 122.9136204  26.5075961  68.8642611
 123.3708818  27.2399936  68.9915403 122.9892533  26.0842427  69.6229866
 122.9927174  26.5533199  68.9943687 115.1569195  26.7541781  69.9532054
 114.6211385  26.1422139  70.2692822 115.2186960  27.3289917  70.6065721
 115.0864828  26.7488709  70.0967481 122.7565812  40.2953656  59.1691199
 123.5215703  40.0263300  58.8473863 122.6543902  39.8103666  59.8861262
 122.8547308  40.1843220  59.2271026 120.7918582  28.4978065  65.7084435
 120.0014657  28.3169525  66.0301770 121.1879205  27.7205018  65.6914729
 120.7335458  28.3565526  65.7536983 123.3056412  30.9738324  70.1907934
 123.2415553  31.8348281  70.0628070 123.4453600  30.6570318  69.3903485
 123.3171882  31.0538491  70.0536146 121.9875506  33.6670464  64.3324136
 121.5637755  33.8674963  63.5963155 121.8120361  32.8199312  64.4448436
 121.8986387  33.5719245  64.2397827 121.4887200  45.1820977  66.7945594
 121.9783130  44.4831766  66.6121258 120.9171432  44.8844847  67.3821651
 121.4771730  45.0347200  66.8546635 117.2757951  34.1622515  59.7652109
 117.4322570  34.0969318  60.6208101 117.6158544  34.9371068  59.5530789
 117.3491186  34.2671713  59.8606703 123.8137096  33.5380399  58.6345472
 124.3552641  33.0350780  59.0984093 124.1283655  33.4845593  57.8234957
 123.9401493  33.4559820  58.5829284 121.9823545  38.9297750  55.9185500
 122.0516366  38.0712289  56.0578501 122.7612001  39.1469631  55.5904525
 122.1076396  38.8350614  55.8902657 124.9626365  28.4316703  68.6867773
 125.1768335  27.7927617  68.1331127 124.3460264  28.8762527  68.2575634
 124.9031694  28.4026847  68.5418204 113.8492213  31.3457466  60.0812876
 114.2291177  31.7642011  59.4173143 113.2747577  31.9270921  60.3881719
 113.8203538  31.4935324  60.0289617 124.3541094  21.5416639  63.6755115
 123.4834652  21.5155360  63.6288425 124.6081435  21.3693831  62.8580961
 124.2634654  21.5126783  63.5475252 121.3259073  33.5984606  52.6128258
 121.6151598  34.3749488  52.8871833 121.4130872  33.0873337  53.3142758
 121.3813329  33.6376524  52.7570756 124.2218961  31.4465840  74.4079782
 124.6918592  32.0707956  74.7947656 124.2680841  30.7782815  74.9672997
 124.2986836  31.4400520  74.5479853 121.3790234  23.5522867  65.1328586
 120.8628723  22.8603059  65.2580165 120.8184163  24.2193644  65.0791185
 121.2196748  23.5486125  65.1434652 123.4482468  24.0915827  66.9621438
 123.0614221  24.1164859  67.7434968 122.9615405  23.5257506  66.5095955
 123.3194977  24.0111578  67.0109342 123.1139609  20.9782813  69.2531698
 123.7432727  21.5143113  68.9752769 123.2825472  20.8860172  70.1045264
 123.2317404  21.0444175  69.3380226 122.9153524  25.7654008  71.5258110
 123.7426954  25.4939156  71.5816724 122.9361370  26.5614849  71.8821928
 123.0406374  25.8433762  71.5873293 117.4923014  32.9117870  64.7128371
 116.6511021  32.8121745  64.9207264 117.7013022  33.6813351  65.0642691
 117.3987707  33.0109914  64.7955685 114.9698581  30.5337407  62.5413121
 114.5755279  30.6080419  61.7663231 114.4138698  30.9195354  63.0921483
 114.8301393  30.6019182  62.5080781 121.3039679  30.8399270  63.9625968
 121.0002817  30.2855258  64.5636376 120.6019100  31.0191480  63.4754002
 121.1555889  30.7844052  63.9795674 120.3605776  28.1499789  58.5270670
 120.6365510  27.4318702  58.1148237 120.9604445  28.7484709  58.3191776
 120.4899041  28.1320160  58.4351431 119.3658030  38.0548990  68.6698066
 119.2578385  38.0651052  69.5360124 119.5753812  38.8803771  68.4803020
 119.3808141  38.1790065  68.7702157 123.8616297  25.8213307  56.8017265
 124.3160043  25.9923867  57.5265109 124.3356342  25.2081417  56.4015041
 123.9984617  25.7564192  56.8491027 117.3831822  35.3061633  66.1320003
 116.7919755  35.9471131  66.1023019 118.1452846  35.7299250  66.1051303
 117.4080083  35.4637471  66.1235151 117.7792445  26.4663630  66.7988021
 118.2393926  26.5402560  67.5363145 117.8248552  27.2644884  66.4487842
 117.8543000  26.5957777  66.8560778 119.4275795  27.1330325  71.3660048
 119.0361360  26.4863672  71.8015826 119.5961657  27.7241761  71.9854304
 119.3946705  27.1244593  71.5222754 121.2029317  32.5255841  57.9062272
 121.9471362  32.9130117  58.1445222 121.3490013  31.6813266  58.0702760
 121.3339902  32.4586314  57.9656242 123.1208892  24.3206100  62.9394134
 122.2744937  24.4928908  62.8135483 123.1180025  23.5155444  63.2759962
 122.9956042  24.2267129  62.9705261 124.1907192  28.0981314  63.8056192
 123.7167147  27.5723076  64.3161502 124.5625328  27.5510787  63.2371053
 124.1757081  27.9397311  63.7971339 114.5680223  30.0952821  69.1739737
 115.4305836  29.9948530  69.0877067 114.2372006  29.5147530  68.6125309
 114.6465419  29.9944448  69.0785143 117.9282009  28.9195270  65.8350155
 117.3035079  28.9313662  65.2276108 117.5927603  29.3955445  66.4841396
 117.7867500  28.9913787  65.8406724 118.1123757  27.2620389  51.8922840
 117.7636562  27.9140114  52.3554390 117.6320203  27.2477502  51.1646712
 117.9894001  27.3563442  51.8533932 114.6407684  36.9795730  67.2753920
 114.1107609  36.2888169  67.3248894 114.9132777  36.9705916  66.4466628
 114.6032406  36.8762862  67.1601336 124.8413930  34.4218975  67.2492291
 124.2270923  33.8777025  67.5440927 125.3581215  33.9083211  66.7698107
 124.8269592  34.2655384  67.2216520 124.0810227  35.4923245  64.9836590
 123.6537835  34.8672963  64.5502025 124.0735171  35.2098167  65.8095597
 124.0169368  35.3576025  65.0416418 117.1972754  30.5288418  68.0525024
 117.3566241  29.7731742  68.4576746 117.0165648  31.0779357  68.7065762
 117.1938113  30.4982232  68.2087730 122.4095937  26.3691999  65.1979124
 122.4338424  25.8352112  64.5091904 122.6607410  25.8609308  65.8604715
 122.4505855  26.2152903  65.1943769 109.9203526  33.6523494  64.6322268
 109.8146975  33.6070339  63.7674352 109.1703746  33.9977275  64.9136553
 109.7939129  33.6964402  64.5459598 118.6897259  25.0962818  64.5784868
 118.7295630  25.5972024  65.2919576 117.8646923  25.1873211  64.3090791
 118.5736785  25.1844634  64.6435407 120.8726872  34.6623558  72.6805163
 120.0222502  34.7995272  72.8162808 121.0354999  33.9287336  73.1252865
 120.7710735  34.5737659  72.7660762 120.1111622  31.6123327  66.8758767
 119.2803552  31.7797145  66.6694015 120.0563139  31.2359278  67.6607653
 119.9801037  31.5813059  66.9607295 117.9195405  25.1032220  72.5115178
 118.5448109  24.5594353  72.7844610 117.4645885  24.6227138  71.9422968
 117.9443666  24.9521702  72.4676772 118.4847666  29.8878919  57.4048885
 118.6250627  30.3851383  58.1077526 118.9830199  29.1865213  57.5463099
 118.5788747  29.8580898  57.5300464 118.5147888  30.7546030  54.7341462
 119.1492968  31.3506455  54.6690924 118.5973499  30.4549488  55.5487332
 118.6204439  30.7986938  54.8444548 120.0926871  26.6860005  54.7086904
 120.4142712  26.2063088  54.0546166 120.3553815  27.4959651  54.5177715
 120.1792897  26.7349903  54.5842396 123.3223844  37.7078880  68.2285720
 122.8148935  38.2614727  68.6726350 123.0250490  37.7687170  67.4104494
 123.2028729  37.7985191  68.1734177 115.0200876  32.9513871  58.0031008
 115.5293106  33.5478378  58.3842313 115.4935149  32.6839844  57.3207427
 115.1644252  32.9999686  57.9585531 123.9280249  22.5447299  60.4800960
 123.2848567  22.3944946  61.0486098 123.5879656  22.2989644  59.7150065
 123.7825326  22.4859422  60.4503975 122.5666329  42.6403438  65.1342727
 122.3431984  41.8822267  65.5026753 122.0776173  42.6701459  64.4123167
 122.4609778  42.5325663  65.0819468 117.3791408  29.5870129  60.8704188
 116.6603397  30.0034262  61.1377052 117.7503770  30.1524368  60.3195826
 117.3283340  29.7319411  60.8286995 124.6237319  36.8085170  72.6854661
 124.5833174  36.1634847  72.0999816 125.4360637  36.7521788  72.9980073
 124.7380472  36.7044137  72.6451610 121.2144786  42.8603896  62.5879811
 120.8005185  42.1978026  62.1983653 121.8992160  43.0081755  62.0675506
 121.2543158  42.7844554  62.4536309 124.5810080  42.0193981  63.3403428
 124.1826364  42.1296252  62.5724248 123.9661300  42.2276048  63.9229988
 124.4308970  42.0667549  63.3134727 123.1537982  28.6268129  56.2077568
 122.5602822  28.9485126  55.6562135 123.1913260  27.7809225  55.9998674
 123.0712372  28.5492457  56.0960339 120.3115027  30.4382107  69.2404418
 119.7993930  29.8303290  69.5989450 120.1394524  31.1538699  69.7078394
 120.2104664  30.4545406  69.3620642 115.1580742  28.8819682  71.8906780
 114.9883332  29.5421057  71.3454987 114.7146692  29.0926243  72.6119269
 115.0680076  29.0105664  71.9168409 119.0840561  27.1224180  60.9333514
 119.5597928  27.4841260  60.2983695 118.5829161  27.7780648  61.2133656
 119.0805920  27.2718369  60.8810255 124.1884098  28.3606351  71.6806674
 124.7455528  28.1320161  71.0485139 123.8645163  29.1212017  71.4041886
 124.2230508  28.4390188  71.5463171 112.0582807  31.7866548  67.1495270
 111.5109526  31.1167193  67.2676138 112.8475185  31.4196396  67.2138737
 112.0934990  31.6331534  67.1763970 121.9067215  31.4474005  72.6458681
 122.6578542  31.7625682  72.9598235 122.0989791  31.2453176  71.8192603
 122.0458629  31.4641387  72.5702077 121.1267215  29.2665380  54.3006898
 121.5066179  29.2845009  53.5158012 120.3859811  29.7119369  54.1797745
 121.0736052  29.3347154  54.1670466 110.8169776  30.9987355  64.3041293
 110.6391537  30.5463964  65.0296208 110.5288798  31.8013517  64.4879770
 110.7482729  31.0509913  64.4384796 121.9251969  36.1042886  55.6915688
 121.1163291  35.7809560  55.6448997 122.4326878  35.3976108  55.6243936
 121.8801635  35.9524202  55.6745982 112.5542246  33.5315079  61.4163052
 111.6887765  33.5200770  61.3045823 112.6541062  33.3445302  62.2634191
 112.4416413  33.5021140  61.5251996 118.1799256  43.3012978  64.9893157
 118.4945815  44.1149366  64.9970939 118.5892669  42.9163196  65.6575317
 118.2867354  43.3641680  65.0897249 125.1323776  38.7183025  62.5596969
 125.6034954  39.4323287  62.7286955 125.4683954  38.1181775  63.0956839
 125.2518891  38.7354489  62.6629345 122.0493270  23.4910495  69.5155064
 122.1821176  22.6941489  69.8436040 122.4338423  24.0176898  70.0953340
 122.1249599  23.4510412  69.6498567 125.1225626  20.4140821  66.1136157
 124.3171589  20.3038551  66.4303996 124.9932361  20.5153277  65.2566023
 124.9845758  20.4124491  66.0344198 121.1186385  25.4926908  56.9834529
 121.9402080  25.6625221  56.7416224 120.6556036  25.6474169  56.2600827
 121.1717548  25.5408641  56.8406173 119.7081717  23.4869670  67.7632958
 120.2526130  23.1460797  68.3537300 119.7618653  24.3455132  67.9054243
 119.7970837  23.5624930  67.8714831 115.5212276  37.2486086  64.6371766
 116.1257133  37.2081920  64.0085587 115.3139589  38.0957238  64.6675822
 115.5801173  37.3674089  64.5487882 110.7563558  36.2320704  64.5070689
 110.6587836  35.4216975  64.8160746 111.5392428  36.2112497  64.1216957
 110.8579695  36.1087794  64.4957552 124.1660324  51.8293931  61.2282148
 123.9310508  50.9961583  61.1214417 124.3045964  52.1098596  60.4143349
 124.1515986  51.7477434  61.0924503 123.9362469  50.0543295  66.6191969
 123.6700884  49.2382412  66.7782959 123.9501033  50.0996451  65.7487484
 123.8987191  49.9400200  66.5145451 124.3455883  50.8402075  63.9003713
 124.1631456  50.8148961  63.0476005 125.0805552  51.3101013  63.9392622
 124.4269947  50.9063437  63.7801632 124.3126793  47.7195576  64.0502780
 124.8900296  47.5832026  64.6895025 123.6140855  47.2631360  64.3048364
 124.2947814  47.6317842  64.1825069 119.7885626  46.5707468  60.7650598
 119.8745878  46.1939337  61.5464128 120.4161424  46.1967914  60.2870557
 119.8942177  46.4592951  60.8096076 124.5447742  44.2449563  58.8933482
 124.6463878  45.0475725  59.2214458 125.3403628  44.0436899  58.5956563
 124.6775647  44.3335462  58.8968838 125.3611474  44.3596741  66.6354604
 125.2196965  43.5080682  66.7599112 125.6452037  44.4025402  65.8116810
 125.3819320  44.2396491  66.5322228 124.8224796  46.8642774  60.0812876
 125.2023761  47.2827318  59.4173143 124.2480161  47.4456229  60.3881719
 124.7936121  47.0120632  60.0289617 120.8936110  49.1708802  64.6322268
 120.7879559  49.1255647  63.7674352 120.1436330  49.5162583  64.9136553
 120.7671713  49.2149710  64.5459598 123.0315390  47.3051856  67.1495270
 122.4842110  46.6352501  67.2676138 123.8207768  46.9381703  67.2138737
 123.0667574  47.1516842  67.1763970 121.7902360  46.5172663  64.3041293
 121.6124121  46.0649272  65.0296208 121.5021382  47.3198825  64.4879770
 121.7215313  46.5695221  64.4384796 123.5274830  49.0500387  61.4163052
 122.6620349  49.0386078  61.3045823 123.6273645  48.8630610  62.2634191
 123.4148997  49.0206448  61.5251996 121.7296142  51.7506012  64.5070689
 121.6320420  50.9402283  64.8160746 122.5125012  51.7297805  64.1216957
 121.8312278  51.6273102  64.4957552 118.1128763  17.2148075  46.2707088
 117.3611663  16.8363614  46.0423133 118.5614775  17.2466509  45.5225899
 118.0678430  17.1633682  46.1264591 123.1058015  19.5887713  47.6403747
 123.4897394  20.1574612  47.1008522 123.0417156  18.8637224  47.1609563
 123.1531442  19.5663177  47.4897610 119.5314259  22.1444057  49.9384717
 120.1751715  22.5857221  50.3280875 119.8570515  21.3397483  49.8514976
 119.6746088  22.0909251  49.9830194 114.4495889  18.1272425  49.4378401
 113.9663467  18.8522914  49.4137984 115.2619207  18.4248555  49.5488558
 114.4986636  18.2774778  49.4505680 117.3040086  18.6428601  49.5898681
 118.0060665  18.1280590  49.6471437 117.2237569  18.9702752  50.3945556
 117.3963846  18.6142827  49.7171473 124.4464087  18.7118541  54.3154627
 123.6479333  18.4718041  54.5728496 124.8950099  18.7632934  55.0621675
 124.3938698  18.6840932  54.4639552 114.0979825  16.7592025  51.7522006
 114.1383970  17.0306876  50.9241785 114.6574349  17.2833933  52.1679794
 114.1863171  16.8767780  51.6913894 115.5494411  15.3433974  46.5775932
 114.7232529  15.5895711  46.4510210 115.6106403  15.2646054  47.4437990
 115.4368578  15.3678923  46.6864876 120.3293240  17.9610854  44.2794962
 120.6191539  17.5699835  43.5554188 121.0596721  18.1427559  44.7200237
 120.4800125  17.9304668  44.2377769 118.2699156  19.9378236  47.3455111
 118.0499451  19.6475591  48.1381778 118.0493678  19.2793191  46.8173024
 118.2046750  19.7977945  47.3844020 120.4367112  21.3107626  46.1285804
 121.0891170  20.7784069  46.3576830 119.7392721  20.9576279  46.5153678
 120.4297830  21.1797149  46.2197971 119.2693089  18.5416145  53.9923149
 119.4182652  17.9819061  53.3396553 120.0493091  18.6208147  54.3755668
 119.4067182  18.4701711  53.9520098 121.7946389  18.7130788  55.2707640
 121.7190060  18.0439599  55.8258428 121.7236248  19.4148576  55.7848306
 121.7726996  18.7175695  55.4284488 121.1838024  22.1199108  53.7285641
 121.6733954  21.4209897  53.5461305 120.6122256  21.8222978  54.3161698
 121.1722553  21.9725332  53.7886681 122.2617153  19.5781569  52.0682774
 122.0382808  18.8200398  52.4366800 121.7726997  19.6079590  51.3463213
 122.1560602  19.4703794  52.0159515 120.9095610  19.7982027  49.5219858
 120.4956009  19.1356158  49.1323700 121.5942984  19.9459886  49.0015552
 120.9493982  19.7222685  49.3876355 124.2760904  18.9572113  50.2743475
 123.8777188  19.0674383  49.5064295 123.6612124  19.1654179  50.8570035
 124.1259794  19.0045681  50.2474774 117.8750080  20.2391109  51.9233204
 118.1896639  21.0527497  51.9310986 118.2843493  19.8541328  52.5915363
 117.9818178  20.3019811  52.0237296 123.8611147  28.7672062  48.1622195
 123.6261332  27.9339714  48.0554463 123.9996788  29.0476728  47.3483395
 123.8466810  28.6855565  48.0264550 123.6313293  26.9921427  53.5532016
 123.3651708  26.1760543  53.7123006 123.6451857  27.0374582  52.6827531
 123.5938015  26.8778331  53.4485498 124.0406707  27.7780206  50.8343760
 123.8582280  27.7527092  49.9816052 124.7756375  28.2479144  50.8732669
 124.1220770  27.8441568  50.7141678 124.0077617  24.6573707  50.9842826
 124.5851120  24.5210157  51.6235072 123.3091679  24.2009491  51.2388411
 123.9898638  24.5695973  51.1165116 119.4836450  23.5085600  47.6990645
 119.5696702  23.1317468  48.4804175 120.1112248  23.1346045  47.2210603
 119.5893001  23.3971082  47.7436122 125.0712409  32.2777333  51.7522006
 125.1116554  32.5492184  50.9241785 125.6306933  32.8019241  52.1679794
 125.1595755  32.3953088  51.6913894 124.2398565  21.1827694  45.8273529
 124.3414702  21.9853856  46.1554505 125.0354452  20.9815030  45.5296610
 124.3726471  21.2713593  45.8308885 125.0562298  21.2974873  53.5694651
 124.9147789  20.4458813  53.6939159 125.3402861  21.3403533  52.7456857
 125.0770144  21.1774623  53.4662275 124.5175620  23.8020905  47.0152923
 124.8974585  24.2205450  46.3513190 123.9430985  24.3834360  47.3221766
 124.4886945  23.9498764  46.9629664 125.6381989  22.9900846  49.4753168
 125.2438686  23.0643858  48.7003278 125.0822105  23.3758793  50.0261530
 125.4984801  23.0582621  49.4420828 125.3091092  29.4359169  54.2093967
 124.7791016  28.7451608  54.2588941 125.5816185  29.4269355  53.3806675
 125.2715814  29.3326301  54.0941383 120.5886934  26.1086933  51.5662315
 120.4830383  26.0633778  50.7014399 119.8387154  26.4540714  51.8476600
 120.4622537  26.1527842  51.4799645 125.8264150  21.3383121  58.8246827
 125.6566740  21.9984496  58.2795033 125.3830099  21.5489682  59.5459316
 125.7363483  21.4669103  58.8508456 122.7266214  24.2429987  54.0835317
 122.1792934  23.5730632  54.2016185 123.5158592  23.8759835  54.1478784
 122.7618398  24.0894973  54.1104017 121.4853184  23.4550795  51.2381340
 121.3074945  23.0027404  51.9636255 121.1972206  24.2576956  51.4219817
 121.4166137  23.5073352  51.3724843 123.2225653  25.9878518  48.3503099
 122.3571173  25.9764209  48.2385870 123.3224469  25.8008741  49.1974238
 123.1099820  25.9584580  48.4592043 121.4246966  28.6884143  51.4410736
 121.3271244  27.8780414  51.7500792 122.2075835  28.6675936  51.0557004
 121.5263102  28.5651233  51.4297599  27.0221061  62.6259465 119.8217715
  26.6872429  63.3036387 119.3861937  27.5347931  62.2364777 119.2334587
  27.0486642  62.6684044 119.6704507  31.8071851  56.1548029 122.1460316
  31.6911377  56.9055715 122.5752454  32.6027738  55.8971982 122.3956403
  31.9076440  56.2282876 122.2464407  29.5301156  56.8855673 120.4574606
  29.4452451  57.7416640 120.6024174  30.0185540  56.6099997 121.1256765
  29.5890054  56.9712995 120.5776687  27.1953112  59.7637178 118.6670662
  27.6104260  59.4322201 117.9755157  26.3645041  59.5306080 118.5390798
  27.1341120  59.6808434 118.5461509  29.8886502  56.0147737 117.8531863
  29.8066664  56.0849924 118.7186850  30.5266222  56.5777481 117.6615604
  29.9706339  56.1086708 117.9521812  23.7860578  62.9496874 122.4020041
  24.0758876  62.5585856 121.6779268  24.5164059  63.1313579 122.8425316
  23.9367462  62.9190688 122.3602848  23.8934449  66.2993647 124.2510883
  24.5458507  65.7670089 124.4801909  23.1960058  65.9462299 124.6378757
  23.8865167  66.1683170 124.3423051  31.8874368  58.6198061 123.5941863
  32.4532400  59.2791271 123.5100405  31.2402271  58.9647759 124.0658265
  31.8753124  58.7680002 123.6514619  28.3580946  61.5636845 123.0178942
  28.1167622  60.8304706 122.6106007  28.5382279  62.1123702 122.3645275
  28.3488570  61.5359236 122.8609165  33.0837065  58.6704289 120.3867499
  32.7043874  57.8841426 120.3796788  32.4203311  59.2191146 120.2439143
  32.9295540  58.6349112 120.3648296  28.4302634  59.2529991 116.2056275
  29.1975619  59.3130116 115.7962126  27.9833943  58.6810433 115.7212593
  28.4776061  59.1766567 116.0733985  31.3297164  60.9149780 120.7219185
  31.4117002  61.7216766 120.3980636  31.8146906  60.9345739 121.4459958
  31.4134322  61.0370442 120.7806084  25.1341707  60.8561902 120.9750627
  25.2034527  59.9976440 121.1143627  25.9130162  61.0733783 120.6469651
  25.2594557  60.7614766 120.9467784  29.5249194  63.2799603 125.1887120
  29.1328986  62.9766318 124.4709986  29.6802267  64.1168693 124.9992074
  29.4902784  63.3583440 125.0543617  24.4777235  55.5248758 117.6693385
  24.7669759  56.3013640 117.9436959  24.5649033  55.0137489 118.3707884
  24.5331491  55.5640676 117.8135883  28.8245936  59.4885584 121.0556729
  29.5480135  59.9543697 120.9121302  28.3846527  59.5559194 120.3054326
  28.8661628  59.5669421 120.9241510  29.0849786  63.5506289 121.2154790
  28.3679095  63.3767151 120.7502027  29.7356523  63.3158861 120.6830276
  29.0751636  63.4902082 121.0684008  35.4670084  58.5210100 121.7811645
  35.8503690  59.2701456 122.0109742  34.6714198  58.7675920 121.5223634
  35.4063867  58.6679794 121.7769219  44.9587860  69.0981035 123.8742006
  44.9281864  69.9525672 124.0460275  45.5569209  68.7976327 124.4328150
  45.0425018  69.1797531 123.9816808  38.1587545  68.1856686 128.6294936
  37.3025440  68.3465184 128.6804053  38.2055198  67.3148750 128.6499997
  38.0386656  68.0807488 128.6401002  32.5428684  77.7219404 124.3932168
  31.7911584  77.3434942 124.1648213  32.9914696  77.7537837 123.6450978
  32.4978351  77.6705011 124.2489670  37.9953644  78.1444773 119.8217715
  37.6605013  78.8221695 119.3861937  38.5080515  77.7550085 119.2334587
  38.0219225  78.1869351 119.6704507  37.5357936  80.0959042 125.7628827
  37.9197315  80.6645941 125.2233602  37.4717077  79.3708552 125.2834643
  37.5831363  80.0734505 125.6122689  41.0039366  70.2448730 131.2726588
  41.5495326  70.9233816 131.3320558  40.9456242  70.1036191 130.4128170
  41.0755280  70.3240731 131.1538649  34.1213441  77.7337796 126.6594940
  34.2223804  76.9238150 126.9692068  33.5255186  77.6394742 126.0294619
  34.0485979  77.6002824 126.6121179  42.7804434  71.6733337 122.1460316
  42.6643960  72.4241023 122.5752454  43.5760321  71.4157290 122.3956403
  42.8809024  71.7468184 122.2464407  33.9614180  82.6515385 128.0609797
  34.6051636  83.0928549 128.4505955  34.2870436  81.8468811 127.9740055
  34.1046009  82.5980580 128.1055274  27.3178485  73.7558082 126.2847274
  27.0828669  72.9225735 126.1779543  27.4564126  74.0362748 125.4708475
  27.3034147  73.6741586 126.1489629  34.6634760  75.6627360 123.4329658
  34.9850601  76.2032567 122.8290966  35.3106856  75.0924131 123.5651948
  34.8060815  75.6586535 123.3636694  36.7136468  67.6643355 123.5164045
  37.4116633  67.8431482 124.0085508  37.0288801  67.1413694 122.8934434
  36.8631805  67.6137127 123.4966055  36.9024403  74.0513800 123.5043836
  37.3418039  73.4430900 123.9498609  36.7529066  73.6721173 122.7329301
  36.9445869  73.9052271 123.4563004  34.3696046  72.6457812 130.7062662
  35.0145049  72.1530255 130.3873610  34.6097823  72.7882598 131.5328740
  34.5006631  72.5935254 130.7812195  36.9082138  75.4912718 130.3569554
  37.1905381  74.6964123 130.1356310  37.6368298  75.9693305 130.3774615
  37.0571701  75.4447315 130.3272570  40.5033740  72.4040981 120.4574606
  40.4185035  73.2601948 120.6024174  40.9918123  72.1285305 121.1256765
  40.5622637  72.4898303 120.5776687  42.0939739  59.0221274 125.8434930
  41.7793180  59.7124753 126.2755353  41.5766681  58.9666057 125.1420431
  41.9704210  59.1156163 125.8031879  41.4352173  69.0225775 121.9572341
  40.9063645  69.2385409 122.6169647  41.9577193  69.7161914 121.8773310
  41.4340626  69.1568912 122.0427940  46.8900226  74.5972080 127.3305385
  46.0597929  74.8082723 127.4938802  46.8409478  73.7709134 127.0547669
  46.7606961  74.5061686 127.3142751  33.3251781  72.9188992 120.7579809
  32.7408996  73.4239024 121.1645673  32.9221876  72.6931379 120.0176401
  33.1791085  72.9597240 120.7084834  34.9509964  77.4275934 130.1653295
  34.4336905  77.0683349 129.5614603  35.6484355  76.9038108 130.1759361
  34.9775545  77.2973622 130.0783553  37.7828995  69.1654644 119.2348729
  38.0224999  69.3732628 118.4224072  38.1044836  68.3612153 119.3437674
  37.8666153  69.0768745 119.1309282  33.0919286  61.0948040 123.0808267
  33.8465254  61.4626357 122.8425317  32.9146820  61.4687594 123.8487447
  33.1773764  61.2046228 123.1593156  31.7340007  79.1499929 127.7123760
  32.4360586  78.6351918 127.7696517  31.6537490  79.4774081 128.5170635
  31.8263767  79.1214155 127.8396552  46.3854184  67.2442480 131.1255807
  45.5482605  67.3144668 131.3603401  46.3542415  67.2466975 130.2530109
  46.2572467  67.2552707 131.0315355  31.4476350  63.5018359 119.7786380
  31.2651924  63.7190240 118.9527373  32.3101963  63.6157372 119.8344995
  31.5480940  63.5508257 119.6640867  31.0590782  75.3406281 127.2209368
  31.8979682  75.5729214 127.2683130  31.0902551  74.4710593 127.1516404
  31.1872500  75.2463228 127.2174013  37.1276070  60.5044770 122.8135404
  37.8562230  60.3260725 122.3673560  37.2170962  61.3462849 123.0242582
  37.2482732  60.6028648 122.7788922  41.1084370  71.4398157 126.7167698
  41.8641885  71.8729671 126.7556607  41.2146695  70.7902927 127.2902334
  41.2354541  71.4075641 126.8065724  44.1464541  75.2671434 127.4670101
  43.7099773  75.2708177 128.2229072  43.8127457  75.9476933 127.0349678
  44.0327161  75.3683890 127.5150934  44.0662024  62.3085262 129.7099529
  44.7087933  62.3783367 130.2961444  44.3185045  61.6414485 129.2079071
  44.1984156  62.2211611 129.7226808  30.9938377  66.7792532 118.2908853
  30.2796554  66.4930711 118.7031286  31.4782346  67.1189157 118.9315241
  30.9597741  66.7874181 118.4464488  38.8764008  79.2189869 132.4379707
  38.0779254  78.9789369 132.6953576  39.3250020  79.2704262 133.1846755
  38.8238619  79.1912260 132.5864631  47.2808888  71.9852354 126.3589738
  47.9425322  71.4243023 126.2585647  46.6400299  71.4904385 126.6842429
  47.2837755  71.8288763 126.3922078  38.1685695  75.2822486 118.6670662
  38.5836844  74.9507509 117.9755157  37.3377625  75.0491388 118.5390798
  38.1073704  75.1993741 118.5461509  27.4974044  72.7666227 128.9568839
  27.3149617  72.7413113 128.1041132  28.2323713  73.2365164 128.9957748
  27.5788108  72.8327589 128.8366758  43.5673718  73.0017737 126.1001727
  43.8029307  73.1462935 125.2728578  43.7163282  73.7660145 126.4933241
  43.6239521  73.1356791 126.0365331  45.3964175  71.8419402 123.9371331
  45.7272392  72.3747043 123.3311426  45.9697263  71.8958290 124.5933282
  45.5297854  71.9288971 123.9449113  40.6096064  69.6884305 124.6194911
  40.7042918  70.4273599 125.0734536  39.9854908  69.2601781 125.0529475
  40.5305094  69.7345626 124.7503058  40.8619085  71.5333045 117.8531863
  40.7799248  71.6035232 118.7186850  41.4998806  72.0962789 117.6615604
  40.9438923  71.6272016 117.9521812  34.2212257  71.2993783 127.3206389
  33.9631501  70.4665518 127.2937689  34.2760739  71.5251396 126.4798890
  34.1912034  71.2091554 127.1926526  39.3013307  63.4022234 127.4210482
  38.5969633  62.9131419 127.5794401  39.3498281  63.4144708 126.5498926
  39.2043358  63.3311882 127.3149822  33.1946969  68.8531545 127.8071284
  32.6196560  69.0123714 128.4435245  32.8182645  68.2166954 127.3439735
  33.0549781  68.7829358 127.8325842  46.5043526  67.0829899 125.4411492
  46.2480091  66.2709841 125.2509375  47.3472840  67.0907466 125.2141680
  46.5909552  66.9641897 125.3796310  37.9659196  71.5553499 120.8640469
  38.7799834  71.8468392 120.7523241  37.9018337  70.9013362 120.2898762
  38.0761935  71.5018694 120.7629307  44.1868686  74.2379495 135.2770045
  43.9507323  73.4067560 135.1582106  44.8311915  74.1865103 135.8624889
  44.2463357  74.1077183 135.3455939  33.8367104  75.0275017 125.9912782
  34.4741051  74.7886764 126.5364575  34.2622175  75.2312176 125.2565942
  33.9943270  75.0226027 125.9629939  34.4769919  70.2477306 120.3287671
  34.8615072  70.0285013 121.0804216  34.2281539  71.0740252 120.4588747
  34.4971991  70.3375453 120.4588747  45.2105106  74.0223944 131.3398340
  44.9050923  74.7552001 131.7011655  44.4911322  73.6161874 131.0591126
  45.0592449  74.0705677 131.3511477  36.2188576  75.5047439 127.6706568
  36.2927584  75.3422611 128.5248418  37.0358082  75.6937629 127.4267049
  36.3504934  75.5084182 127.7604593  50.9106899  70.6616945 130.6666684
  50.8431399  70.6812904 129.7969270  50.8962561  71.5047272 130.8922354
  50.8985655  70.7890679 130.5719161  29.9794332  75.8505302 124.7001011
  29.1532450  76.0967039 124.5735290  30.0406324  75.7717383 125.5663069
  29.8668499  75.8750251 124.8089956  32.1970356  61.9174243 125.6596451
  31.3292782  61.9896843 125.7254061  32.4845561  62.7196322 125.8484427
  32.1110104  62.0468390 125.6971218  34.7593161  78.4682182 122.4020041
  35.0491460  78.0771164 121.6779268  35.4896642  78.6498887 122.8425316
  34.9100046  78.4375996 122.3602848  48.6965516  69.4361331 128.9413278
  49.2473437  68.8029400 129.1810370  48.6809631  69.9676724 129.6328782
  48.7750712  69.4210279 129.0792136  35.3487907  73.2699928 133.4873172
  34.8499600  73.9815696 133.5658060  36.1588131  73.5900595 133.4491334
  35.3944013  73.4226777 133.4929740  32.6999077  80.4449565 125.4680191
  32.4799373  80.1546920 126.2606858  32.4793599  79.7864520 124.9398103
  32.6346671  80.3049273 125.5069100  31.6116024  72.5322881 127.7335893
  31.3229273  71.9060353 128.2681620  32.4799372  72.4743169 127.8000573
  31.6976276  72.4310426 127.8226847  42.3993922  67.6757665 128.0517874
  42.0558688  66.9548000 128.4025124  42.4986965  67.4671516 127.2096233
  42.3635965  67.5381868 127.9789554  34.8667033  81.8178955 124.2510883
  35.5191091  81.2855397 124.4801909  34.1692642  81.4647607 124.6378757
  34.8597751  81.6868478 124.3423051  31.8148298  74.1718132 123.6578258
  32.5694266  74.5531171 123.8713720  31.2218910  74.6229276 124.1124954
  31.8385011  74.2946960 123.7561136  42.8606951  74.1383369 123.5941863
  43.4264984  74.7976579 123.5100405  42.2134855  74.4833067 124.0658265
  42.8485708  74.2865310 123.6514619  33.1346524  75.3426694 129.0318373
  32.6127278  75.4826985 129.7170238  33.5220545  74.5837358 129.2220490
  33.1150225  75.2512218 129.1619450  30.1237708  65.3932502 123.1013328
  29.8362504  65.0233773 122.3645275  30.8108177  65.8627358 122.8397033
  30.1826606  65.4079472 122.9528403  39.3313529  77.0822153 123.0178942
  39.0900205  76.3490014 122.6106007  39.5114862  77.6309010 122.3645275
  39.3221153  77.0544544 122.8609165  34.5612850  72.3730713 124.4299864
  34.3655633  72.9805447 123.8360167  34.7847195  71.6798657 123.9491538
  34.5647491  72.3608238 124.2715945  32.9591380  69.2585451 124.5480732
  33.6814032  69.4226609 124.0884538  32.4799373  69.9795115 124.4420072
  32.9955111  69.3883680 124.4646346  40.9184888  65.5949249 129.9277417
  40.0795988  65.6210528 129.6915681  40.9889255  66.2419985 130.5082764
  40.8053281  65.6945375 129.9786534  39.3654166  62.4934626 124.6605033
  40.0680519  62.2942375 124.1824991  39.0998354  61.7210569 124.9673877
  39.4300798  62.3497592 124.6350475  44.7942411  70.8017236 127.2138659
  44.7076386  70.9572662 128.0673438  44.3392891  71.4455312 126.8398064
  44.7145668  70.9192991 127.2845766  27.6965903  66.1713715 123.9498609
  27.7982039  66.9739876 124.2779584  28.4921790  65.9701051 123.6521689
  27.8293809  66.2599614 123.9533964  38.6668227  68.1227983 125.8364219
  38.4202942  68.0423734 126.6701008  38.9953350  67.3381451 125.6426746
  38.6789471  67.9954249 125.9311742  42.5616276  74.8311343 129.6251000
  42.4230635  75.5292388 130.1299742  41.7816274  74.6759999 129.2687182
  42.4259503  74.9111509 129.6477274  44.0569649  74.1889596 120.3867499
  43.6776458  73.4026734 120.3796788  43.3935894  74.7376453 120.2439143
  43.9028124  74.1534420 120.3648296  36.8816557  77.7403115 124.2256325
  37.6466448  77.4712759 123.9038990  36.7794647  77.2553126 124.9426388
  36.9798053  77.6292680 124.2836153  39.4035218  74.7715299 116.2056275
  40.1708203  74.8315424 115.7962126  38.9566527  74.1995741 115.7212593
  39.4508645  74.6951875 116.0733985  40.3013013  73.5769955 128.4909007
  39.6258015  73.3455187 128.9922394  40.3105389  72.9691138 127.8651112
  40.2031518  73.4528880 128.4725159  42.3029748  76.4335087 120.7219185
  42.3849585  77.2402074 120.3980636  42.7879490  76.4531047 121.4459958
  42.3866906  76.5555750 120.7806084  36.1126251  71.1119923 129.3889263
  35.6888500  71.3124422 128.6528281  35.9371106  70.2648771 129.5013563
  36.0237132  71.0168705 129.2962953  31.4008696  71.6071975 124.8217235
  31.5573315  71.5418778 125.6773227  31.7409289  72.3820527 124.6095915
  31.4741931  71.7121173 124.9171830  37.9387841  70.9829858 123.6910599
  38.4803386  70.4800239 124.1549219  38.2534400  70.9295053 122.8800084
  38.0652238  70.9009279 123.6394411  36.1074290  76.3747210 120.9750627
  36.1767111  75.5161748 121.1143627  36.8862746  76.5919091 120.6469651
  36.2327141  76.2800074 120.9467784  40.4981778  78.7984911 125.1887120
  40.1061570  78.4951626 124.4709986  40.6534850  79.6354001 124.9992074
  40.4635368  78.8768748 125.0543617  27.9742958  68.7906925 125.1378003
  28.3541922  69.2091470 124.4738270  27.3998322  69.3720381 125.4446846
  27.9454282  68.9384784 125.0854743  40.6621453  75.3634900 125.1293150
  40.3036108  75.5349543 125.9057183  40.1760164  75.8248106 124.5721149
  40.5380150  75.4573871 125.1618420  35.4509818  71.0434065 117.6693385
  35.7402343  71.8198948 117.9436959  35.5381617  70.5322797 118.3707884
  35.5064074  71.0825984 117.8135883  41.8226192  76.2538796 136.0760351
  42.4605913  75.7598992 135.7422807  41.1800284  76.1816197 135.4912578
  41.8220419  76.1697805 135.9402706  43.5483192  68.1027942 130.6426267
  43.1210800  68.0154291 129.8874367  42.9109245  68.2105718 131.2281111
  43.3912799  68.1060602 130.6171709  41.8780449  76.9458604 132.7165708
  42.6672827  76.5947669 132.8367790  42.0524047  77.7594993 132.4542342
  42.0200730  77.0144461 132.6953576  31.6173759  70.3567330 129.7693497
  30.7761766  70.2571204 129.9772391  31.8263767  71.1262810 130.1207818
  31.5238452  70.4559373 129.8520812  29.0949326  67.9786867 127.5978248
  28.7006024  68.0529879 126.8228357  28.5389443  68.3644813 128.1486609
  28.9552138  68.0468642 127.5645907  40.7314273  60.9568161 127.2782127
  40.9363866  60.8890469 128.1239124  40.4040697  61.7626982 127.2103304
  40.7129521  61.0654101 127.3941782  35.4290424  68.2848729 129.0191094
  35.1253562  67.7304717 129.6201502  34.7269845  68.4640939 128.5319129
  35.2806634  68.2293512 129.0360800  34.4856521  65.5949249 123.5835796
  34.7616255  64.8768162 123.1713364  35.0855190  66.1934169 123.3756902
  34.6149786  65.5769620 123.4916558  43.9847961  61.5099925 126.7584892
  43.3722274  61.9970327 127.1438624  44.0812135  60.8343416 127.3022543
  43.9085858  61.4818234 126.8963750  37.9867042  63.2662766 121.8582391
  38.4410788  63.4373327 122.5830236  38.4607087  62.6530877 121.4580167
  38.1235362  63.2013652 121.9056153  31.5082567  72.7511092 131.1885130
  30.9170500  73.3920591 131.1588145  32.2703591  73.1748710 131.1616429
  31.5330828  72.9086931 131.1800277  47.6272989  72.5816862 132.1862408
  47.6856112  73.0303511 132.9322385  46.9939456  72.9915675 131.7492488
  47.5424284  72.7090597 132.2314956  41.2672083  78.2020404 128.6217154
  41.0691772  78.6911218 127.9273366  40.6459794  78.4061645 129.2001288
  41.1459648  78.3036942 128.6040378  35.3280062  69.9705301 122.9627399
  36.0722107  70.3579577 123.2010348  35.4740758  69.1262726 123.1267886
  35.4590647  69.9035774 123.0221368  38.3157937  65.5430774 128.8621318
  37.8417892  65.0172536 129.3726629  38.6876073  64.9960247 128.2936179
  38.3007826  65.3846771 128.8536465  44.5794668  70.6033150 130.2728098
  44.3392891  69.7639565 130.2770525  45.0586675  70.6833316 130.9968872
  44.6146852  70.4914549 130.3802901  40.2441437  66.4367329 121.9247072
  39.7164456  66.5196073 121.2352781  40.7037145  67.1785200 121.9211716
  40.2343288  66.5587991 121.8221767  46.5799855  67.3834607 128.2257358
  46.3409625  67.3430441 127.3878142  46.7433756  68.2305759 128.3523079
  46.5690159  67.5026692 128.1210839  43.1845885  71.7684556 134.1562403
  43.9080084  71.3157083 133.9773423  42.9195848  72.0489222 133.3734731
  43.2527158  71.7435525 134.0141118  32.2374502  64.7069848 116.9487967
  31.8887307  65.3589573 117.4119516  31.7570948  64.6926961 116.2211838
  32.1144746  64.8012902 116.9099058  39.7978520  75.0070892 121.0556729
  40.5212719  75.4729005 120.9121302  39.3579111  75.0744502 120.3054326
  39.8394212  75.0854729 120.9241510  38.9664675  71.8668434 132.3057418
  38.3521668  71.3226485 132.6006053  39.4831960  71.3532671 131.8263234
  38.9520337  71.7104844 132.2781646  38.2060972  72.9372704 130.0401716
  37.7788580  72.3122423 129.6067152  38.1985916  72.6547626 130.8660724
  38.1420113  72.8025485 130.0981544  32.6098411  67.3328379 122.4614011
  32.7501372  67.8300843 123.1642653  33.1080944  66.6314673 122.6028225
  32.7039492  67.3030357 122.5865590  32.6398633  68.1995490 119.7906588
  33.2743713  68.7955915 119.7256050  32.7224244  67.8998947 120.6052458
  32.7455184  68.2436398 119.9009675  45.6181199  70.7310967 132.6592952
  46.2099039  71.3708218 132.6911150  46.0540194  70.0334004 132.9485019
  45.7699630  70.7229317 132.7073785  34.2177616  64.1309465 119.7652030
  34.5393457  63.6512548 119.1111293  34.4804560  64.9409111 119.5742842
  34.3043642  64.1799363 119.6407522  37.4474589  75.1528339 133.2850846
  36.9399680  75.7064186 133.7291477  37.1501235  75.2136629 132.4669621
  37.3279474  75.2434651 133.2299303  29.1451621  70.3963330 123.0596134
  29.6543851  70.9927838 123.4407440  29.6185894  70.1289304 122.3772554
  29.2894997  70.4449146 123.0150657  40.0582369  79.0691597 121.2154790
  39.3411679  78.8952459 120.7502027  40.7089107  78.8344169 120.6830276
  40.0484220  79.0087390 121.0684008  38.0530994  59.9896759 125.5366086
  37.4099312  59.8394405 126.1051225  37.7130401  59.7439104 124.7715191
  37.9076071  59.9308881 125.5069101  42.6430341  67.9456186 124.9596095
  41.9721530  68.4885888 124.8309160  43.3370091  68.4151041 124.7177790
  42.6459208  68.0954457 124.9051623  36.6917074  80.0852898 130.1907853
  36.4682729  79.3271727 130.5591880  36.2026918  80.1150919 129.4688293
  36.5860523  79.9775122 130.1384594  42.8058468  64.4012069 127.8686468
  43.1586078  63.9741792 128.5432267  41.9473269  64.3162913 127.9987545
  42.7307913  64.3256810 127.9881479  31.5042153  67.0319589 125.9269315
  30.7854142  67.4483722 126.1942178  31.8754515  67.5973828 125.3760953
  31.4534085  67.1768870 125.8852122  40.8041734  67.6647438 131.8171310
  40.7839661  67.4830733 132.6706089  40.8520935  68.5359456 131.7930894
  40.8076375  67.7663976 131.9394605  35.3395531  80.3053356 127.6444938
  34.9255930  79.6427486 127.2548779  36.0242905  80.4531215 127.1240632
  35.3793903  80.2294014 127.5101435  38.7060825  79.4643441 128.3968554
  38.3077109  79.5745711 127.6289375  38.0912045  79.6725507 128.9795114
  38.5559715  79.5117009 128.3699854  37.2788727  66.0717589 121.2642694
  36.6853567  66.3934585 120.7127261  37.3164005  65.2258684 121.0563800
  37.1963116  65.9941917 121.1525465  44.2382528  59.5230481 128.7970781
  43.7313393  58.8159621 128.7291958  45.0349962  59.1923670 128.9271857
  44.2809767  59.3703633 128.8069776  40.1546544  66.0297093 124.6944444
  39.9260237  66.0529795 123.8522803  40.4144620  65.2054560 124.8139455
  40.1592732  65.9113173 124.5869642  33.2091306  64.5673640 125.9898640
  33.6848673  64.9290720 125.3548821  32.7079906  65.2230107 126.2698783
  33.2056665  64.7167828 125.9375381  46.4402668  74.0395408 121.7811645
  46.8236274  74.7886764 122.0109742  45.6446781  74.2861227 121.5223634
  46.3796450  74.1865102 121.7769219  35.2517960  66.7114839 119.3572024
  35.6316924  66.7294469 118.5723139  34.5110556  67.1568828 119.2362871
  35.1986797  66.7796614 119.2235592  42.8803250  65.0197031 124.9447603
  42.8797477  64.8645687 125.8031879  42.6759430  65.8660018 124.8888988
  42.8503028  65.1217651 125.0635542  40.6044102  69.6994532 128.5983810
  41.0997767  68.9817528 128.5587830  39.7943878  69.3965330 128.4838296
  40.5587995  69.5492179 128.5757535  36.0502714  73.5492346 120.7480814
  35.2414036  73.2259019 120.7014123  36.5577623  72.8425568 120.6809063
  36.0052380  73.3973662 120.7311108  26.6792991  70.9764539 126.4728178
  25.8138510  70.9650229 126.3610949  26.7791807  70.7894762 127.3199318
  26.5667158  70.9470600 126.5817123  42.6695921  72.4498220 131.2860938
  43.0950993  71.9272642 130.7331363  42.3052841  73.0479057 130.7649561
  42.6782524  72.4608447 131.1269948  39.2574520  76.1632484 127.6162096
  39.7285699  76.8772747 127.7852081  39.5934699  75.5631234 128.1521965
  39.3769636  76.1803949 127.7194472  39.8948467  75.9550418 134.3789788
  39.3469413  75.3308302 134.1109854  40.3561496  76.1444690 133.6633868
  39.8815676  75.8909469 134.2340220  35.2437130  62.9376368 122.0399656
  36.0652825  63.1074681 121.7981350  34.7806781  63.0923629 121.3165953
  35.2968293  62.9858101 121.8971300  29.6463021  74.6935546 129.6936892
  30.2507878  74.6531380 129.0650713  29.4390333  75.5406698 129.7240948
  29.7051918  74.8123548 129.6053009  39.4606793  76.9601491 130.9099130
  40.2805167  76.8164457 131.1715425  39.1800871  77.5847690 131.4515567
  39.5403536  77.0311843 131.0287069  55.9320443  84.6166343 123.8742006
  55.9014448  85.4710980 124.0460275  56.5301792  84.3161635 124.4328150
  56.0157601  84.6982839 123.9816808  49.1320128  83.7041994 128.6294936
  48.2758024  83.8650492 128.6804053  49.1787782  82.8334058 128.6499997
  49.0119240  83.5992796 128.6401002  43.5161268  93.2404712 124.3932168
  42.7644168  92.8620250 124.1648213  43.9647280  93.2723145 123.6450978
  43.4710935  93.1890319 124.2489670  48.9686228  93.6630081 119.8217715
  48.6337596  94.3407003 119.3861937  49.4813098  93.2735392 119.2334587
  48.9951809  93.7054659 119.6704507  48.5090519  95.6144350 125.7628827
  48.8929899  96.1831249 125.2233602  48.4449660  94.8893860 125.2834643
  48.5563946  95.5919813 125.6122689  45.0946024  93.2523104 126.6594940
  45.1956387  92.4423458 126.9692068  44.4987769  93.1580050 126.0294619
  45.0218563  93.1188132 126.6121179  53.7537018  87.1918645 122.1460316
  53.6376544  87.9426331 122.5752454  54.5492905  86.9342598 122.3956403
  53.8541607  87.2653492 122.2464407  38.2911069  89.2743390 126.2847274
  38.0561253  88.4411043 126.1779543  38.4296709  89.5548056 125.4708475
  38.2766731  89.1926894 126.1489629  40.5901156  81.4429121 129.1831582
  39.9706188  80.8521768 129.0141597  40.4885020  82.0340556 128.5495905
  40.4838831  81.4433204 129.0636571  45.6367344  91.1812668 123.4329658
  45.9583185  91.7217875 122.8290966  46.2839440  90.6109439 123.5651948
  45.7793399  91.1771843 123.3636694  47.6869052  83.1828663 123.5164045
  48.3849216  83.3616790 124.0085508  48.0021384  82.6599002 122.8934434
  47.8364389  83.1322435 123.4966055  40.3170289  84.9881403 131.4275151
  40.1928986  85.5743848 132.0624970  40.9688573  84.4941598 131.7287426
  40.3943938  85.0020207 131.5661080  47.8756987  89.5699108 123.5043836
  48.3150622  88.9616208 123.9498609  47.7261650  89.1906481 122.7329301
  47.9178453  89.4237579 123.4563004  45.3428630  88.1643120 130.7062662
  45.9877633  87.6715563 130.3873610  45.5830407  88.3067906 131.5328740
  45.4739215  88.1120562 130.7812195  45.8595915  78.5521059 127.5985320
  45.5299245  79.0032203 126.9289018  45.1840917  78.4737223 128.1458326
  45.7106351  78.6072195 127.5808543  51.4766324  87.9226289 120.4574606
  51.3917619  88.7787256 120.6024174  51.9650707  87.6470613 121.1256765
  51.5355221  88.0083611 120.5776687  53.0672323  74.5406582 125.8434930
  52.7525764  75.2310061 126.2755353  52.5499265  74.4851365 125.1420431
  52.9436793  74.6341471 125.8031879  52.4084757  84.5411083 121.9572341
  51.8796228  84.7570717 122.6169647  52.9309777  85.2347222 121.8773310
  52.4073210  84.6754220 122.0427940  44.2984365  88.4374300 120.7579809
  43.7141580  88.9424331 121.1645673  43.8954460  88.2116687 120.0176401
  44.1523668  88.4782548 120.7084834  48.7561579  84.6839952 119.2348729
  48.9957583  84.8917936 118.4224072  49.0777420  83.8797461 119.3437674
  48.8398737  84.5954053 119.1309282  44.0651869  76.6133348 123.0808267
  44.8197837  76.9811665 122.8425317  43.8879404  76.9872902 123.8487447
  44.1506348  76.7231536 123.1593156  42.7072590  94.6685237 127.7123760
  43.4093170  94.1537226 127.7696517  42.6270074  94.9959388 128.5170635
  42.7996351  94.6399463 127.8396552  42.4208934  79.0203667 119.7786380
  42.2384507  79.2375548 118.9527373  43.2834547  79.1342680 119.8344995
  42.5213523  79.0693565 119.6640867  42.0323366  90.8591589 127.2209368
  42.8712265  91.0914522 127.2683130  42.0635135  89.9895901 127.1516404
  42.1605083  90.7648536 127.2174013  48.1008653  76.0230078 122.8135404
  48.8294814  75.8446032 122.3673560  48.1903546  76.8648157 123.0242582
  48.2215315  76.1213956 122.7788922  52.0816954  86.9583465 126.7167698
  52.8374469  87.3914979 126.7556607  52.1879278  86.3088235 127.2902334
  52.2087124  86.9260949 126.8065724  55.0394608  77.8270570 129.7099529
  55.6820516  77.8968675 130.2961444  55.2917628  77.1599793 129.2079071
  55.1716740  77.7396919 129.7226808  41.9670961  82.2977840 118.2908853
  41.2529138  82.0116019 118.7031286  42.4514930  82.6374465 118.9315241
  41.9330324  82.3059489 118.4464488  42.8111820  81.0371133 134.3224103
  42.1183617  80.5668113 134.5684834  43.4272148  80.8109438 134.8965810
  42.7996350  80.9338265 134.4433256  58.2541471  87.5037662 126.3589738
  58.9157905  86.9428331 126.2585647  57.6132883  87.0089693 126.6842429
  58.2570339  87.3474071 126.3922078  49.1418279  90.8007793 118.6670662
  49.5569427  90.4692817 117.9755157  48.3110208  90.5676696 118.5390798
  49.0806288  90.7179049 118.5461509  38.4706628  88.2851534 128.9568839
  38.2882201  88.2598420 128.1041132  39.2056297  88.7550472 128.9957748
  38.5520691  88.3512897 128.8366758  54.5406302  88.5203044 126.1001727
  54.7761891  88.6648243 125.2728578  54.6895865  89.2845452 126.4933241
  54.5972105  88.6542099 126.0365331  56.3696759  87.3604710 123.9371331
  56.7004976  87.8932351 123.3311426  56.9429847  87.4143598 124.5933282
  56.5030438  87.4474279 123.9449113  51.5828648  85.2069613 124.6194911
  51.6775502  85.9458907 125.0734536  50.9587491  84.7787089 125.0529475
  51.5037678  85.2530934 124.7503058  38.4377538  85.1645035 129.1067906
  39.0151041  85.0281486 129.7460151  37.7391600  84.7080819 129.3613490
  38.4198559  85.0767301 129.2390196  51.8351669  87.0518353 117.8531863
  51.7531831  87.1220540 118.7186850  52.4731389  87.6148097 117.6615604
  51.9171506  87.1457324 117.9521812  45.1944840  86.8179091 127.3206389
  44.9364084  85.9850826 127.2937689  45.2493323  87.0436704 126.4798890
  45.1644618  86.7276862 127.1926526  50.2745890  78.9207542 127.4210482
  49.5702217  78.4316727 127.5794401  50.3230865  78.9330016 126.5498926
  50.1775942  78.8497189 127.3149822  44.1679552  84.3716853 127.8071284
  43.5929144  84.5309022 128.4435245  43.7915229  83.7352262 127.3439735
  44.0282365  84.3014666 127.8325842  47.8352841  82.8440203 132.6663662
  47.4467274  82.4194420 132.0115854  47.1707539  83.0922352 133.1740689
  47.6799769  82.8178924 132.6451530  57.4776110  82.6015207 125.4411492
  57.2212675  81.7895149 125.2509375  58.3205424  82.6092774 125.2141680
  57.5642135  82.4827205 125.3796310  33.9136371  84.0156928 125.8215725
  33.9996623  83.6388796 126.6029255  34.5412169  83.6417374 125.3435683
  34.0192922  83.9042410 125.8661202  51.6579202  76.5414831 130.1787647
  52.0389714  75.8593002 130.5655521  50.8542487  76.2524433 129.9963311
  51.5955664  76.3981880 130.2091703  48.9391779  87.0738807 120.8640469
  49.7532418  87.3653700 120.7523241  48.8750920  86.4198670 120.2898762
  49.0494518  87.0204002 120.7629307  44.8099687  90.5460325 125.9912782
  45.4473634  90.3072072 126.5364575  45.2354759  90.7497484 125.2565942
  44.9675854  90.5411335 125.9629939  45.4502502  85.7662614 120.3287671
  45.8347655  85.5470321 121.0804216  45.2014123  86.5925560 120.4588747
  45.4704575  85.8560761 120.4588747  47.1921159  91.0232747 127.6706568
  47.2660168  90.8607919 128.5248418  48.0090666  91.2122937 127.4267049
  47.3237518  91.0269490 127.7604593  40.9526916  91.3690610 124.7001011
  40.1265034  91.6152347 124.5735290  41.0138907  91.2902691 125.5663069
  40.8401083  91.3935559 124.8089956  43.1702940  77.4359551 125.6596451
  42.3025365  77.5082151 125.7254061  43.4578144  78.2381630 125.8484427
  43.0842688  77.5653698 125.6971218  52.2935829  77.5837410 133.9907773
  53.0389421  77.3947221 133.5771199  51.8773133  78.1095648 133.4321630
  52.3420803  77.6339556 133.8472346  45.7325745  93.9867490 122.4020041
  46.0224043  93.5956472 121.6779268  46.4629226  94.1684195 122.8425316
  45.8832629  93.9561304 122.3602848  43.6731661  95.9634873 125.4680191
  43.4531956  95.6732227 126.2606858  43.4526183  95.3049828 124.9398103
  43.6079255  95.8234581 125.5069100  42.5848608  88.0508189 127.7335893
  42.2961856  87.4245660 128.2681620  43.4531956  87.9928477 127.8000573
  42.6708860  87.9495733 127.8226847  53.3726506  83.1942973 128.0517874
  53.0291272  82.4733308 128.4025124  53.4719548  82.9856824 127.2096233
  53.3368549  83.0567176 127.9789554  45.8399616  97.3364263 124.2510883
  46.4923674  96.8040705 124.4801909  45.1425225  96.9832915 124.6378757
  45.8330334  97.2053786 124.3423051  42.7880881  89.6903440 123.6578258
  43.5426849  90.0716479 123.8713720  42.1951494  90.1414584 124.1124954
  42.8117595  89.8132268 123.7561136  53.8339535  89.6568677 123.5941863
  54.3997567  90.3161887 123.5100405  53.1867438  90.0018375 124.0658265
  53.8218291  89.8050618 123.6514619  44.1079108  90.8612002 129.0318373
  43.5859861  91.0012293 129.7170238  44.4953128  90.1022666 129.2220490
  44.0882809  90.7697525 129.1619450  41.0970292  80.9117810 123.1013328
  40.8095088  80.5419081 122.3645275  41.7840760  81.3812666 122.8397033
  41.1559189  80.9264780 122.9528403  50.3046113  92.6007461 123.0178942
  50.0632789  91.8675322 122.6106007  50.4847446  93.1494318 122.3645275
  50.2953737  92.5729852 122.8609165  45.5345433  87.8916021 124.4299864
  45.3388216  88.4990755 123.8360167  45.7579779  87.1983965 123.9491538
  45.5380074  87.8793546 124.2715945  43.9323963  84.7770759 124.5480732
  44.6546615  84.9411917 124.0884538  43.4531956  85.4980423 124.4420072
  43.9687694  84.9068988 124.4646346  51.8917471  81.1134557 129.9277417
  51.0528572  81.1395836 129.6915681  51.9621838  81.7605293 130.5082764
  51.7785865  81.2130683 129.9786534  50.3386749  78.0119934 124.6605033
  51.0413102  77.8127683 124.1824991  50.0730938  77.2395877 124.9673877
  50.4033382  77.8682900 124.6350475  55.7674995  86.3202544 127.2138659
  55.6808969  86.4757970 128.0673438  55.3125475  86.9640620 126.8398064
  55.6878252  86.4378299 127.2845766  38.6698486  81.6899023 123.9498609
  38.7714623  82.4925184 124.2779584  39.4654373  81.4886359 123.6521689
  38.8026392  81.7784922 123.9533964  45.1015306  79.2755220 133.7135914
  44.9098503  79.2910354 134.5635337  45.9513902  79.4718894 133.6902569
  45.1991028  79.3069571 133.8359209  39.4862219  81.8046201 131.6919730
  39.3447710  80.9530142 131.8164238  39.7702782  81.8474862 130.8681936
  39.5070065  81.6845951 131.5887354  49.6400811  83.6413291 125.8364219
  49.3935525  83.5609042 126.6701008  49.9685934  82.8566759 125.6426746
  49.6522055  83.5139557 125.9311742  55.0302233  89.7074904 120.3867499
  54.6509041  88.9212042 120.3796788  54.3668478  90.2561761 120.2439143
  54.8760707  89.6719728 120.3648296  48.0119533  79.4710729 133.9207737
  48.4692147  80.2034703 134.0480529  48.0875861  79.0477194 134.6794993
  48.0910502  79.5167967 134.0508813  40.2552524  79.7176549 135.0097181
  39.7194713  79.1056907 135.3257948  40.3170289  80.2924685 135.6630847
  40.1848156  79.7123476 135.1532607  52.4846859  72.6500604 127.7901580
  52.6030427  73.1077067 127.0568883  52.3109034  71.8445865 127.5037798
  52.4766030  72.5994376 127.6402514  47.8549141  93.2588423 124.2256325
  48.6199032  92.9898067 123.9038990  47.7527231  92.7738434 124.9426388
  47.9530636  93.1477988 124.2836153  45.8901911  81.4612833 130.7649561
  45.0997985  81.2804293 131.0866897  46.2862533  80.6839785 130.7479855
  45.8318787  81.3200294 130.8102109  50.3767801  90.2900607 116.2056275
  51.1440786  90.3500732 115.7962126  49.9299110  89.7181049 115.7212593
  50.4241229  90.2137183 116.0733985  51.2745597  89.0955263 128.4909007
  50.5990599  88.8640495 128.9922394  51.2837973  88.4876446 127.8651112
  51.1764101  88.9714188 128.4725159  53.2762331  91.9520395 120.7219185
  53.3582169  92.7587382 120.3980636  53.7612074  91.9716355 121.4459958
  53.3599489  92.0741058 120.7806084  47.0858835  86.6305231 129.3889263
  46.6621084  86.8309730 128.6528281  46.9103690  85.7834079 129.5013563
  46.9969715  86.5354013 129.2962953  42.3741280  87.1257283 124.8217235
  42.5305899  87.0604086 125.6773227  42.7141873  87.9005835 124.6095915
  42.4474515  87.2306481 124.9171830  48.9120424  86.5015166 123.6910599
  49.4535970  85.9985547 124.1549219  49.2266983  86.4480361 122.8800084
  49.0384821  86.4194587 123.6394411  47.0806874  91.8932518 120.9750627
  47.1499694  91.0347056 121.1143627  47.8595329  92.1104399 120.6469651
  47.2059724  91.7985382 120.9467784  50.0609694  81.3951471 133.7432899
  50.2751663  80.7562385 133.1896253  49.4443593  81.8397295 133.3140761
  50.0015023  81.3661615 133.5983330  51.4714362  94.3170219 125.1887120
  51.0794153  94.0136934 124.4709986  51.6267434  95.1539309 124.9992074
  51.4367951  94.3954056 125.0543617  38.9475541  84.3092233 125.1378003
  39.3274506  84.7276778 124.4738270  38.3730906  84.8905689 125.4446846
  38.9186866  84.4570092 125.0854743  51.6354036  90.8820208 125.1293150
  51.2768691  91.0534851 125.9057183  51.1492747  91.3433414 124.5721149
  51.5112733  90.9759179 125.1618420  49.4524422  74.5051407 128.7320242
  48.5817980  74.4790128 128.6853551  49.7064764  74.3328599 127.9146088
  49.3617982  74.4761550 128.6040379  46.4242402  86.5619373 117.6693385
  46.7134927  87.3384256 117.9436959  46.5114201  86.0508105 118.3707884
  46.4796658  86.6011292 117.8135883  46.4773563  76.5157635 130.1893712
  45.9612051  75.8237826 130.3145291  45.9167492  77.1828412 130.1356311
  46.3180076  76.5120893 130.1999778  48.5465796  77.0550595 132.0186565
  48.1597549  77.0799626 132.8000095  48.0598734  76.4892274 131.5661081
  48.4178305  76.9746346 132.0674468  54.5215776  83.6213250 130.6426267
  54.0943384  83.5339599 129.8874367  53.8841829  83.7291025 131.2281111
  54.3645383  83.6245910 130.6171709  48.2122938  73.9417580 134.3096825
  48.8416056  74.4777881 134.0317895  48.3808801  73.8494939 135.1610390
  48.3300733  74.0078943 134.3945353  42.5906343  85.8752638 129.7693497
  41.7494349  85.7756512 129.9772391  42.7996351  86.6448118 130.1207818
  42.4971035  85.9744681 129.8520812  40.0681910  83.4972175 127.5978248
  39.6738607  83.5715187 126.8228357  39.5122027  83.8830121 128.1486609
  39.9284722  83.5653950 127.5645907  51.7046856  76.4753469 127.2782127
  51.9096450  76.4075777 128.1239124  51.3773280  77.2812290 127.2103304
  51.6862104  76.5839409 127.3941782  46.4023008  83.8034037 129.0191094
  46.0986145  83.2490025 129.6201502  45.7002428  83.9826247 128.5319129
  46.2539217  83.7478819 129.0360800  45.4589105  81.1134557 123.5835796
  45.7348839  80.3953469 123.1713364  46.0587774  81.7119477 123.3756902
  45.5882369  81.0954928 123.4916558  54.9580544  77.0285233 126.7584892
  54.3454858  77.5155635 127.1438624  55.0544719  76.3528724 127.3022543
  54.8818442  77.0003542 126.8963750  48.9599625  78.7848074 121.8582391
  49.4143372  78.9558635 122.5830236  49.4339671  78.1716185 121.4580167
  49.0967945  78.7198960 121.9056153  42.4815151  88.2696400 131.1885130
  41.8903084  88.9105898 131.1588145  43.2436174  88.6934018 131.1616429
  42.5063411  88.4272239 131.1800277  42.8775773  79.4298398 131.8553147
  43.3377255  79.5037327 132.5928271  42.9231880  80.2279652 131.5052969
  42.9526329  79.5592545 131.9125904  46.3012645  85.4890609 122.9627399
  47.0454690  85.8764885 123.2010348  46.4473341  84.6448034 123.1267886
  46.4323230  85.4221081 123.0221368  48.2192221  77.2840868 127.9959260
  47.3728266  77.4563675 127.8700610  48.2163353  76.4790211 128.3325088
  48.0939371  77.1901897 128.0270387  49.2890521  81.0616082 128.8621318
  48.8150475  80.5357844 129.3726629  49.6608657  80.5145555 128.2936179
  49.2740410  80.9032079 128.8536465  39.6663551  83.0587589 134.2304864
  40.5289164  82.9583298 134.1442193  39.3355334  82.4782298 133.6690436
  39.7448748  82.9579215 134.1350270  51.2174021  81.9552637 121.9247072
  50.6897039  82.0381381 121.2352781  51.6769729  82.6970508 121.9211716
  51.2075871  82.0773299 121.8221767  57.5532439  82.9019915 128.2257358
  57.3142209  82.8615749 127.3878142  57.7166340  83.7491067 128.3523079
  57.5422742  83.0212000 128.1210839  43.0265337  81.8830038 130.8915282
  42.4018407  81.8948430 130.2841235  42.6910932  82.3590213 131.5406522
  42.8850829  81.9548555 130.8971850  43.2107086  80.2255156 116.9487967
  42.8619890  80.8774881 117.4119516  42.7303532  80.2112269 116.2211838
  43.0877330  80.3198210 116.9099058  50.7711103  90.5256200 121.0556729
  51.4945302  90.9914313 120.9121302  50.3311694  90.5929810 120.3054326
  50.8126795  90.6040037 120.9241510  42.2956083  83.4923185 133.1090150
  42.4549569  82.7366510 133.5141872  42.1148976  84.0414125 133.7630888
  42.2921442  83.4616999 133.2652856  50.2376386  75.6584421 133.6640940
  49.7416947  75.8548095 132.9732507  50.9945448  76.0577089 133.4929741
  50.2763210  75.7462155 133.5361077  47.5079265  79.3326767 130.2544250
  47.5321752  78.7986879 129.5657030  47.7590739  78.8244076 130.9169841
  47.5489184  79.1787671 130.2508895  43.7880587  78.0597585 129.6349995
  43.8278959  78.5606792 130.3484702  42.9630252  78.1507979 129.3655918
  43.6720113  78.1479402 129.7000533  45.2094951  84.5758095 131.9323894
  44.3786880  84.7431913 131.7259142  45.1546468  84.1994046 132.7172779
  45.0784366  84.5447826 132.0172422  43.0178734  78.0666988 137.5680304
  43.6431437  77.5229121 137.8409737  42.5629214  77.5861906 136.9988095
  43.0426995  77.9156469 137.5241898  43.5830995  82.8513687 122.4614011
  43.7233956  83.3486151 123.1642653  44.0813527  82.1499981 122.6028225
  43.6772075  82.8215665 122.5865590  43.6131217  83.7180798 119.7906588
  44.2476296  84.3141223 119.7256050  43.6956828  83.4184255 120.6052458
  43.7187768  83.7621706 119.9009675  45.1910200  79.6494773 119.7652030
  45.5126041  79.1697856 119.1111293  45.4537144  80.4594419 119.5742842
  45.2776225  79.6984671 119.6407522  50.5869355  79.0366967 132.1275509
  51.0124426  78.5839493 131.5159036  49.9726348  78.4827038 132.4040297
  50.5598000  78.8880943 132.0780535  40.1184205  85.9148638 123.0596134
  40.6276434  86.5113146 123.4407440  40.5918477  85.6474612 122.3772554
  40.2627581  85.9634454 123.0150657  51.0314953  94.5876905 121.2154790
  50.3144263  94.4137767 120.7502027  51.6821690  94.3529477 120.6830276
  51.0216803  94.5272698 121.0684008  49.0263578  75.5082067 125.5366086
  48.3831896  75.3579713 126.1051225  48.6862985  75.2624412 124.7715191
  48.8808655  75.4494189 125.5069101  53.6162924  83.4641494 124.9596095
  52.9454114  84.0071196 124.8309160  54.3102674  83.9336349 124.7177790
  53.6191792  83.6139765 124.9051623  53.7791052  79.9197377 127.8686468
  54.1318662  79.4927100 128.5432267  52.9205853  79.8348221 127.9987545
  53.7040496  79.8442118 127.9881479  42.4774737  82.5504897 125.9269315
  41.7586726  82.9669030 126.1942178  42.8487099  83.1159136 125.3760953
  42.4266668  82.6954178 125.8852122  51.7774317  83.1832746 131.8171310
  51.7572245  83.0016041 132.6706089  51.8253518  84.0544764 131.7930894
  51.7808958  83.2849284 131.9394605  48.2521311  81.5902897 121.2642694
  47.6586150  81.9119893 120.7127261  48.2896589  80.7443992 121.0563800
  48.1695700  81.5127225 121.1525465  55.2115112  75.0415789 128.7970781
  54.7045976  74.3344929 128.7291958  56.0082545  74.7108978 128.9271857
  55.2542351  74.8888940 128.8069776  51.1279128  81.5482401 124.6944444
  50.8992821  81.5715103 123.8522803  51.3877204  80.7239868 124.8139455
  51.1325316  81.4298481 124.5869642  45.4098356  83.4016874 134.2969545
  44.8977259  82.7938057 134.6554576  45.2377852  84.1173467 134.7643520
  45.3087993  83.4180174 134.4185768  44.1823890  80.0858948 125.9898640
  44.6581256  80.4476027 125.3548821  43.6812490  80.7415415 126.2698783
  44.1789249  80.2353136 125.9375381  57.4135252  89.5580716 121.7811645
  57.7968857  90.3072072 122.0109742  56.6179365  89.8046535 121.5223634
  57.3529034  89.7050410 121.7769219  46.2250543  82.2300147 119.3572024
  46.6049508  82.2479777 118.5723139  45.4843139  82.6754136 119.2362871
  46.1719381  82.2981922 119.2235592  53.8535834  80.5382339 124.9447603
  53.8530060  80.3830995 125.8031879  53.6492014  81.3845326 124.8888988
  53.8235612  80.6402959 125.0635542  35.9153105  83.9622123 129.3606419
  35.7374866  83.5098732 130.0861335  35.6272127  84.7648284 129.5444897
  35.8466058  84.0144681 129.4949922  51.5776686  85.2179840 128.5983810
  52.0730351  84.5002835 128.5587830  50.7676461  84.9150638 128.4838296
  51.5320579  85.0677487 128.5757535  47.0235297  89.0677654 120.7480814
  46.2146620  88.7444327 120.7014123  47.5310206  88.3610876 120.6809063
  46.9784964  88.9158970 120.7311108  37.6525575  86.4949847 126.4728178
  36.7871094  86.4835537 126.3610949  37.7524390  86.3080070 127.3199318
  37.5399741  86.4655908 126.5817123  50.2307104  91.6817792 127.6162096
  50.7018282  92.3958055 127.7852081  50.5667283  91.0816542 128.1521965
  50.3502219  91.6989256 127.7194472  47.1476599  76.4545263 134.5720191
  47.2804505  75.6576256 134.9001166  47.5321752  76.9811666 135.1518466
  47.2232928  76.4145179 134.7063693  50.2208954  73.3775589 131.1701284
  49.4154918  73.2673319 131.4869122  50.0915690  73.4788045 130.3131150
  50.0829087  73.3759259 131.0909324  53.6774915  79.5421081 131.7640981
  53.0937904  80.0430287 131.3518548  53.9979209  79.0350637 131.1305304
  53.6388090  79.5412916 131.6099488  46.2169714  78.4561676 122.0399656
  47.0385408  78.6259988 121.7981350  45.7539365  78.6108937 121.3165953
  46.2700876  78.5043409 121.8971300  44.8065046  76.4504438 132.8198084
  45.3509459  76.1095565 133.4102426  44.8601982  77.3089899 132.9619369
  44.8954165  76.5259697 132.9279958  40.6195605  90.2120854 129.6936892
  41.2240462  90.1716688 129.0650713  40.4122917  91.0592006 129.7240948
  40.6784502  90.3308856 129.6053009  59.7294163 100.2025260 119.2348729
  59.9690166 100.4103244 118.4224072  60.0510004  99.3982769 119.3437674
  59.8131320 100.1139361 119.1309282  55.0384453  92.1318656 123.0808267
  55.7930421  92.4996973 122.8425317  54.8611987  92.5058210 123.8487447
  55.1238931  92.2416844 123.1593156  53.3941517  94.5388975 119.7786380
  53.2117091  94.7560856 118.9527373  54.2567130  94.6527988 119.8344995
  53.4946107  94.5878873 119.6640867  59.0741237  91.5415385 122.8135404
  59.8027397  91.3631340 122.3673560  59.1636130  92.3833465 123.0242582
  59.1947899  91.6399264 122.7788922  52.9403544  97.8163147 118.2908853
  52.2261722  97.5301327 118.7031286  53.4247513  98.1559773 118.9315241
  52.9062908  97.8244797 118.4464488  52.0702875  96.4303118 123.1013328
  51.7827671  96.0604389 122.3645275  52.7573344  96.8997974 122.8397033
  52.1291773  96.4450088 122.9528403  49.6431070  97.2084331 123.9498609
  49.7447207  98.0110492 124.2779584  50.4386957  97.0071667 123.6521689
  49.7758976  97.2970230 123.9533964  57.3974985 102.0804681 117.6693385
  57.6867510 102.8569564 117.9436959  57.4846784 101.5693413 118.3707884
  57.4529242 102.1196600 117.8135883  59.9332209  94.3033382 121.8582391
  60.3875955  94.4743943 122.5830236  60.4072254  93.6901493 121.4580167
  60.0700529  94.2384267 121.9056153  54.1839669  95.7440464 116.9487967
  53.8352474  96.3960189 117.4119516  53.7036115  95.7297577 116.2211838
  54.0609913  95.8383518 116.9099058  54.5863801  99.2366106 119.7906588
  55.2208880  99.8326531 119.7256050  54.6689411  98.9369563 120.6052458
  54.6920351  99.2807014 119.9009675  56.1642783  95.1680081 119.7652030
  56.4858624  94.6883163 119.1111293  56.4269727  95.9779727 119.5742842
  56.2508809  95.2169979 119.6407522  59.2253895  97.1088205 121.2642694
  58.6318734  97.4305201 120.7127261  59.2629172  96.2629300 121.0563800
  59.1428284  97.0312533 121.1525465  57.1983127  97.7485455 119.3572024
  57.5782092  97.7665085 118.5723139  56.4575723  98.1939444 119.2362871
  57.1451965  97.8167230 119.2235592  57.1902297  93.9746984 122.0399656
  58.0117992  94.1445296 121.7981350  56.7271948  94.1294245 121.3165953
  57.2433460  94.0228717 121.8971300  26.7171885  39.5637597 106.7557762
  26.3823253  40.2414518 106.3201984  27.2298755  39.1742908 106.1674634
  26.7437466  39.6062175 106.6044553  31.5022675  33.0926160 109.0800363
  31.3862201  33.8433846 109.5092501  32.2978561  32.8350113 109.3296450
  31.6027264  33.1661007 109.1804454  29.2251980  33.8233804 107.3914652
  29.1403275  34.6794771 107.5364221  29.7136364  33.5478129 108.0596812
  29.2840878  33.9091126 107.5116734  26.8903936  36.7015309 105.6010708
  27.3055084  36.3700333 104.9095204  26.0595865  36.4684211 105.4730845
  26.8291944  36.6186565 105.4801556  29.5837326  32.9525868 104.7871910
  29.5017488  33.0228055 105.6526897  30.2217046  33.5155612 104.5955650
  29.6657163  33.0464839 104.8861859  23.4811402  39.8875006 109.3360088
  23.7709700  39.4963987 108.6119315  24.2114883  40.0691711 109.7765363
  23.6318286  39.8568819 109.2942895  28.0531770  38.5014976 109.9518989
  27.8118446  37.7682837 109.5446054  28.2333103  39.0501833 109.2985322
  28.0439394  38.4737367 109.7949212  32.7787889  35.6082420 107.3207546
  32.3994698  34.8219558 107.3136835  32.1154135  36.1569277 107.1779190
  32.6246364  35.5727244 107.2988343  28.1253458  36.1908123 103.1396321
  28.8926443  36.2508247 102.7302173  27.6784767  35.6188564 102.6552640
  28.1726885  36.1144698 103.0074032  31.0247988  37.8527911 107.6559232
  31.1067826  38.6594897 107.3320683  31.5097730  37.8723870 108.3800005
  31.1085146  37.9748573 107.7146130  24.8292531  37.7940033 107.9090673
  24.8985351  36.9354572 108.0483674  25.6080986  38.0111914 107.5809698
  24.9545381  37.6992897 107.8807831  29.2200018  40.2177734 112.1227167
  28.8279810  39.9144450 111.4050033  29.3753091  41.0546824 111.9332121
  29.1853608  40.2961571 111.9883664  24.1728059  32.4626889 104.6033432
  24.4620583  33.2391771 104.8777006  24.2599857  31.9515620 105.3047931
  24.2282315  32.5018807 104.7475930  28.5196760  36.4263715 107.9896776
  29.2430959  36.8921828 107.8461349  28.0797351  36.4937325 107.2394373
  28.5612452  36.5047552 107.8581557  28.7800610  40.4884420 108.1494837
  28.0629919  40.3145283 107.6842074  29.4307347  40.2536993 107.6170323
  28.7702460  40.4280213 108.0024055  35.1620908  35.4588231 108.7151692
  35.5454514  36.2079587 108.9449789  34.3665022  35.7054051 108.4563681
  35.1014691  35.6057925 108.7109265  44.6538684  46.0359166 110.8082053
  44.6232688  46.8903803 110.9800322  45.2520033  45.7354459 111.3668196
  44.7375842  46.1175663 110.9156855  37.8538369  45.1234817 115.5634983
  36.9976264  45.2843315 115.6144100  37.9006022  44.2526881 115.5840044
  37.7337480  45.0185619 115.5741049  32.2379508  54.6597535 111.3272215
  31.4862408  54.2813073 111.0988260  32.6865520  54.6915969 110.5791025
  32.1929175  54.6083142 111.1829717  37.6904468  55.0822904 106.7557762
  37.3555837  55.7599826 106.3201984  38.2031339  54.6928216 106.1674634
  37.7170049  55.1247483 106.6044553  37.2308760  57.0337173 112.6968873
  37.6148139  57.6024072 112.1573649  37.1667901  56.3086683 112.2174690
  37.2782187  57.0112637 112.5462736  40.6990190  47.1826861 118.2066635
  41.2446150  47.8611948 118.2660605  40.6407066  47.0414322 117.3468216
  40.7706104  47.2618863 118.0878695  33.8164265  54.6715927 113.5934987
  33.9174628  53.8616281 113.9032115  33.2206010  54.5772873 112.9634666
  33.7436803  54.5380955 113.5461226  42.4755258  48.6111468 109.0800363
  42.3594784  49.3619154 109.5092501  43.2711145  48.3535421 109.3296450
  42.5759848  48.6846315 109.1804454  33.6565004  59.5893516 114.9949843
  34.3002460  60.0306680 115.3846002  33.9821260  58.7846942 114.9080102
  33.7996833  59.5358711 115.0395321  27.0129309  50.6936214 113.2187321
  26.7779493  49.8603866 113.1119590  27.1514950  50.9740879 112.4048522
  26.9984971  50.6119717 113.0829676  34.3585584  52.6005491 110.3669705
  34.6801425  53.1410698 109.7631013  35.0057680  52.0302262 110.4991995
  34.5011639  52.5964666 110.2976740  36.4087292  44.6021486 110.4504092
  37.1067457  44.7809614 110.9425555  36.7239624  44.0791825 109.8274481
  36.5582629  44.5515258 110.4306102  36.5975227  50.9891931 110.4383883
  37.0368863  50.3809032 110.8838656  36.4479890  50.6099304 109.6669348
  36.6396693  50.8430402 110.3903051  34.0646870  49.5835943 117.6402709
  34.7095873  49.0908386 117.3213657  34.3048647  49.7260730 118.4668787
  34.1957455  49.5313385 117.7152242  36.6032962  52.4290849 117.2909601
  36.8856205  51.6342255 117.0696357  37.3319122  52.9071436 117.3114662
  36.7522525  52.3825446 117.2612616  40.1984564  49.3419112 107.3914652
  40.1135859  50.1980079 107.5364221  40.6868947  49.0663436 108.0596812
  40.2573461  49.4276434 107.5116734  41.7890563  35.9599406 112.7774977
  41.4744004  36.6502884 113.2095399  41.2717505  35.9044188 112.0760478
  41.6655034  36.0534294 112.7371926  41.1302997  45.9603907 108.8912388
  40.6014469  46.1763540 109.5509694  41.6528017  46.6540045 108.8113357
  41.1291450  46.0947043 108.9767987  46.5851050  51.5350211 114.2645432
  45.7548753  51.7460855 114.4278849  46.5360302  50.7087266 113.9887716
  46.4557785  51.4439817 114.2482797  33.0202605  49.8567123 107.6919856
  32.4359820  50.3617155 108.0985719  32.6172700  49.6309510 106.9516448
  32.8741909  49.8975372 107.6424881  28.5746634  55.5721884 114.4943527
  28.0914212  56.2972374 114.4703111  29.3869952  55.8698014 114.6053685
  28.6237381  55.7224238 114.5070806  34.6460788  54.3654065 117.0993342
  34.1287729  54.0061480 116.4954650  35.3435179  53.8416240 117.1099408
  34.6726369  54.2351753 117.0123600  38.3024380  54.8148879 123.0609515
  38.3907725  54.6275020 123.9087725  38.7314092  54.1686309 122.6614361
  38.3786482  54.6911887 123.1281266  35.8694839  54.0980039 122.0427177
  35.3065674  53.6852649 122.5666838  36.6315863  54.0232945 122.4620320
  35.8989288  54.0257440 122.1820177  37.4779819  46.1032775 106.1688776
  37.7175823  46.3110759 105.3564119  37.7995660  45.2990284 106.2777721
  37.5616977  46.0146877 106.0649329  32.7870110  38.0326171 110.0148314
  33.5416078  38.4004488 109.7765364  32.6097644  38.4065725 110.7827494
  32.8724588  38.1424359 110.0933203  31.4290831  56.0878060 114.6463807
  32.1311410  55.5730049 114.7036564  31.3488314  56.4152212 115.4510682
  31.5214591  56.0592287 114.7736599  46.0805008  44.1820612 118.0595853
  45.2433429  44.2522799 118.2943448  46.0493239  44.1845106 117.1870156
  45.9523291  44.1930839 117.9655401  31.1427174  40.4396490 106.7126427
  30.9602747  40.6568371 105.8867420  32.0052787  40.5535503 106.7685042
  31.2431764  40.4886388 106.5980914  30.7541606  52.2784412 114.1549415
  31.5930506  52.5107345 114.2023177  30.7853375  51.4088724 114.0856450
  30.8823324  52.1841359 114.1514060  31.3794309  52.6985288 118.4562721
  31.9192534  52.5556419 119.1266093  30.6964256  53.0982038 118.8246747
  31.3586463  52.7364958 118.6097142  36.8226893  37.4422901 109.7475451
  37.5513054  37.2638856 109.3013607  36.9121786  38.2840981 109.9582629
  36.9433556  37.5406779 109.7128969  40.8035194  48.3776288 113.6507745
  41.5592709  48.8107803 113.6896654  40.9097519  47.7281058 114.2242381
  40.9305365  48.3453772 113.7405770  43.8415365  52.2049565 114.4010148
  43.4050597  52.2086308 115.1569119  43.5078281  52.8855064 113.9689725
  43.7277985  52.3062021 114.4490980  43.7612848  39.2463393 116.6439576
  44.4038757  39.3161498 117.2301491  44.0135869  38.5792616 116.1419118
  43.8934980  39.1589742 116.6566855  30.6889201  43.7170663 105.2248900
  29.9747378  43.4308842 105.6371333  31.1733170  44.0567289 105.8655288
  30.6548565  43.7252312 105.3804535  38.5714832  56.1568000 119.3719754
  37.7730078  55.9167500 119.6293622  39.0200844  56.2082393 120.1186801
  38.5189443  56.1290391 119.5204678  46.9759711  48.9230485 113.2929785
  47.6376146  48.3621154 113.1925694  46.3351123  48.4282516 113.6182476
  46.9788579  48.7666894 113.3262125  37.8636519  52.2200617 105.6010708
  38.2787668  51.8885641 104.9095204  37.0328449  51.9869519 105.4730845
  37.8024528  52.1371873 105.4801556  27.1924868  49.7044358 115.8908886
  27.0100441  49.6791244 115.0381178  27.9274537  50.1743296 115.9297795
  27.2738932  49.7705720 115.7706805  43.2624542  49.9395868 113.0341774
  43.4980131  50.0841067 112.2068625  43.4114106  50.7038276 113.4273287
  43.3190345  50.0734922 112.9705378  45.0914999  48.7797534 110.8711378
  45.4223216  49.3125174 110.2651473  45.6648087  48.8336421 111.5273329
  45.2248678  48.8667102 110.8789159  40.3046888  46.6262436 111.5534958
  40.3993742  47.3651730 112.0074583  39.6805732  46.1979912 111.9869522
  40.2255918  46.6723757 111.6843105  40.5569909  48.4711176 104.7871910
  40.4750072  48.5413363 105.6526897  41.1949630  49.0340920 104.5955650
  40.6389747  48.5650147 104.8861859  33.9163080  48.2371914 114.2546436
  33.6582325  47.4043649 114.2277736  33.9711563  48.4629527 113.4138936
  33.8862858  48.1469685 114.1266573  38.9964131  40.3400365 114.3550529
  38.2920457  39.8509550 114.5134448  39.0449105  40.3522839 113.4838973
  38.8994182  40.2690013 114.2489869  32.8897793  45.7909677 114.7411331
  32.3147384  45.9501845 115.3775292  32.5133469  45.1545086 114.2779781
  32.7500605  45.7207489 114.7665889  46.1994350  44.0208031 112.3751539
  45.9430915  43.2087972 112.1849422  47.0423664  44.0285598 112.1481727
  46.2860376  43.9020028 112.3136356  37.6610020  48.4931630 107.7980516
  38.4750658  48.7846523 107.6863288  37.5969161  47.8391493 107.2238809
  37.7712759  48.4396825 107.6969354  43.8819510  51.1757627 122.2110092
  43.6458147  50.3445691 122.0922153  44.5262739  51.1243234 122.7964936
  43.9414180  51.0455315 122.2795985  33.5317928  51.9653148 112.9252828
  34.1691875  51.7264895 113.4704622  33.9572999  52.1690307 112.1905989
  33.6894094  51.9604158 112.8969986  28.2230570  54.2041484 116.8087132
  28.2634715  54.4756335 115.9806912  28.7825094  54.7283392 117.2244920
  28.3113916  54.3217239 116.7479020  34.1720743  47.1855438 107.2627718
  34.5565896  46.9663144 108.0144263  33.9232363  48.0118383 107.3928794
  34.1922815  47.2753584 107.3928794  44.9055930  50.9602075 118.2738386
  44.6001747  51.6930132 118.6351702  44.1862146  50.5540005 117.9931172
  44.7543273  51.0083808 118.2851523  35.9139400  52.4425570 114.6046615
  35.9878408  52.2800742 115.4588465  36.7308906  52.6315760 114.3607096
  36.0455758  52.4462313 114.6944640  50.6057722  47.5995076 117.6006731
  50.5382223  47.6191035 116.7309317  50.5913385  48.4425403 117.8262401
  50.5936479  47.7268811 117.5059208  29.6745156  52.7883433 111.6341058
  28.8483274  53.0345171 111.5075337  29.7357148  52.7095514 112.5003116
  29.5619323  52.8128382 111.7430003  34.4543985  55.4060314 109.3360088
  34.7442284  55.0149295 108.6119315  35.1847466  55.5877018 109.7765363
  34.6050870  55.3754127 109.2942895  48.3916340  46.3739462 115.8753325
  48.9424261  45.7407531 116.1150417  48.3760455  46.9054855 116.5668829
  48.4701536  46.3588410 116.0132183  35.0438731  50.2078059 120.4213218
  34.5450424  50.9193827 120.4998107  35.8538955  50.5278726 120.3831381
  35.0894837  50.3604908 120.4269787  32.3949901  57.3827696 112.4020238
  32.1750196  57.0925051 113.1946905  32.1744423  56.7242651 111.8738150
  32.3297495  57.2427404 112.4409146  31.3066848  49.4701012 114.6675939
  31.0180097  48.8438484 115.2021667  32.1750196  49.4121300 114.7340620
  31.3927100  49.3688557 114.7566894  42.0944746  44.6135796 114.9857921
  41.7509512  43.8926131 115.3365171  42.1937789  44.4049647 114.1436279
  42.0586789  44.4759999 114.9129601  34.5617857  58.7557086 111.1850930
  35.2141915  58.2233528 111.4141956  33.8643465  58.4025738 111.5718804
  34.5548575  58.6246609 111.2763098  31.5099122  51.1096264 110.5918304
  32.2645090  51.4909303 110.8053767  30.9169734  51.5607407 111.0465001
  31.5335835  51.2325091 110.6901183  42.5557775  51.0761500 110.5281909
  43.1215808  51.7354710 110.4440452  41.9085679  51.4211198 110.9998312
  42.5436532  51.2243441 110.5854666  32.8297348  52.2804825 115.9658420
  32.3078102  52.4205117 116.6510284  33.2171369  51.5215489 116.1560537
  32.8101049  52.1890349 116.0959496  29.8188532  42.3310634 110.0353374
  29.5313328  41.9611904 109.2985322  30.5059000  42.8005489 109.7737079
  29.8777430  42.3457603 109.8868450  39.0264353  54.0200284 109.9518989
  38.7851029  53.2868145 109.5446054  39.2065686  54.5687141 109.2985322
  39.0171977  53.9922675 109.7949212  34.2563674  49.3108844 111.3639911
  34.0606456  49.9183578 110.7700214  34.4798019  48.6176788 110.8831585
  34.2598315  49.2986369 111.2055992  32.6542204  46.1963582 111.4820779
  33.3764856  46.3604740 111.0224585  32.1750197  46.9173247 111.3760119
  32.6905935  46.3261811 111.3986393  40.6135711  42.5327381 116.8617464
  39.7746812  42.5588660 116.6255727  40.6840079  43.1798116 117.4422811
  40.5004105  42.6323506 116.9126581  39.0604990  39.4312758 111.5945080
  39.7631343  39.2320506 111.1165038  38.7949178  38.6588700 111.9013924
  39.1251622  39.2875724 111.5690522  44.4893235  47.7395367 114.1478706
  44.4027210  47.8950793 115.0013485  44.0343715  48.3833443 113.7738111
  44.4096492  47.8571122 114.2185813  27.3916727  43.1091846 110.8838656
  27.4932863  43.9118007 111.2119631  28.1872614  42.9079182 110.5861736
  27.5244632  43.1977745 110.8874011  38.3619051  45.0606114 112.7704265
  38.1153766  44.9801865 113.6041054  38.6904174  44.2759582 112.5766793
  38.3740295  44.9332380 112.8651788  42.2567100  51.7689474 116.5591047
  42.1181459  52.4670520 117.0639789  41.4767098  51.6138130 116.2027228
  42.1210327  51.8489640 116.5817321  33.3943834  55.9865605 119.0488275
  33.5433397  55.4268521 118.3961680  34.1743836  56.0657607 119.4320794
  33.5317927  55.9151170 119.0085224  43.7520473  51.1267728 107.3207546
  43.3727282  50.3404866 107.3136835  43.0886718  51.6754585 107.1779190
  43.5978948  51.0912552 107.2988343  35.9197134  56.1580248 120.3272766
  35.8440805  55.4889058 120.8823554  35.8486993  56.8598036 120.8413432
  35.8977741  56.1625155 120.4849614  36.5767381  54.6781247 111.1596372
  37.3417272  54.4090890 110.8379036  36.4745471  54.1931257 111.8766435
  36.6748877  54.5670811 111.2176200  39.0986042  51.7093430 103.1396321
  39.8659027  51.7693555 102.7302173  38.6517351  51.1373872 102.6552640
  39.1459469  51.6330006 103.0074032  39.9963837  50.5148086 115.4249054
  39.3208839  50.2833319 115.9262441  40.0056213  49.9069269 114.7991159
  39.8982342  50.3907011 115.4065206  41.9980572  53.3713219 107.6559232
  42.0800409  54.1780205 107.3320683  42.4830314  53.3909178 108.3800005
  42.0817730  53.4933881 107.7146130  35.8077075  48.0498055 116.3229310
  35.3839324  48.2502554 115.5868328  35.6321930  47.2026903 116.4353609
  35.7187956  47.9546836 116.2303000  35.3088769  59.5648568 118.7850767
  35.7984699  58.8659357 118.6026432  34.7373001  59.2672438 119.3726824
  35.2973298  59.4174791 118.8451808  31.0959520  48.5450106 111.7557282
  31.2524139  48.4796909 112.6113274  31.4360113  49.3198659 111.5435962
  31.1692755  48.6499304 111.8511876  37.6338665  47.9207990 110.6250645
  38.1754210  47.4178371 111.0889266  37.9485224  47.8673184 109.8140131
  37.7603062  47.8387411 110.5734457  35.8025114  53.3125341 107.9090673
  35.8717935  52.4539880 108.0483674  36.5813570  53.5297222 107.5809698
  35.9277964  53.2178205 107.8807831  40.1932602  55.7363042 112.1227167
  39.8012394  55.4329758 111.4050033  40.3485674  56.5732132 111.9332121
  40.1586192  55.8146879 111.9883664  27.6693782  45.7285056 112.0718049
  28.0492746  46.1469601 111.4078317  27.0949146  46.3098512 112.3786893
  27.6405106  45.8762915 112.0194790  40.3572277  52.3013031 112.0633197
  39.9986931  52.4727674 112.8397230  39.8710987  52.7626237 111.5061196
  40.2330974  52.3952002 112.0958466  35.1460642  47.9812197 104.6033432
  35.4353167  48.7577079 104.8777006  35.2332441  47.4700928 105.3047931
  35.2014898  48.0204115 104.7475930  41.5177016  53.1916927 123.0100398
  42.1556737  52.6977123 122.6762854  40.8751108  53.1194328 122.4252625
  41.5171243  53.1075936 122.8742753  43.2434016  45.0406073 117.5766314
  42.8161624  44.9532422 116.8214413  42.6060069  45.1483849 118.1621158
  43.0863623  45.0438733 117.5511755  41.5731273  53.8836735 119.6505755
  42.3623651  53.5325800 119.7707837  41.7474870  54.6973124 119.3882389
  41.7151554  53.9522593 119.6293623  31.3124583  47.2945461 116.7033544
  30.4712590  47.1949335 116.9112438  31.5214591  48.0640942 117.0547864
  31.2189276  47.3937505 116.7860859  40.4265097  37.8946292 114.2122173
  40.6314690  37.8268600 115.0579170  40.0991521  38.7005113 114.1443351
  40.4080345  38.0032233 114.3281828  35.1241248  45.2226860 115.9531141
  34.8204385  44.6682849 116.5541549  34.4220669  45.4019070 115.4659176
  34.9757458  45.1671643 115.9700847  34.1807345  42.5327380 110.5175843
  34.4567079  41.8146293 110.1053411  34.7806014  43.1312300 110.3096949
  34.3100610  42.5147751 110.4256604  43.6798785  38.4478056 113.6924939
  43.0673098  38.9348459 114.0778671  43.7762959  37.7721547 114.2362590
  43.6036682  38.4196365 113.8303797  37.6817866  40.2040898 108.7922438
  38.1361612  40.3751458 109.5170283  38.1557911  39.5909008 108.3920214
  37.8186186  40.1391783 108.8396200  31.2033391  49.6889224 118.1225177
  30.6121324  50.3298722 118.0928192  31.9654415  50.1126841 118.0956476
  31.2281652  49.8465062 118.1140324  47.3223813  49.5194993 119.1202455
  47.3806936  49.9681642 119.8662431  46.6890280  49.9293806 118.6832535
  47.2375108  49.6468728 119.1655003  40.9622907  55.1398535 115.5557201
  40.7642596  55.6289350 114.8613412  40.3410618  55.3439777 116.1341334
  40.8410472  55.2415073 115.5380424  35.0230886  46.9083432 109.8967445
  35.7672930  47.2957708 110.1350395  35.1691582  46.0640857 110.0607933
  35.1541471  46.8413905 109.9561415  38.0108761  42.4808905 115.7961365
  37.5368716  41.9550667 116.3066676  38.3826897  41.9338378 115.2276226
  37.9958650  42.3224902 115.7876512  44.2745492  47.5411281 117.2068145
  44.0343715  46.7017696 117.2110572  44.7537499  47.6211448 117.9308919
  44.3097676  47.4292681 117.3142948  39.9392261  43.3745460 108.8587119
  39.4115280  43.4574204 108.1692827  40.3987969  44.1163331 108.8551763
  39.9294112  43.4966122 108.7561814  46.2750679  44.3212738 115.1597404
  46.0360449  44.2808572 114.3218189  46.4384580  45.1683890 115.2863125
  46.2640982  44.4404823 115.0550886  42.8796709  48.7062687 121.0902449
  43.6030908  48.2535214 120.9113469  42.6146671  48.9867353 120.3074777
  42.9477982  48.6813656 120.9481165  31.9325326  41.6447979 103.8828014
  31.5838131  42.2967705 104.3459563  31.4521772  41.6305092 103.1551885
  31.8095570  41.7391033 103.8439105  39.4929344  51.9449023 107.9896776
  40.2163542  52.4107136 107.8461349  39.0529935  52.0122633 107.2394373
  39.5345036  52.0232860 107.8581557  38.6615499  48.8046566 119.2397465
  38.0472492  48.2604616 119.5346100  39.1782784  48.2910802 118.7603281
  38.6471161  48.6482975 119.2121693  37.9011796  49.8750836 116.9741763
  37.4739404  49.2500554 116.5407199  37.8936740  49.5925758 117.8000770
  37.8370937  49.7403616 117.0321591  32.3049235  44.2706510 109.3954058
  32.4452196  44.7678974 110.0982700  32.8031768  43.5692804 109.5368272
  32.3990316  44.2408489 109.5205637  32.3349457  45.1373621 106.7246635
  32.9694537  45.7334046 106.6596097  32.4175068  44.8377078 107.5392505
  32.4406008  45.1814529 106.8349722  45.3132023  47.6689098 119.5932999
  45.9049863  48.3086349 119.6251197  45.7491018  46.9712135 119.8825066
  45.4650454  47.6607449 119.6413832  33.9128440  41.0687596 106.6992077
  34.2344281  40.5890679 106.0451339  34.1755384  41.8787242 106.5082889
  33.9994466  41.1177494 106.5747569  37.1425413  52.0906471 120.2190893
  36.6350504  52.6442317 120.6631524  36.8452059  52.1514761 119.4009668
  37.0230298  52.1812782 120.1639350  28.8402445  47.3341462 109.9936181
  29.3494675  47.9305969 110.3747487  29.3136717  47.0667435 109.3112601
  28.9845821  47.3827277 109.9490704  39.7533193  56.0069728 108.1494837
  39.0362503  55.8330591 107.6842074  40.4039931  55.7722301 107.6170323
  39.7435044  55.9465521 108.0024055  37.7481818  36.9274890 112.4706133
  37.1050136  36.7772536 113.0391272  37.4081225  36.6817235 111.7055238
  37.6026895  36.8687013 112.4409148  42.3381164  44.8834317 111.8936142
  41.6672354  45.4264019 111.7649207  43.0320915  45.3529172 111.6517837
  42.3410032  45.0332588 111.8391669  36.3867898  57.0231029 117.1247900
  36.1633553  56.2649858 117.4931926  35.8977741  57.0529050 116.4028340
  36.2811347  56.9153253 117.0724641  42.5009292  41.3390200 114.8026515
  42.8536902  40.9119923 115.4772314  41.6424093  41.2541044 114.9327591
  42.4258737  41.2634941 114.9221525  31.1992977  43.9697720 112.8609361
  30.4804966  44.3861853 113.1282225  31.5705339  44.5351959 112.3101000
  31.1484909  44.1147002 112.8192168  35.0346355  57.2431487 114.5784985
  34.6206754  56.5805617 114.1888826  35.7193729  57.3909346 114.0580679
  35.0744727  57.1672145 114.4441482  38.4011649  56.4021572 115.3308601
  38.0027932  56.5123843 114.5629422  37.7862869  56.6103639 115.9135161
  38.2510539  56.4495140 115.3039901  36.9739551  43.0095720 108.1982741
  36.3804391  43.3312717 107.6467308  37.0114829  42.1636815 107.9903847
  36.8913940  42.9320048 108.0865512  43.9333352  36.4608612 115.7310827
  43.4264217  35.7537752 115.6632005  44.7300786  36.1301801 115.8611904
  43.9760591  36.3081764 115.7409822  39.8497368  42.9675225 111.6284491
  39.6211061  42.9907926 110.7862849  40.1095444  42.1432692 111.7479502
  39.8543556  42.8491305 111.5209689  32.9042130  41.5051771 112.9238687
  33.3799497  41.8668851 112.2888868  32.4030730  42.1608238 113.2038830
  32.9007489  41.6545960 112.8715428  46.1353492  50.9773539 108.7151692
  46.5187098  51.7264895 108.9449789  45.3397605  51.2239359 108.4563681
  46.0747274  51.1243233 108.7109265  34.9468784  43.6492971 106.2912071
  35.3267748  43.6672600 105.5063186  34.2061380  44.0946959 106.1702918
  34.8937621  43.7174745 106.1575639  42.5754074  41.9575162 111.8787649
  42.5748300  41.8023818 112.7371926  42.3710254  42.8038149 111.8229035
  42.5453852  42.0595783 111.9975589  40.2994926  46.6372664 115.5323856
  40.7948591  45.9195659 115.4927877  39.4894702  46.3343461 115.4178343
  40.2538819  46.4870310 115.5097582  35.7453538  50.4870477 107.6820861
  34.9364860  50.1637150 107.6354170  36.2528446  49.7803699 107.6149109
  35.7003204  50.3351793 107.6651155  26.3743815  47.9142670 113.4068225
  25.5089334  47.9028361 113.2950996  26.4742631  47.7272893 114.2539364
  26.2617982  47.8848731 113.5157170  42.3646745  49.3876351 118.2200985
  42.7901817  48.8650773 117.6671410  42.0003665  49.9857189 117.6989608
  42.3733348  49.3986578 118.0609995  32.0000825  57.6840569 116.9798331
  32.3147384  58.4976957 116.9876112  32.4094238  57.2990787 117.6480490
  32.1068923  57.7469271 117.0802422  38.9525344  53.1010615 114.5502143
  39.4236523  53.8150878 114.7192128  39.2885523  52.5009366 115.0862012
  39.0720459  53.1182080 114.6534519  39.5899291  52.8928550 121.3129835
  39.0420237  52.2686433 121.0449901  40.0512319  53.0822822 120.5973915
  39.5766500  52.8287600 121.1680266  34.9387954  39.8754499 108.9739702
  35.7603649  40.0452812 108.7321397  34.4757605  40.0301760 108.2506000
  34.9919116  39.9236232 108.8311347  29.3413845  51.6313677 116.6276939
  29.9458702  51.5909511 115.9990760  29.1341157  52.4784829 116.6580995
  29.4002742  51.7501680 116.5393056  39.1557617  53.8979622 117.8439176
  39.9755991  53.7542588 118.1055472  38.8751695  54.5225821 118.3855614
  39.2354360  53.9689974 117.9627116  55.6271267  61.5544474 110.8082053
  55.5965272  62.4089111 110.9800322  56.2252616  61.2539767 111.3668196
  55.7108425  61.6360971 110.9156855  48.8270952  60.6420125 115.5634983
  47.9708848  60.8028623 115.6144100  48.8738606  59.7712189 115.5840044
  48.7070064  60.5370927 115.5741049  43.2112092  70.1782843 111.3272215
  42.4594992  69.7998381 111.0988260  43.6598104  70.2101276 110.5791025
  43.1661759  70.1268450 111.1829717  52.1364669  66.9106651 125.1695439
  52.8431436  66.4158681 125.2982374  52.3252604  67.3515732 124.4398097
  52.2692574  66.9025001 125.0804485  48.6637052  70.6008212 106.7557762
  48.3288420  71.2785134 106.3201984  49.1763922  70.2113524 106.1674634
  48.6902633  70.6432791 106.6044553  48.2041343  72.5522481 112.6968873
  48.5880722  73.1209380 112.1573649  48.1400484  71.8271991 112.2174690
  48.2514770  72.5297944 112.5462736  51.6722773  62.7012169 118.2066635
  52.2178733  63.3797256 118.2660605  51.6139650  62.5599630 117.3468216
  51.7438688  62.7804171 118.0878695  44.7896848  70.1901235 113.5934987
  44.8907211  69.3801589 113.9032115  44.1938593  70.0958181 112.9634666
  44.7169387  70.0566263 113.5461226  53.4487842  64.1296776 109.0800363
  53.3327368  64.8804462 109.5092501  54.2443729  63.8720729 109.3296450
  53.5492431  64.2031623 109.1804454  44.6297588  75.1078824 114.9949843
  45.2735043  75.5491988 115.3846002  44.9553843  74.3032250 114.9080102
  44.7729416  75.0544019 115.0395321  37.9861892  66.2121522 113.2187321
  37.7512077  65.3789174 113.1119590  38.1247533  66.4926187 112.4048522
  37.9717555  66.1305025 113.0829676  40.2851980  58.3807252 116.1171629
  39.6657012  57.7899899 115.9481643  40.1835843  58.9718687 115.4835952
  40.1789655  58.3811335 115.9976618  45.3318167  68.1190799 110.3669705
  45.6534009  68.6596006 109.7631013  45.9790264  67.5487570 110.4991995
  45.4744223  68.1149974 110.2976740  47.3819876  60.1206794 110.4504092
  48.0800040  60.2994922 110.9425555  47.6972208  59.5977133 109.8274481
  47.5315213  60.0700566 110.4306102  40.0121113  61.9259534 118.3615198
  39.8879810  62.5121979 118.9965016  40.6639397  61.4319730 118.6627473
  40.0894762  61.9398338 118.5001127  47.5707811  66.5077239 110.4383883
  48.0101446  65.8994340 110.8838656  47.4212474  66.1284612 109.6669348
  47.6129277  66.3615710 110.3903051  45.0379454  65.1021251 117.6402709
  45.6828456  64.6093694 117.3213657  45.2781231  65.2446037 118.4668787
  45.1690039  65.0498693 117.7152242  47.5765545  67.9476157 117.2909601
  47.8588788  67.1527562 117.0696357  48.3051706  68.4256744 117.3114662
  47.7255109  67.9010754 117.2612616  45.5546739  55.4899191 114.5325366
  45.2250069  55.9410334 113.8629065  44.8791741  55.4115354 115.0798373
  45.4057175  55.5450326 114.5148590  51.1717147  64.8604420 107.3914652
  51.0868443  65.7165387 107.5364221  51.6601531  64.5848744 108.0596812
  51.2306045  64.9461742 107.5116734  52.7623147  51.4784714 112.7774977
  52.4476588  52.1688192 113.2095399  52.2450089  51.4229496 112.0760478
  52.6387617  51.5719602 112.7371926  52.1035581  61.4789214 108.8912388
  51.5747052  61.6948848 109.5509694  52.6260601  62.1725353 108.8113357
  52.1024034  61.6132351 108.9767987  57.5583634  67.0535519 114.2645432
  56.7281337  67.2646163 114.4278849  57.5092886  66.2272573 113.9887716
  57.4290369  66.9625125 114.2482797  43.9935188  65.3752431 107.6919856
  43.4092404  65.8802463 108.0985719  43.5905284  65.1494818 106.9516448
  43.8474492  65.4160680 107.6424881  39.5479217  71.0907192 114.4943527
  39.0646795  71.8157682 114.4703111  40.3602535  71.3883322 114.6053685
  39.5969965  71.2409546 114.5070806  45.6193371  69.8839373 117.0993342
  45.1020313  69.5246788 116.4954650  46.3167762  69.3601548 117.1099408
  45.6458952  69.7537061 117.0123600  49.2756963  70.3334187 123.0609515
  49.3640309  70.1460328 123.9087725  49.7046676  69.6871617 122.6614361
  49.3519066  70.2097195 123.1281266  46.8427423  69.6165347 122.0427177
  46.2798258  69.2037957 122.5666838  47.6048446  69.5418253 122.4620320
  46.8721872  69.5442748 122.1820177  48.4512403  61.6218083 106.1688776
  48.6908407  61.8296067 105.3564119  48.7728244  60.8175592 106.2777721
  48.5349561  61.5332185 106.0649329  43.7602693  53.5511479 110.0148314
  44.5148661  53.9189796 109.7765364  43.5830228  53.9251033 110.7827494
  43.8457172  53.6609667 110.0933203  42.4023414  71.6063368 114.6463807
  43.1043994  71.0915357 114.7036564  42.3220897  71.9337520 115.4510682
  42.4947175  71.5777594 114.7736599  57.0537592  59.7005920 118.0595853
  56.2166013  59.7708107 118.2943448  57.0225823  59.7030414 117.1870156
  56.9255874  59.7116147 117.9655401  43.4502321  61.8438955 123.7744222
  43.6222825  61.7344850 124.6229503  43.9871678  62.4893361 123.5375414
  43.5547325  61.9230957 123.8649319  42.1159758  55.9581798 106.7126427
  41.9335331  56.1753679 105.8867420  42.9785371  56.0720811 106.7685042
  42.2164347  56.0071696 106.5980914  41.7274190  67.7969720 114.1549415
  42.5663089  68.0292653 114.2023177  41.7585959  66.9274032 114.0856450
  41.8555907  67.7026667 114.1514060  42.3526893  68.2170595 118.4562721
  42.8925118  68.0741726 119.1266093  41.6696839  68.6167346 118.8246747
  42.3319047  68.2550266 118.6097142  47.7959477  52.9608209 109.7475451
  48.5245637  52.7824164 109.3013607  47.8854370  53.8026288 109.9582629
  47.9166139  53.0592087 109.7128969  51.7767778  63.8961596 113.6507745
  52.5325293  64.3293110 113.6896654  51.8830102  63.2466366 114.2242381
  51.9037948  63.8639080 113.7405770  54.8147949  67.7234873 114.4010148
  54.3783181  67.7271616 115.1569119  54.4810864  68.4040372 113.9689725
  54.7010569  67.8247329 114.4490980  49.3877022  69.7643206 125.7253298
  50.1717439  69.8774054 126.0909040  49.1873617  68.9384343 125.9211984
  49.4743048  69.6589926 125.8087684  37.7564038  64.4370886 118.6097142
  37.4902453  63.6210003 118.7688132  37.7702602  64.4824042 117.7392658
  37.7188760  64.3227791 118.5050624  54.7345432  54.7648701 116.6439576
  55.3771340  54.8346806 117.2301491  54.9868452  54.0977924 116.1419118
  54.8667564  54.6775050 116.6566855  41.6621785  59.2355971 105.2248900
  40.9479962  58.9494150 105.6371333  42.1465754  59.5752596 105.8655288
  41.6281148  59.2437620 105.3804535  42.5062644  57.9749265 121.2564150
  41.8134441  57.5046244 121.5024881  43.1222972  57.7487569 121.8305857
  42.4947174  57.8716396 121.3773302  49.5447416  71.6753308 119.3719754
  48.7462662  71.4352808 119.6293622  49.9933427  71.7267701 120.1186801
  49.4922027  71.6475699 119.5204678  57.9492295  64.4415793 113.2929785
  58.6108729  63.8806462 113.1925694  57.3083707  63.9467824 113.6182476
  57.9521163  64.2852202 113.3262125  48.8369103  67.7385925 105.6010708
  49.2520251  67.4070948 104.9095204  48.0061032  67.5054827 105.4730845
  48.7757111  67.6557181 105.4801556  38.1657452  65.2229666 115.8908886
  37.9833025  65.1976552 115.0381178  38.9007120  65.6928603 115.9297795
  38.2471515  65.2891028 115.7706805  54.2357126  65.4581176 113.0341774
  54.4712715  65.6026375 112.2068625  54.3846689  66.2223584 113.4273287
  54.2922929  65.5920230 112.9705378  41.2303203  61.9414669 122.3990995
  41.9543176  61.9267699 122.8855890  41.3319340  62.6510024 121.9012963
  41.3521412  62.0439372 122.3969782  56.0647582  64.2982842 110.8711378
  56.3955800  64.8310482 110.2651473  56.6380671  64.3521729 111.5273329
  56.1981262  64.3852410 110.8789159  48.6048153  65.4213753 127.2639942
  47.8121133  65.7357265 127.4492562  48.7197080  65.6365222 126.4260727
  48.5043563  65.4997590 127.1678277  51.2779472  62.1447744 111.5534958
  51.3726326  62.8837038 112.0074583  50.6538315  61.7165220 111.9869522
  51.1988502  62.1909065 111.6843105  49.5331945  65.3233957 122.2025239
  50.1070807  64.6861201 122.3573803  49.4546749  65.3238039 121.3334896
  49.6065180  65.2299068 122.0971650  38.1328362  62.1023166 116.0407953
  38.7101864  61.9659617 116.6800198  37.4342424  61.6458950 116.2953537
  38.1149383  62.0145433 116.1730243  51.5302493  63.9896484 104.7871910
  51.4482655  64.0598671 105.6526897  52.1682213  64.5526228 104.5955650
  51.6122330  64.0835455 104.8861859  44.8895664  63.7557222 114.2546436
  44.6314908  62.9228957 114.2277736  44.9444147  63.9814835 113.4138936
  44.8595442  63.6654993 114.1266573  49.9696714  55.8585673 114.3550529
  49.2653041  55.3694858 114.5134448  50.0181689  55.8708147 113.4838973
  49.8726766  55.7875321 114.2489869  43.8630376  61.3094984 114.7411331
  43.2879967  61.4687153 115.3775292  43.4866052  60.6730394 114.2779781
  43.7233189  61.2392797 114.7665889  47.5303665  59.7818334 119.6003709
  47.1418098  59.3572552 118.9455900  46.8658363  60.0300483 120.1080736
  47.3750593  59.7557055 119.5791577  57.1726934  59.5393338 112.3751539
  56.9163499  58.7273280 112.1849422  58.0156248  59.5470906 112.1481727
  57.2592959  59.4205336 112.3136356  33.6087195  60.9535059 112.7555771
  33.6947447  60.5766928 113.5369301  34.2362993  60.5795505 112.2775730
  33.7143746  60.8420541 112.8001249  51.3530026  53.4792963 117.1127693
  51.7340538  52.7971134 117.4995568  50.5493311  53.1902565 116.9303358
  51.2906488  53.3360011 117.1431749  48.6342603  64.0116938 107.7980516
  49.4483242  64.3031831 107.6863288  48.5701744  63.3576801 107.2238809
  48.7445342  63.9582133 107.6969354  54.8552093  66.6942934 122.2110092
  54.6190731  65.8630999 122.0922153  55.4995322  66.6428542 122.7964936
  54.9146764  66.5640622 122.2795985  44.5050511  67.4838456 112.9252828
  45.1424458  67.2450203 113.4704622  44.9305583  67.6875615 112.1905989
  44.6626678  67.4789466 112.8969986  39.1963154  69.7226792 116.8087132
  39.2367299  69.9941643 115.9806912  39.7557678  70.2468700 117.2244920
  39.2846500  69.8402547 116.7479020  45.1453326  62.7040746 107.2627718
  45.5298479  62.4848452 108.0144263  44.8964947  63.5303691 107.3928794
  45.1655399  62.7938892 107.3928794  45.3121867  55.9847161 126.9790302
  44.9975308  56.7546724 126.7159865  44.9911799  55.4217417 126.3942529
  45.2180786  56.0157429 126.8531652  55.8788514  66.4787383 118.2738386
  55.5734331  67.2115440 118.6351702  55.1594730  66.0725313 117.9931172
  55.7275856  66.5269116 118.2851523  46.8871983  67.9610878 114.6046615
  46.9610992  67.7986050 115.4588465  47.7041490  68.1501068 114.3607096
  47.0188342  67.9647621 114.6944640  61.5790306  63.1180384 117.6006731
  61.5114806  63.1376343 116.7309317  61.5645968  63.9610711 117.8262401
  61.5669062  63.2454119 117.5059208  40.6477740  68.3068741 111.6341058
  39.8215858  68.5530478 111.5075337  40.7089731  68.2280822 112.5003116
  40.5351907  68.3313690 111.7430003  42.8653764  54.3737682 112.5936498
  41.9976189  54.4460282 112.6594107  43.1528968  55.1759761 112.7824473
  42.7793512  54.5031829 112.6311265  51.9886653  54.5215542 120.9247820
  52.7340245  54.3325352 120.5111245  51.5723957  55.0473780 120.3661676
  52.0371627  54.5717687 120.7812393  45.4276569  70.9245621 109.3360088
  45.7174867  70.5334603 108.6119315  46.1580050  71.1062326 109.7765363
  45.5783453  70.8939435 109.2942895  59.3648923  61.8924770 115.8753325
  59.9156845  61.2592839 116.1150417  59.3493039  62.4240163 116.5668829
  59.4434120  61.8773718 116.0132183  46.0171314  65.7263367 120.4213218
  45.5183008  66.4379135 120.4998107  46.8271538  66.0464034 120.3831381
  46.0627421  65.8790216 120.4269787  43.3682485  72.9013004 112.4020238
  43.1482780  72.6110359 113.1946905  43.1477007  72.2427959 111.8738150
  43.3030079  72.7612712 112.4409146  42.2799432  64.9886320 114.6675939
  41.9912680  64.3623792 115.2021667  43.1482780  64.9306608 114.7340620
  42.3659684  64.8873865 114.7566894  53.0677330  60.1321104 114.9857921
  52.7242095  59.4111439 115.3365171  53.1670372  59.9234955 114.1436279
  53.0319372  59.9945307 114.9129601  45.5350440  74.2742394 111.1850930
  46.1874498  73.7418836 111.4141956  44.8376049  73.9211046 111.5718804
  45.5281158  74.1431917 111.2763098  42.4831705  66.6281571 110.5918304
  43.2377673  67.0094611 110.8053767  41.8902318  67.0792715 111.0465001
  42.5068419  66.7510399 110.6901183  53.5290359  66.5946808 110.5281909
  54.0948391  67.2540018 110.4440452  52.8818262  66.9396506 110.9998312
  53.5169115  66.7428749 110.5854666  44.9438372  58.5844412 125.7175517
  44.1338148  58.8902192 125.6065359  45.4213059  59.3049994 125.8328101
  44.8941851  58.7359013 125.7182588  43.8029932  67.7990133 115.9658420
  43.2810685  67.9390424 116.6510284  44.1903952  67.0400797 116.1560537
  43.7833633  67.7075657 116.0959496  40.7921116  57.8495942 110.0353374
  40.5045912  57.4797212 109.2985322  41.4791584  58.3190797 109.7737079
  40.8510013  57.8642911 109.8868450  49.9996937  69.5385592 109.9518989
  49.7583613  68.8053453 109.5446054  50.1798270  70.0872449 109.2985322
  49.9904561  69.5107983 109.7949212  45.2296257  64.8294152 111.3639911
  45.0339040  65.4368886 110.7700214  45.4530603  64.1362096 110.8831585
  45.2330898  64.8171677 111.2055992  43.6274787  61.7148890 111.4820779
  44.3497439  61.8790048 111.0224585  43.1482780  62.4358555 111.3760119
  43.6638518  61.8447119 111.3986393  51.5868295  58.0512689 116.8617464
  50.7479396  58.0773967 116.6255727  51.6572662  58.6983424 117.4422811
  51.4736688  58.1508814 116.9126581  41.2782404  64.1206962 120.5874919
  41.7903501  64.3991215 119.9383679  40.9918747  64.8596256 120.9537732
  41.3117267  64.2709316 120.5464797  50.0337573  54.9498066 111.5945080
  50.7363926  54.7505814 111.1165038  49.7681762  54.1774008 111.9013924
  50.0984206  54.8061032 111.5690522  55.4625819  63.2580675 114.1478706
  55.3759793  63.4136101 115.0013485  55.0076299  63.9018751 113.7738111
  55.3829075  63.3756430 114.2185813  38.3649310  58.6277154 110.8838656
  38.4665447  59.4303315 111.2119631  39.1605197  58.4264490 110.5861736
  38.4977216  58.7163053 110.8874011  44.7966130  56.2133351 120.6475961
  44.6049327  56.2288485 121.4975384  45.6464725  56.4097025 120.6242616
  44.8941851  56.2447702 120.7699255  39.1813043  58.7424332 118.6259777
  39.0398534  57.8908273 118.7504285  39.4653606  58.7852993 117.8021983
  39.2020889  58.6224082 118.5227401  49.3351635  60.5791422 112.7704265
  49.0886349  60.4987173 113.6041054  49.6636758  59.7944890 112.5766793
  49.3472878  60.4517688 112.8651788  53.2299684  67.2874782 116.5591047
  53.0914043  67.9855828 117.0639789  52.4499682  67.1323438 116.2027228
  53.0942911  67.3674948 116.5817321  51.5677769  63.5871157 122.8113428
  51.5625807  62.7150974 122.8155855  52.2738763  63.7859326 122.3382884
  51.6722773  63.4875031 122.7420464  45.2948662  63.3148141 122.1827248
  45.4392038  63.8949349 121.5470358  45.6424311  63.6924438 122.8877103
  45.3676124  63.4568845 122.1926243  47.4668580  62.5138309 119.9652380
  46.7191894  62.7069324 119.5600658  47.6210105  61.6883529 119.7276501
  47.3791007  62.4203421 119.8697786  44.3676417  71.5050913 119.0488275
  44.5165981  70.9453829 118.3961680  45.1476419  71.5842915 119.4320794
  44.5050511  71.4336478 119.0085224  54.7253057  66.6453036 107.3207546
  54.3459865  65.8590173 107.3136835  54.0619302  67.1939893 107.1779190
  54.5711531  66.6097860 107.2988343  46.8929718  71.6765556 120.3272766
  46.8173389  71.0074366 120.8823554  46.8219577  72.3783344 120.8413432
  46.8710325  71.6810463 120.4849614  47.7070357  56.4088860 120.8547784
  48.1642971  57.1412834 120.9820576  47.7826685  55.9855325 121.6135040
  47.7861326  56.4546098 120.9848860  39.9503348  56.6554680 121.9437227
  39.4145537  56.0435038 122.2597995  40.0121113  57.2302816 122.5970894
  39.8798980  56.6501608 122.0872654  52.1797682  49.5878735 114.7241627
  52.2981251  50.0455199 113.9908929  52.0059858  48.7823997 114.4377844
  52.1716853  49.5372507 114.5742560  47.5499965  70.1966555 111.1596372
  48.3149856  69.9276198 110.8379036  47.4478055  69.7116565 111.8766435
  47.6481460  70.0856119 111.2176200  45.5852734  58.3990964 117.6989608
  44.7948809  58.2182424 118.0206944  45.9813357  57.6217917 117.6819902
  45.5269611  58.2578425 117.7442156  50.0718625  67.2278738 103.1396321
  50.8391610  67.2878863 102.7302173  49.6249934  66.6559180 102.6552640
  50.1192052  67.1515314 103.0074032  50.9696421  66.0333394 115.4249054
  50.2941423  65.8018626 115.9262441  50.9788797  65.4254577 114.7991159
  50.8714925  65.9092319 115.4065206  48.0990565  60.8751223 122.1813107
  48.0349706  61.7361180 122.0533243  48.2387752  60.5583216 121.3808658
  48.1106035  60.9551390 122.0441320  52.9713155  68.8898527 107.6559232
  53.0532993  69.6965513 107.3320683  53.4562898  68.9094486 108.3800005
  53.0550313  69.0119189 107.7146130  46.7809659  63.5683362 116.3229310
  46.3571908  63.7687862 115.5868328  46.6054514  62.7212210 116.4353609
  46.6920539  63.4732144 116.2303000  46.2821352  75.0833875 118.7850767
  46.7717282  74.3844665 118.6026432  45.7105584  74.7857745 119.3726824
  46.2705882  74.9360099 118.8451808  42.0692104  64.0635414 111.7557282
  42.2256723  63.9982217 112.6113274  42.4092697  64.8383966 111.5435962
  42.1425338  64.1684612 111.8511876  48.6071248  63.4393298 110.6250645
  49.1486794  62.9363679 111.0889266  48.9217807  63.3858492 109.8140131
  48.7335645  63.3572718 110.5734457  52.4788356  67.6495945 127.7377558
  53.2923221  67.3781094 127.8982690  52.3183322  67.3503485 126.9337753
  52.5758304  67.5650871 127.6422963  46.7757698  68.8310649 107.9090673
  46.8450518  67.9725188 108.0483674  47.5546153  69.0482530 107.5809698
  46.9010548  68.7363513 107.8807831  49.7560518  58.3329602 120.6772946
  49.9702487  57.6940516 120.1236300  49.1394417  58.7775426 120.2480808
  49.6965847  58.3039746 120.5323377  51.1665186  71.2548350 112.1227167
  50.7744977  70.9515065 111.4050033  51.3218258  72.0917440 111.9332121
  51.1318775  71.3332187 111.9883664  38.6426365  61.2470364 112.0718049
  39.0225330  61.6654909 111.4078317  38.0681730  61.8283820 112.3786893
  38.6137690  61.3948223 112.0194790  51.9199606  59.9418667 121.6156253
  51.1076287  59.6344558 121.6969426  52.3789540  59.4617667 122.1798965
  51.8679990  59.8255160 121.7110847  51.3304860  67.8198339 112.0633197
  50.9719515  67.9912982 112.8397230  50.8443571  68.2811545 111.5061196
  51.2063557  67.9137310 112.0958466  49.1475246  51.4429538 115.6660289
  48.2768804  51.4168259 115.6193598  49.4015588  51.2706730 114.8486134
  49.0568806  51.4139681 115.5380425  46.1193226  63.4997505 104.6033432
  46.4085751  64.2762387 104.8777006  46.2065025  62.9886236 105.3047931
  46.1747482  63.5389423 104.7475930  49.0153113  61.3478739 126.3984955
  49.4852744  61.9720855 126.7852829  49.0614993  60.6795714 126.9578170
  49.0920989  61.3413419 126.5385027  46.1724387  53.4535766 117.1233759
  45.6562875  52.7615958 117.2485338  45.6118316  54.1206543 117.0696358
  46.0130900  53.4499024 117.1339825  48.2416620  53.9928726 118.9526612
  47.8548373  54.0177758 119.7340142  47.7549557  53.4270405 118.5001128
  48.1129129  53.9124477 119.0014515  52.4909600  68.7102235 123.0100398
  53.1289320  68.2162431 122.6762854  51.8483691  68.6379636 122.4252625
  52.4903826  68.6261244 122.8742753  54.2166600  60.5591381 117.5766314
  53.7894208  60.4717730 116.8214413  53.5792653  60.6669157 118.1621158
  54.0596207  60.5624041 117.5511755  47.9073762  50.8795712 121.2436872
  48.5366880  51.4156012 120.9657942  48.0759625  50.7873071 122.0950437
  48.0251556  50.9457074 121.3285400  47.7087677  55.6666906 123.5163283
  48.5361106  55.3952055 123.5721898  47.7295523  56.4627748 123.8727101
  47.8340527  55.7446661 123.5778466  52.5463856  69.4022043 119.6505755
  53.3356234  69.0511108 119.7707837  52.7207454  70.2158432 119.3882389
  52.6884138  69.4707901 119.6293623  42.2857167  62.8130769 116.7033544
  41.4445173  62.7134643 116.9112438  42.4947175  63.5826249 117.0547864
  42.1921859  62.9122812 116.7860859  39.7632734  60.4350306 114.5318294
  39.3689431  60.5093318 113.7568404  39.2072850  60.8208252 115.0826656
  39.6235546  60.5032081 114.4985954  51.3997680  53.4131600 114.2122173
  51.6047274  53.3453908 115.0579170  51.0724104  54.2190421 114.1443351
  51.3812928  53.5217541 114.3281828  46.0973832  60.7412168 115.9531141
  45.7936969  60.1868157 116.5541549  45.3953252  60.9204378 115.4659176
  45.9490041  60.6856951 115.9700847  45.1539929  58.0512688 110.5175843
  45.4299663  57.3331601 110.1053411  45.7538598  58.6497608 110.3096949
  45.2833193  58.0333059 110.4256604  44.1592183  67.9561889 120.6603239
  44.0512537  67.9663951 121.5265297  44.3687964  68.7816669 120.4708193
  44.1742294  68.0802964 120.7607331  54.6531368  53.9663364 113.6924939
  54.0405682  54.4533767 114.0778671  54.7495543  53.2906855 114.2362590
  54.5769266  53.9381673 113.8303797  48.6550449  55.7226206 108.7922438
  49.1094196  55.8936766 109.5170283  49.1290495  55.1094316 108.3920214
  48.7918769  55.6577091 108.8396200  42.1765975  65.2074531 118.1225177
  41.5853908  65.8484030 118.0928192  42.9386998  65.6312149 118.0956476
  42.2014235  65.3650370 118.1140324  42.5726597  56.3676529 118.7893194
  43.0328079  56.4415459 119.5268318  42.6182704  57.1657783 118.4393016
  42.6477153  56.4970676 118.8465951  44.2209947  57.0343224 123.3565221
  43.8295512  56.3876571 123.7920999  44.3895810  57.6254659 123.9759477
  44.1880857  57.0257492 123.5127927  58.2956396  65.0380301 119.1202455
  58.3539520  65.4866950 119.8662431  57.6622864  65.4479114 118.6832535
  58.2107691  65.1654036 119.1655003  51.9355491  70.6583843 115.5557201
  51.7375179  71.1474658 114.8613412  51.3143202  70.8625085 116.1341334
  51.8143055  70.7600381 115.5380424  45.9963469  62.4268740 109.8967445
  46.7405514  62.8143016 110.1350395  46.1424165  61.5826165 110.0607933
  46.1274054  62.3599213 109.9561415  47.9143045  54.2218999 114.9299307
  47.0679090  54.3941807 114.8040657  47.9114177  53.4168343 115.2665135
  47.7890194  54.1280028 114.9610434  48.9841345  57.9994213 115.7961365
  48.5101299  57.4735975 116.3066676  49.3559481  57.4523686 115.2276226
  48.9691234  57.8410210 115.7876512  39.3614375  59.9965720 121.1644910
  40.2239988  59.8961429 121.0782240  39.0306158  59.4160429 120.6030483
  39.4399571  59.8957347 121.0690316  55.2478076  63.0596589 117.2068145
  55.0076298  62.2203004 117.2110572  55.7270083  63.1396756 117.9308919
  55.2830259  62.9477989 117.3142948  50.9124845  58.8930768 108.8587119
  50.3847863  58.9759512 108.1692827  51.3720553  59.6348639 108.8551763
  50.9026695  59.0151430 108.7561814  57.2483263  59.8398046 115.1597404
  57.0093033  59.7993880 114.3218189  57.4117164  60.6869198 115.2863125
  57.2373566  59.9590131 115.0550886  53.8529293  64.2247995 121.0902449
  54.5763492  63.7720522 120.9113469  53.5879255  64.5052661 120.3074777
  53.9210566  64.1998964 120.9481165  42.7216161  58.8208169 117.8255329
  42.0969231  58.8326561 117.2181281  42.3861756  59.2968344 118.4746569
  42.5801653  58.8926686 117.8311897  42.9057910  57.1633287 103.8828014
  42.5570714  57.8153013 104.3459563  42.4254356  57.1490400 103.1551885
  42.7828154  57.2576341 103.8439105  39.4341837  66.8808629 119.2659093
  38.9041761  66.1901068 119.3154068  39.7066930  66.8718814 118.4371802
  39.3966559  66.7775761 119.1506509  50.4661927  67.4634331 107.9896776
  51.1896126  67.9292444 107.8461349  50.0262518  67.5307941 107.2394373
  50.5077619  67.5418168 107.8581557  49.6348082  64.3231874 119.2397465
  49.0205075  63.7789924 119.5346100  50.1515367  63.8096110 118.7603281
  49.6203745  64.1668283 119.2121693  48.8744379  65.3936144 116.9741763
  48.4471987  64.7685862 116.5407199  48.8669324  65.1111065 117.8000770
  48.8103521  65.2588924 117.0321591  41.9906906  60.4301317 120.0430197
  42.1500393  59.6744641 120.4481919  41.8099800  60.9792256 120.6970935
  41.9872265  60.3995130 120.1992903  49.9327209  52.5962552 120.5980987
  49.4367771  52.7926226 119.9072553  50.6896271  52.9955220 120.4269788
  49.9714034  52.6840286 120.4701123  47.2030089  56.2704898 117.1884297
  47.2272576  55.7365010 116.4997077  47.4541563  55.7622207 117.8509888
  47.2440008  56.1165802 117.1848942  34.7137679  63.5536393 116.6227441
  34.6081128  63.5083237 115.7579525  33.9637899  63.8990174 116.9041726
  34.5873282  63.5977301 116.5364771  43.4831411  54.9975716 116.5690042
  43.5229783  55.4984923 117.2824749  42.6581076  55.0886110 116.2995965
  43.3670937  55.0857533 116.6340580  45.6661024  64.5636456 124.6710336
  44.8156655  64.7008171 124.8067981  45.8289152  63.8300235 125.1158038
  45.5644888  64.4750558 124.7565935  44.9045775  61.5136226 118.8663941
  44.0737704  61.6810044 118.6599189  44.8497292  61.1372177 119.6512826
  44.7735190  61.4825958 118.9512469  42.7129558  55.0045119 124.5020351
  43.3382261  54.4607252 124.7749783  42.2580038  54.5240037 123.9328142
  42.7377819  54.8534600 124.4581945  43.2781818  59.7891818 109.3954058
  43.4184780  60.2864282 110.0982700  43.7764351  59.0878112 109.5368272
  43.3722899  59.7593797 109.5205637  43.3082041  60.6558929 106.7246635
  43.9427120  61.2519354 106.6596097  43.3907652  60.3562386 107.5392505
  43.4138592  60.6999837 106.8349722  56.2864607  63.1874406 119.5932999
  56.8782447  63.8271657 119.6251197  56.7223601  62.4897443 119.8825066
  56.4383038  63.1792757 119.6413832  44.8861024  56.5872904 106.6992077
  45.2076865  56.1075987 106.0451339  45.1487967  57.3972550 106.5082889
  44.9727049  56.6362802 106.5747569  48.1157997  67.6091779 120.2190893
  47.6083088  68.1627625 120.6631524  47.8184643  67.6700068 119.4009668
  47.9962881  67.6998090 120.1639350  50.2820179  55.9745098 119.0615556
  50.7075250  55.5217625 118.4499083  49.6677172  55.4205169 119.3380344
  50.2548824  55.8259074 119.0120581  39.8135029  62.8526770 109.9936181
  40.3227258  63.4491277 110.3747487  40.2869301  62.5852743 109.3112601
  39.9578404  62.9012585 109.9490704  50.7265777  71.5255036 108.1494837
  50.0095087  71.3515898 107.6842074  51.3772514  71.2907609 107.6170323
  50.7167627  71.4650829 108.0024055  48.7214402  52.4460198 112.4706133
  48.0782720  52.2957844 113.0391272  48.3813809  52.2002543 111.7055238
  48.5759479  52.3872320 112.4409148  53.3113748  60.4019625 111.8936142
  52.6404938  60.9449327 111.7649207  54.0053498  60.8714480 111.6517837
  53.3142616  60.5517896 111.8391669  47.3600482  72.5416337 117.1247900
  47.1366136  71.7835166 117.4931926  46.8710325  72.5714358 116.4028340
  47.2543931  72.4338561 117.0724641  53.4741876  56.8575508 114.8026515
  53.8269486  56.4305231 115.4772314  52.6156677  56.7726352 114.9327591
  53.3991320  56.7820249 114.9221525  42.1725561  59.4883028 112.8609361
  41.4537550  59.9047161 113.1282225  42.5437923  60.0537267 112.3101000
  42.1217492  59.6332310 112.8192168  51.4725141  60.1210877 118.7511357
  51.4523069  59.9394172 119.6046136  51.5204342  60.9922896 118.7270941
  51.4759782  60.2227415 118.8734652  49.4171471  66.7098069 124.6759834
  49.3767326  66.0647746 124.0904990  50.2294789  66.6534686 124.9885246
  49.5314625  66.6057036 124.6356783  46.0078939  72.7616795 114.5784985
  45.5939337  72.0990925 114.1888826  46.6926313  72.9094654 114.0580679
  46.0477310  72.6857453 114.4441482  49.3744233  71.9206880 115.3308601
  48.9760516  72.0309150 114.5629422  48.7595452  72.1288946 115.9135161
  49.2243122  71.9680448 115.3039901  47.9472135  58.5281028 108.1982741
  47.3536974  58.8498024 107.6467308  47.9847413  57.6822123 107.9903847
  47.8646524  58.4505356 108.0865512  54.9065936  51.9793920 115.7310827
  54.3996800  51.2723060 115.6632005  55.7033369  51.6487109 115.8611904
  54.9493175  51.8267072 115.7409822  50.8229951  58.4860532 111.6284491
  50.5943644  58.5093234 110.7862849  51.0828028  57.6618000 111.7479502
  50.8276139  58.3676612 111.5209689  45.1049180  60.3395006 121.2309591
  44.5928083  59.7316189 121.5894623  44.9328676  61.0551598 121.6983567
  45.0038817  60.3558305 121.3525815  39.9514895  58.7832581 123.8811953
  39.7817485  59.4433956 123.3360160  39.5080844  58.9939142 124.6024442
  39.8614228  58.9118563 123.9073583  43.8774714  57.0237079 112.9238687
  44.3532080  57.3854159 112.2888868  43.3763314  57.6793546 113.2038830
  43.8740073  57.1731268 112.8715428  57.1086076  66.4958847 108.7151692
  57.4919681  67.2450203 108.9449789  56.3130189  66.7424667 108.4563681
  57.0479858  66.6428541 108.7109265  48.9818250  58.2619250 123.6711847
  49.5389680  58.0333060 123.0390312  48.6579315  59.0224916 123.3947059
  49.0164660  58.3403087 123.5368344  36.8516959  61.6879446 119.1400443
  36.3043679  61.0180092 119.2581311  37.6409337  61.3209294 119.2043910
  36.8869143  61.5344433 119.1669144  46.7001367  61.3486903 124.6363854
  47.4512694  61.6638580 124.9503408  46.8923944  61.1466074 123.8097776
  46.8392782  61.3654285 124.5607250  45.9201367  59.1678279 106.2912071
  46.3000332  59.1857908 105.5063186  45.1793963  59.6132267 106.1702918
  45.8670205  59.2360053 106.1575639  53.5486658  57.4760470 111.8787649
  53.5480884  57.3209126 112.7371926  53.3442838  58.3223457 111.8229035
  53.5186435  57.5781091 111.9975589  35.6103929  60.9000254 116.2946466
  35.4325690  60.4476863 117.0201382  35.3222951  61.7026416 116.4784944
  35.5416882  60.9522812 116.4289969  51.2727510  62.1557972 115.5323856
  51.7681175  61.4380967 115.4927877  50.4627285  61.8528769 115.4178343
  51.2271403  62.0055618 115.5097582  46.7186121  66.0055785 107.6820861
  45.9097444  65.6822458 107.6354170  47.2261030  65.2989007 107.6149109
  46.6735788  65.8537101 107.6651155  37.3476398  63.4327978 113.4068225
  36.4821918  63.4213668 113.2950996  37.4475214  63.2458201 114.2539364
  37.2350565  63.4034039 113.5157170  53.3379329  64.9061659 118.2200985
  53.7634400  64.3836081 117.6671410  52.9736248  65.5042497 117.6989608
  53.3465931  64.9171886 118.0609995  42.9733408  73.2025877 116.9798331
  43.2879967  74.0162265 116.9876112  43.3826822  72.8176095 117.6480490
  43.0801506  73.2654579 117.0802422  49.9257928  68.6195923 114.5502143
  50.3969106  69.3336186 114.7192128  50.2618107  68.0194674 115.0862012
  50.0453043  68.6367388 114.6534519  52.0134913  70.2297237 126.7294215
  52.1231878  69.4405797 127.0850962  52.3425809  70.1403173 125.9268553
  52.0787318  70.1003090 126.6636605  46.8427423  53.3923394 121.5060237
  46.9755329  52.5954387 121.8341213  47.2272576  53.9189797 122.0858513
  46.9183752  53.3523311 121.6403740  50.5631874  68.4113858 121.3129835
  50.0152820  67.7871741 121.0449901  51.0244903  68.6008130 120.5973915
  50.5499084  68.3472908 121.1680266  49.9159778  50.3153720 118.1041331
  49.1105742  50.2051450 118.4209169  49.7866514  50.4166176 117.2471196
  49.7779911  50.3137390 118.0249371  53.3725739  56.4799212 118.6981028
  52.7888727  56.9808418 118.2858595  53.6930033  55.9728768 118.0645351
  53.3338914  56.4791047 118.5439535  45.9120538  55.3939807 108.9739702
  46.7336232  55.5638120 108.7321397  45.4490189  55.5487068 108.2506000
  45.9651700  55.4421540 108.8311347  44.5015870  53.3882569 119.7538131
  45.0460283  53.0473696 120.3442473  44.5552805  54.2468031 119.8959416
  44.5904989  53.4637828 119.8620005  40.3146428  67.1498985 116.6276939
  40.9191286  67.1094819 115.9990760  40.1073741  67.9970137 116.6580995
  40.3735326  67.2686988 116.5393056  50.1290201  69.4164930 117.8439176
  50.9488574  69.2727896 118.1055472  49.8484278  70.0411129 118.3855614
  50.2086944  69.4875282 117.9627116  35.5497711  66.1333603 116.4975862
  35.4521989  65.3229874 116.8065919  36.3326580  66.1125396 116.1122130
  35.6513847  66.0100693 116.4862725  66.6003851  77.0729782 110.8082053
  66.5697855  77.9274419 110.9800322  67.1985200  76.7725074 111.3668196
  66.6841009  77.1546278 110.9156855  59.8003536  76.1605433 115.5634983
  58.9441431  76.3213931 115.6144100  59.8471190  75.2897497 115.5840044
  59.6802647  76.0556235 115.5741049  54.1844676  85.6968151 111.3272215
  53.4327575  85.3183689 111.0988260  54.6330687  85.7286584 110.5791025
  54.1394342  85.6453758 111.1829717  63.1097252  82.4291959 125.1695439
  63.8164020  81.9343989 125.2982374  63.2985188  82.8701040 124.4398097
  63.2425158  82.4210309 125.0804485  59.6369635  86.1193520 106.7557762
  59.3021004  86.7970442 106.3201984  60.1496506  85.7298832 106.1674634
  59.6635217  86.1618099 106.6044553  59.1773927  88.0707789 112.6968873
  59.5613306  88.6394688 112.1573649  59.1133068  87.3457299 112.2174690
  59.2247354  88.0483252 112.5462736  62.6455357  78.2197477 118.2066635
  63.1911317  78.8982563 118.2660605  62.5872233  78.0784938 117.3468216
  62.7171271  78.2989479 118.0878695  55.7629432  85.7086543 113.5934987
  55.8639795  84.8986897 113.9032115  55.1671177  85.6143489 112.9634666
  55.6901970  85.5751571 113.5461226  64.4220426  79.6482084 109.0800363
  64.3059951  80.3989770 109.5092501  65.2176312  79.3906037 109.3296450
  64.5225015  79.7216931 109.1804454  55.6030171  90.6264132 114.9949843
  56.2467627  91.0677296 115.3846002  55.9286427  89.8217558 114.9080102
  55.7462000  90.5729327 115.0395321  48.9594476  81.7306829 113.2187321
  48.7244660  80.8974482 113.1119590  49.0980117  82.0111495 112.4048522
  48.9450138  81.6490333 113.0829676  51.2584563  73.8992560 116.1171629
  50.6389595  73.3085207 115.9481643  51.1568427  74.4903995 115.4835952
  51.1522239  73.8996643 115.9976618  56.3050751  83.6376107 110.3669705
  56.6266592  84.1781314 109.7631013  56.9522848  83.0672878 110.4991995
  56.4476806  83.6335282 110.2976740  58.3552459  75.6392102 110.4504092
  59.0532624  75.8180229 110.9425555  58.6704792  75.1162441 109.8274481
  58.5047796  75.5885874 110.4306102  50.9853696  77.4444842 118.3615198
  50.8612393  78.0307287 118.9965016  51.6371981  76.9505038 118.6627473
  51.0627346  77.4583646 118.5001127  58.5440394  82.0262547 110.4383883
  58.9834030  81.4179647 110.8838656  58.3945057  81.6469920 109.6669348
  58.5861860  81.8801018 110.3903051  56.0112037  80.6206559 117.6402709
  56.6561040  80.1279002 117.3213657  56.2513815  80.7631345 118.4668787
  56.1422623  80.5684001 117.7152242  58.5498129  83.4661465 117.2909601
  58.8321372  82.6712870 117.0696357  59.2784289  83.9442052 117.3114662
  58.6987693  83.4196062 117.2612616  56.5279323  71.0084499 114.5325366
  56.1982653  71.4595642 113.8629065  55.8524324  70.9300662 115.0798373
  56.3789759  71.0635634 114.5148590  62.1449731  80.3789728 107.3914652
  62.0601026  81.2350695 107.5364221  62.6334114  80.1034052 108.0596812
  62.2038628  80.4647050 107.5116734  63.7355730  66.9970021 112.7774977
  63.4209171  67.6873500 113.2095399  63.2182672  66.9414804 112.0760478
  63.6120201  67.0904910 112.7371926  63.0768164  76.9974522 108.8912388
  62.5479636  77.2134156 109.5509694  63.5993184  77.6910661 108.8113357
  63.0756617  77.1317659 108.9767987  68.5316217  82.5720827 114.2645432
  67.7013920  82.7831471 114.4278849  68.4825469  81.7457881 113.9887716
  68.4022953  82.4810433 114.2482797  54.9667772  80.8937739 107.6919856
  54.3824987  81.3987771 108.0985719  54.5637867  80.6680126 106.9516448
  54.8207076  80.9345987 107.6424881  50.5211801  86.6092500 114.4943527
  50.0379379  87.3342990 114.4703111  51.3335119  86.9068630 114.6053685
  50.5702548  86.7594854 114.5070806  56.5925955  85.4024681 117.0993342
  56.0752896  85.0432096 116.4954650  57.2900346  84.8786855 117.1099408
  56.6191536  85.2722369 117.0123600  60.2489547  85.8519495 123.0609515
  60.3372893  85.6645635 123.9087725  60.6779259  85.2056925 122.6614361
  60.3251649  85.7282503 123.1281266  57.8160006  85.1350655 122.0427177
  57.2530841  84.7223265 122.5666838  58.5781030  85.0603561 122.4620320
  57.8454455  85.0628056 122.1820177  59.4244986  77.1403391 106.1688776
  59.6640990  77.3481375 105.3564119  59.7460827  76.3360900 106.2777721
  59.5082144  77.0517492 106.0649329  54.7335277  69.0696787 110.0148314
  55.4881245  69.4375104 109.7765364  54.5562811  69.4436341 110.7827494
  54.8189755  69.1794975 110.0933203  53.3755998  87.1248676 114.6463807
  54.0776577  86.6100665 114.7036564  53.2953481  87.4522828 115.4510682
  53.4679758  87.0962902 114.7736599  68.0270175  75.2191227 118.0595853
  67.1898597  75.2893415 118.2943448  67.9958406  75.2215722 117.1870156
  67.8988458  75.2301455 117.9655401  54.4234905  77.3624263 123.7744222
  54.5955408  77.2530158 124.6229503  54.9604262  78.0078669 123.5375414
  54.5279908  77.4416265 123.8649319  53.0892341  71.4767106 106.7126427
  52.9067915  71.6938987 105.8867420  53.9517954  71.5906119 106.7685042
  53.1896931  71.5257004 106.5980914  52.7006773  83.3155028 114.1549415
  53.5395673  83.5477961 114.2023177  52.7318543  82.4459340 114.0856450
  52.8288491  83.2211975 114.1514060  53.3259476  83.7355903 118.4562721
  53.8657701  83.5927034 119.1266093  52.6429423  84.1352654 118.8246747
  53.3051630  83.7735574 118.6097142  58.7692061  68.4793517 109.7475451
  59.4978221  68.3009472 109.3013607  58.8586953  69.3211596 109.9582629
  58.8898723  68.5777395 109.7128969  62.7500361  79.4146904 113.6507745
  63.5057876  79.8478418 113.6896654  62.8562686  78.7651674 114.2242381
  62.8770532  79.3824388 113.7405770  65.7880532  83.2420181 114.4010148
  65.3515764  83.2456924 115.1569119  65.4543448  83.9225680 113.9689725
  65.6743152  83.3432637 114.4490980  60.3609606  85.2828514 125.7253298
  61.1450023  85.3959362 126.0909040  60.1606201  84.4569651 125.9211984
  60.4475631  85.1775234 125.8087684  48.7296621  79.9556194 118.6097142
  48.4635037  79.1395311 118.7688132  48.7435186  80.0009350 117.7392658
  48.6921344  79.8413099 118.5050624  65.7078015  70.2834009 116.6439576
  66.3503924  70.3532114 117.2301491  65.9601036  69.6163232 116.1419118
  65.8400147  70.1960358 116.6566855  52.6354368  74.7541279 105.2248900
  51.9212546  74.4679458 105.6371333  53.1198337  75.0937904 105.8655288
  52.6013732  74.7622928 105.3804535  53.4795228  73.4934572 121.2564150
  52.7867025  73.0231552 121.5024881  54.0955555  73.2672877 121.8305857
  53.4679758  73.3901704 121.3773302  60.5179999  87.1938616 119.3719754
  59.7195245  86.9538116 119.6293622  60.9666011  87.2453009 120.1186801
  60.4654611  87.1661007 119.5204678  68.9224879  79.9601101 113.2929785
  69.5841313  79.3991770 113.1925694  68.2816291  79.4653132 113.6182476
  68.9253746  79.8037510 113.3262125  59.8101686  83.2571233 105.6010708
  60.2252835  82.9256256 104.9095204  58.9793616  83.0240135 105.4730845
  59.7489695  83.1742489 105.4801556  49.1390035  80.7414974 115.8908886
  48.9565608  80.7161860 115.0381178  49.8739704  81.2113911 115.9297795
  49.2204099  80.8076336 115.7706805  65.2089709  80.9766484 113.0341774
  65.4445298  81.1211682 112.2068625  65.3579273  81.7408892 113.4273287
  65.2655513  81.1105538 112.9705378  52.2035787  77.4599976 122.3990995
  52.9275759  77.4453007 122.8855890  52.3051923  78.1695332 121.9012963
  52.3253996  77.5624680 122.3969782  67.0380166  79.8168149 110.8711378
  67.3688383  80.3495790 110.2651473  67.6113254  79.8707037 111.5273329
  67.1713845  79.9037718 110.8789159  59.5780736  80.9399061 127.2639942
  58.7853717  81.2542573 127.4492562  59.6929663  81.1550529 126.4260727
  59.4776147  81.0182898 127.1678277  62.2512055  77.6633052 111.5534958
  62.3458910  78.4022346 112.0074583  61.6270899  77.2350528 111.9869522
  62.1721085  77.7094373 111.6843105  60.5064529  80.8419265 122.2025239
  61.0803391  80.2046509 122.3573803  60.4279333  80.8423347 121.3334896
  60.5797764  80.7484376 122.0971650  49.1060945  77.6208474 116.0407953
  49.6834448  77.4844925 116.6800198  48.4075007  77.1644258 116.2953537
  49.0881967  77.5330740 116.1730243  62.5035076  79.5081792 104.7871910
  62.4215239  79.5783979 105.6526897  63.1414797  80.0711536 104.5955650
  62.5854914  79.6020763 104.8861859  55.8628248  79.2742530 114.2546436
  55.6047492  78.4414265 114.2277736  55.9176730  79.5000143 113.4138936
  55.8328025  79.1840301 114.1266573  60.9429298  71.3770981 114.3550529
  60.2385624  70.8880166 114.5134448  60.9914272  71.3893455 113.4838973
  60.8459349  71.3060629 114.2489869  54.8362960  76.8280292 114.7411331
  54.2612551  76.9872461 115.3775292  54.4598636  76.1915702 114.2779781
  54.6965772  76.7578105 114.7665889  58.5036248  75.3003642 119.6003709
  58.1150681  74.8757859 118.9455900  57.8390947  75.5485791 120.1080736
  58.3483176  75.2742363 119.5791577  68.1459518  75.0578646 112.3751539
  67.8896082  74.2458588 112.1849422  68.9888832  75.0656214 112.1481727
  68.2325543  74.9390644 112.3136356  44.5819779  76.4720367 112.7555771
  44.6680030  76.0952236 113.5369301  45.2095576  76.0980813 112.2775730
  44.6876330  76.3605849 112.8001249  62.3262610  68.9978270 117.1127693
  62.7073122  68.3156442 117.4995568  61.5225894  68.7087873 116.9303358
  62.2639072  68.8545319 117.1431749  59.6075187  79.5302246 107.7980516
  60.4215825  79.8217139 107.6863288  59.5434328  78.8762109 107.2238809
  59.7177926  79.4767441 107.6969354  65.8284677  82.2128242 122.2110092
  65.5923314  81.3816307 122.0922153  66.4727906  82.1613850 122.7964936
  65.8879348  82.0825930 122.2795985  55.4783095  83.0023764 112.9252828
  56.1157042  82.7635511 113.4704622  55.9038167  83.2060923 112.1905989
  55.6359261  82.9974774 112.8969986  50.1695737  85.2412100 116.8087132
  50.2099883  85.5126951 115.9806912  50.7290261  85.7654008 117.2244920
  50.2579083  85.3587855 116.7479020  56.1185910  78.2226053 107.2627718
  56.5031063  78.0033760 108.0144263  55.8697530  79.0488999 107.3928794
  56.1387983  78.3124200 107.3928794  56.2854450  71.5032469 126.9790302
  55.9707891  72.2732031 126.7159865  55.9644383  70.9402725 126.3942529
  56.1913369  71.5342737 126.8531652  66.8521097  81.9972691 118.2738386
  66.5466915  82.7300748 118.6351702  66.1327313  81.5910621 117.9931172
  66.7008440  82.0454424 118.2851523  57.8604567  83.4796186 114.6046615
  57.9343575  83.3171358 115.4588465  58.6774073  83.6686376 114.3607096
  57.9920926  83.4832929 114.6944640  72.5522890  78.6365692 117.6006731
  72.4847390  78.6561651 116.7309317  72.5378552  79.4796019 117.8262401
  72.5401646  78.7639427 117.5059208  51.6210324  83.8254049 111.6341058
  50.7948441  84.0715786 111.5075337  51.6822315  83.7466130 112.5003116
  51.5084491  83.8498998 111.7430003  53.8386347  69.8922990 112.5936498
  52.9708773  69.9645590 112.6594107  54.1261552  70.6945069 112.7824473
  53.7526095  70.0217137 112.6311265  62.9619236  70.0400850 120.9247820
  63.7072828  69.8510660 120.5111245  62.5456541  70.5659088 120.3661676
  63.0104210  70.0902995 120.7812393  56.4009153  86.4430929 109.3360088
  56.6907451  86.0519911 108.6119315  57.1312633  86.6247634 109.7765363
  56.5516037  86.4124743 109.2942895  70.3381507  77.4110078 115.8753325
  70.8889428  76.7778147 116.1150417  70.3225622  77.9425471 116.5668829
  70.4166703  77.3959026 116.0132183  56.9903898  81.2448675 120.4213218
  56.4915591  81.9564443 120.4998107  57.8004122  81.5649342 120.3831381
  57.0360005  81.3975524 120.4269787  54.3415068  88.4198312 112.4020238
  54.1215364  88.1295667 113.1946905  54.1209590  87.7613267 111.8738150
  54.2762662  88.2798020 112.4409146  53.2532015  80.5071628 114.6675939
  52.9645264  79.8809100 115.2021667  54.1215363  80.4491916 114.7340620
  53.3392267  80.4059173 114.7566894  64.0409913  75.6506412 114.9857921
  63.6974679  74.9296747 115.3365171  64.1402956  75.4420263 114.1436279
  64.0051956  75.5130615 114.9129601  56.5083024  89.7927702 111.1850930
  57.1607082  89.2604144 111.4141956  55.8108633  89.4396354 111.5718804
  56.5013742  89.6617225 111.2763098  53.4564289  82.1466879 110.5918304
  54.2110257  82.5279918 110.8053767  52.8634901  82.5978023 111.0465001
  53.4801002  82.2695707 110.6901183  64.5022942  82.1132116 110.5281909
  65.0680975  82.7725326 110.4440452  63.8550846  82.4581814 110.9998312
  64.4901699  82.2614057 110.5854666  55.9170956  74.1029720 125.7175517
  55.1070732  74.4087499 125.6065359  56.3945642  74.8235302 125.8328101
  55.8674435  74.2544321 125.7182588  54.7762515  83.3175441 115.9658420
  54.2543269  83.4575732 116.6510284  55.1636536  82.5586105 116.1560537
  54.7566216  83.2260965 116.0959496  51.7653699  73.3681249 110.0353374
  51.4778495  72.9982520 109.2985322  52.4524168  73.8376105 109.7737079
  51.8242597  73.3828219 109.8868450  60.9729520  85.0570900 109.9518989
  60.7316196  84.3238761 109.5446054  61.1530853  85.6057757 109.2985322
  60.9637144  85.0293291 109.7949212  56.2028841  80.3479460 111.3639911
  56.0071624  80.9554194 110.7700214  56.4263187  79.6547404 110.8831585
  56.2063482  80.3356985 111.2055992  54.6007371  77.2334198 111.4820779
  55.3230023  77.3975356 111.0224585  54.1215364  77.9543863 111.3760119
  54.6371102  77.3632427 111.3986393  62.5600879  73.5697996 116.8617464
  61.7211979  73.5959275 116.6255727  62.6305246  74.2168732 117.4422811
  62.4469272  73.6694122 116.9126581  52.2514988  79.6392270 120.5874919
  52.7636085  79.9176523 119.9383679  51.9651330  80.3781564 120.9537732
  52.2849851  79.7894624 120.5464797  61.0070157  70.4683373 111.5945080
  61.7096510  70.2691122 111.1165038  60.7414346  69.6959316 111.9013924
  61.0716789  70.3246340 111.5690522  66.4358402  78.7765983 114.1478706
  66.3492377  78.9321409 115.0013485  65.9808882  79.4204059 113.7738111
  66.3561659  78.8941738 114.2185813  49.3381894  74.1462462 110.8838656
  49.4398030  74.9488623 111.2119631  50.1337781  73.9449798 110.5861736
  49.4709800  74.2348361 110.8874011  55.7698713  71.7318659 120.6475961
  55.5781910  71.7473793 121.4975384  56.6197309  71.9282333 120.6242616
  55.8674435  71.7633010 120.7699255  50.1545626  74.2609640 118.6259777
  50.0131118  73.4093581 118.7504285  50.4386189  74.3038301 117.8021983
  50.1753472  74.1409390 118.5227401  60.3084218  76.0976730 112.7704265
  60.0618933  76.0172481 113.6041054  60.6369342  75.3130198 112.5766793
  60.3205462  75.9702996 112.8651788  64.2032267  82.8060090 116.5591047
  64.0646627  83.5041135 117.0639789  63.4232265  82.6508746 116.2027228
  64.0675494  82.8860256 116.5817321  62.5410352  79.1056465 122.8113428
  62.5358391  78.2336282 122.8155855  63.2471346  79.3044634 122.3382884
  62.6455356  79.0060339 122.7420464  56.2681246  78.8333449 122.1827248
  56.4124621  79.4134657 121.5470358  56.6156894  79.2109746 122.8877103
  56.3408707  78.9754153 122.1926243  58.4401163  78.0323617 119.9652380
  57.6924477  78.2254632 119.5600658  58.5942688  77.2068837 119.7276501
  58.3523591  77.9388729 119.8697786  55.3409001  87.0236221 119.0488275
  55.4898564  86.4639137 118.3961680  56.1209003  87.1028222 119.4320794
  55.4783094  86.9521786 119.0085224  65.6985640  82.1638343 107.3207546
  65.3192449  81.3775481 107.3136835  65.0351886  82.7125200 107.1779190
  65.5444115  82.1283167 107.2988343  57.8662301  87.1950864 120.3272766
  57.7905972  86.5259674 120.8823554  57.7952161  87.8968652 120.8413432
  57.8442908  87.1995771 120.4849614  58.6802940  71.9274168 120.8547784
  59.1375554  72.6598142 120.9820576  58.7559269  71.5040633 121.6135040
  58.7593910  71.9731406 120.9848860  50.9235931  72.1739988 121.9437227
  50.3878121  71.5620346 122.2597995  50.9853696  72.7488124 122.5970894
  50.8531564  72.1686915 122.0872654  63.1530266  65.1064043 114.7241627
  63.2713834  65.5640507 113.9908929  62.9792442  64.3009304 114.4377844
  63.1449437  65.0557815 114.5742560  58.5232548  85.7151863 111.1596372
  59.2882439  85.4461506 110.8379036  58.4210638  85.2301873 111.8766435
  58.6214044  85.6041427 111.2176200  56.5585318  73.9176272 117.6989608
  55.7681393  73.7367732 118.0206944  56.9545941  73.1403225 117.6819902
  56.5002194  73.7763733 117.7442156  61.0451209  82.7464046 103.1396321
  61.8124194  82.8064171 102.7302173  60.5982518  82.1744488 102.6552640
  61.0924636  82.6700622 103.0074032  61.9429004  81.5518702 115.4249054
  61.2674006  81.3203934 115.9262441  61.9521380  80.9439885 114.7991159
  61.8447509  81.4277627 115.4065206  59.0723148  76.3936531 122.1813107
  59.0082290  77.2546488 122.0533243  59.2120336  76.0768524 121.3808658
  59.0838618  76.4736698 122.0441320  63.9445739  84.4083834 107.6559232
  64.0265576  85.2150821 107.3320683  64.4295481  84.4279794 108.3800005
  64.0282897  84.5304497 107.7146130  57.7542242  79.0868670 116.3229310
  57.3304491  79.2873169 115.5868328  57.5787097  78.2397518 116.4353609
  57.6653123  78.9917452 116.2303000  57.2553936  90.6019183 118.7850767
  57.7449866  89.9029973 118.6026432  56.6838168  90.3043053 119.3726824
  57.2438466  90.4545407 118.8451808  53.0424687  79.5820722 111.7557282
  53.1989306  79.5167525 112.6113274  53.3825280  80.3569274 111.5435962
  53.1157922  79.6869920 111.8511876  59.5803832  78.9578605 110.6250645
  60.1219377  78.4548987 111.0889266  59.8950391  78.9043800 109.8140131
  59.7068229  78.8758026 110.5734457  57.7490282  84.3495957 107.9090673
  57.8183102  83.4910495 108.0483674  58.5278737  84.5667838 107.5809698
  57.8743132  84.2548821 107.8807831  60.7293101  73.8514910 120.6772946
  60.9435071  73.2125824 120.1236300  60.1127000  74.2960734 120.2480808
  60.6698430  73.8225054 120.5323377  62.1397769  86.7733658 112.1227167
  61.7477561  86.4700373 111.4050033  62.2950841  87.6102748 111.9332121
  62.1051359  86.8517495 111.9883664  49.6158949  76.7655672 112.0718049
  49.9957914  77.1840217 111.4078317  49.0414313  77.3469128 112.3786893
  49.5870274  76.9133531 112.0194790  62.8932189  75.4603975 121.6156253
  62.0808871  75.1529866 121.6969426  63.3522124  74.9802975 122.1798965
  62.8412574  75.3440468 121.7110847  62.3037444  83.3383647 112.0633197
  61.9452099  83.5098290 112.8397230  61.8176155  83.7996853 111.5061196
  62.1796141  83.4322618 112.0958466  60.1207830  66.9614846 115.6660289
  59.2501388  66.9353567 115.6193598  60.3748171  66.7892038 114.8486134
  60.0301390  66.9324989 115.5380425  57.0925809  79.0182813 104.6033432
  57.3818334  79.7947695 104.8777006  57.1797608  78.5071544 105.3047931
  57.1480066  79.0574731 104.7475930  59.9885697  76.8664047 126.3984955
  60.4585328  77.4906163 126.7852829  60.0347577  76.1981022 126.9578170
  60.0653573  76.8598727 126.5385027  57.1456970  68.9721074 117.1233759
  56.6295459  68.2801266 117.2485338  56.5850899  69.6391851 117.0696358
  56.9863484  68.9684332 117.1339825  59.2149204  69.5114034 118.9526612
  58.8280957  69.5363066 119.7340142  58.7282141  68.9455713 118.5001128
  59.0861713  69.4309785 119.0014515  63.4642183  84.2287543 123.0100398
  64.1021904  83.7347739 122.6762854  62.8216275  84.1564944 122.4252625
  63.4636410  84.1446552 122.8742753  65.1899183  76.0776689 117.5766314
  64.7626791  75.9903038 116.8214413  64.5525236  76.1854465 118.1621158
  65.0328791  76.0809349 117.5511755  58.8806346  66.3981020 121.2436872
  59.5099463  66.9341320 120.9657942  59.0492208  66.3058379 122.0950437
  58.9984140  66.4642382 121.3285400  58.6820260  71.1852214 123.5163283
  59.5093690  70.9137363 123.5721898  58.7028106  71.9813056 123.8727101
  58.8073110  71.2631969 123.5778466  63.5196440  84.9207351 119.6505755
  64.3088818  84.5696416 119.7707837  63.6940038  85.7343740 119.3882389
  63.6616721  84.9893208 119.6293623  53.2589750  78.3316077 116.7033544
  52.4177757  78.2319951 116.9112438  53.4679758  79.1011557 117.0547864
  53.1654443  78.4308120 116.7860859  50.7365317  75.9535614 114.5318294
  50.3422015  76.0278626 113.7568404  50.1805434  76.3393560 115.0826656
  50.5968130  76.0217389 114.4985954  62.3730264  68.9316908 114.2122173
  62.5779857  68.8639216 115.0579170  62.0456688  69.7375729 114.1443351
  62.3545512  69.0402848 114.3281828  57.0706415  76.2597476 115.9531141
  56.7669553  75.7053465 116.5541549  56.3685836  76.4389686 115.4659176
  56.9222625  76.2042259 115.9700847  56.1272512  73.5697996 110.5175843
  56.4032247  72.8516909 110.1053411  56.7271182  74.1682916 110.3096949
  56.2565777  73.5518367 110.4256604  55.1324766  83.4747197 120.6603239
  55.0245121  83.4849259 121.5265297  55.3420548  84.3001977 120.4708193
  55.1474877  83.5988272 120.7607331  65.6263952  69.4848672 113.6924939
  65.0138265  69.9719074 114.0778671  65.7228127  68.8092163 114.2362590
  65.5501849  69.4566981 113.8303797  59.6283033  71.2411513 108.7922438
  60.0826779  71.4122074 109.5170283  60.1023078  70.6279624 108.3920214
  59.7651353  71.1762399 108.8396200  53.1498558  80.7259839 118.1225177
  52.5586491  81.3669338 118.0928192  53.9119582  81.1497457 118.0956476
  53.1746819  80.8835678 118.1140324  53.5459181  71.8861837 118.7893194
  54.0060662  71.9600767 119.5268318  53.5915288  72.6843091 118.4393016
  53.6209736  72.0155984 118.8465951  55.1942531  72.5528532 123.3565221
  54.8028096  71.9061879 123.7920999  55.3628393  73.1439967 123.9759477
  55.1613441  72.5442800 123.5127927  69.2688980  80.5565609 119.1202455
  69.3272103  81.0052258 119.8662431  68.6355447  80.9664422 118.6832535
  69.1840275  80.6839344 119.1655003  62.9088074  86.1769151 115.5557201
  62.7107763  86.6659965 114.8613412  62.2875785  86.3810392 116.1341334
  62.7875639  86.2785689 115.5380424  56.9696053  77.9454048 109.8967445
  57.7138098  78.3328324 110.1350395  57.1156749  77.1011473 110.0607933
  57.1006638  77.8784521 109.9561415  58.8875628  69.7404307 114.9299307
  58.0411673  69.9127114 114.8040657  58.8846761  68.9353650 115.2665135
  58.7622778  69.6465336 114.9610434  59.9573929  73.5179521 115.7961365
  59.4833883  72.9921283 116.3066676  60.3292064  72.9708994 115.2276226
  59.9423817  73.3595518 115.7876512  50.3346959  75.5151028 121.1644910
  51.1972572  75.4146737 121.0782240  50.0038742  74.9345737 120.6030483
  50.4132155  75.4142655 121.0690316  66.2210659  78.5781897 117.2068145
  65.9808882  77.7388312 117.2110572  66.7002666  78.6582063 117.9308919
  66.2562843  78.4663296 117.3142948  61.8857428  74.4116076 108.8587119
  61.3580447  74.4944820 108.1692827  62.3453136  75.1533947 108.8551763
  61.8759279  74.5336738 108.7561814  68.2215846  75.3583354 115.1597404
  67.9825616  75.3179188 114.3218189  68.3849747  76.2054506 115.2863125
  68.2106150  75.4775439 115.0550886  64.8261876  79.7433303 121.0902449
  65.5496075  79.2905830 120.9113469  64.5611839  80.0237969 120.3074777
  64.8943150  79.7184272 120.9481165  53.6948745  74.3393477 117.8255329
  53.0701815  74.3511869 117.2181281  53.3594340  74.8153652 118.4746569
  53.5534237  74.4111994 117.8311897  53.8790493  72.6818595 103.8828014
  53.5303298  73.3338321 104.3459563  53.3986939  72.6675708 103.1551885
  53.7560737  72.7761649 103.8439105  50.4074420  82.3993937 119.2659093
  49.8774345  81.7086376 119.3154068  50.6799514  82.3904122 118.4371802
  50.3699143  82.2961069 119.1506509  61.4394511  82.9819639 107.9896776
  62.1628710  83.4477752 107.8461349  60.9995102  83.0493249 107.2394373
  61.4810203  83.0603476 107.8581557  60.6080666  79.8417182 119.2397465
  59.9937659  79.2975232 119.5346100  61.1247951  79.3281418 118.7603281
  60.5936328  79.6853591 119.2121693  59.8476963  80.9121452 116.9741763
  59.4204571  80.2871170 116.5407199  59.8401907  80.6296373 117.8000770
  59.7836104  80.7774232 117.0321591  52.9639490  75.9486625 120.0430197
  53.1232977  75.1929949 120.4481919  52.7832384  76.4977564 120.6970935
  52.9604849  75.9180438 120.1992903  60.9059793  68.1147860 120.5980987
  60.4100354  68.3111534 119.9072553  61.6628855  68.5140528 120.4269788
  60.9446618  68.2025594 120.4701123  58.1762673  71.7890206 117.1884297
  58.2005160  71.2550318 116.4997077  58.4274146  71.2807515 117.8509888
  58.2172591  71.6351110 117.1848942  45.6870262  79.0721701 116.6227441
  45.5813712  79.0268545 115.7579525  44.9370482  79.4175482 116.9041726
  45.5605865  79.1162609 116.5364771  54.4563995  70.5161024 116.5690042
  54.4962366  71.0170231 117.2824749  53.6313660  70.6071418 116.2995965
  54.3403521  70.6042841 116.6340580  56.6393608  80.0821764 124.6710336
  55.7889238  80.2193479 124.8067981  56.8021735  79.3485543 125.1158038
  56.5377471  79.9935866 124.7565935  55.8778358  77.0321534 118.8663941
  55.0470288  77.1995352 118.6599189  55.8229875  76.6557485 119.6512826
  55.7467773  77.0011265 118.9512469  53.6862141  70.5230427 124.5020351
  54.3114845  69.9792560 124.7749783  53.2312621  70.0425345 123.9328142
  53.7110402  70.3719908 124.4581945  54.2514402  75.3077126 109.3954058
  54.3917363  75.8049590 110.0982700  54.7496935  74.6063420 109.5368272
  54.3455483  75.2779104 109.5205637  54.2814624  76.1744237 106.7246635
  54.9159704  76.7704662 106.6596097  54.3640235  75.8747694 107.5392505
  54.3871175  76.2185145 106.8349722  67.2597190  78.7059714 119.5932999
  67.8515031  79.3456965 119.6251197  67.6956185  78.0082751 119.8825066
  67.4115621  78.6978064 119.6413832  55.8593607  72.1058212 106.6992077
  56.1809448  71.6261295 106.0451339  56.1220551  72.9157858 106.5082889
  55.9459633  72.1548110 106.5747569  59.0890580  83.1277086 120.2190893
  58.5815671  83.6812933 120.6631524  58.7917226  83.1885376 119.4009668
  58.9695465  83.2183398 120.1639350  61.2552762  71.4930406 119.0615556
  61.6807834  71.0402933 118.4499083  60.6409755  70.9390477 119.3380344
  61.2281408  71.3444382 119.0120581  50.7867612  78.3712077 109.9936181
  51.2959842  78.9676585 110.3747487  51.2601885  78.1038051 109.3112601
  50.9310988  78.4197893 109.9490704  61.6998360  87.0440344 108.1494837
  60.9827670  86.8701206 107.6842074  62.3505098  86.8092916 107.6170323
  61.6900211  86.9836137 108.0024055  59.6946985  67.9645506 112.4706133
  59.0515303  67.8143152 113.0391272  59.3546392  67.7187851 111.7055238
  59.5492062  67.9057628 112.4409148  64.2846332  75.9204933 111.8936142
  63.6137521  76.4634635 111.7649207  64.9786082  76.3899788 111.6517837
  64.2875199  76.0703204 111.8391669  58.3333065  88.0601645 117.1247900
  58.1098720  87.3020474 117.4931926  57.8442909  88.0899666 116.4028340
  58.2276514  87.9523869 117.0724641  64.4474459  72.3760816 114.8026515
  64.8002069  71.9490539 115.4772314  63.5889261  72.2911660 114.9327591
  64.3723904  72.3005557 114.9221525  53.1458144  75.0068336 112.8609361
  52.4270133  75.4232469 113.1282225  53.5170506  75.5722575 112.3101000
  53.0950076  75.1517617 112.8192168  62.4457725  75.6396185 118.7511357
  62.4255652  75.4579480 119.6046136  62.4936926  76.5108203 118.7270941
  62.4492366  75.7412723 118.8734652  60.3904055  82.2283377 124.6759834
  60.3499910  81.5833054 124.0904990  61.2027373  82.1719994 124.9885246
  60.5047208  82.1242344 124.6356783  56.9811522  88.2802103 114.5784985
  56.5671921  87.6176233 114.1888826  57.6658897  88.4279962 114.0580679
  57.0209894  88.2042761 114.4441482  60.3476816  87.4392188 115.3308601
  59.9493100  87.5494458 114.5629422  59.7328036  87.6474254 115.9135161
  60.1975706  87.4865756 115.3039901  58.9204718  74.0466336 108.1982741
  58.3269558  74.3683332 107.6467308  58.9579996  73.2007431 107.9903847
  58.8379108  73.9690664 108.0865512  65.8798519  67.4979228 115.7310827
  65.3729384  66.7908368 115.6632005  66.6765953  67.1672417 115.8611904
  65.9225758  67.3452380 115.7409822  61.7962535  74.0045840 111.6284491
  61.5676228  74.0278542 110.7862849  62.0560611  73.1803307 111.7479502
  61.8008723  73.8861920 111.5209689  56.0781763  75.8580313 121.2309591
  55.5660667  75.2501496 121.5894623  55.9061260  76.5736906 121.6983567
  55.9771400  75.8743613 121.3525815  50.9247478  74.3017889 123.8811953
  50.7550068  74.9619264 123.3360160  50.4813428  74.5124450 124.6024442
  50.8346812  74.4303871 123.9073583  54.8507298  72.5422387 112.9238687
  55.3264664  72.9039467 112.2888868  54.3495897  73.1978854 113.2038830
  54.8472657  72.6916575 112.8715428  68.0818659  82.0144155 108.7151692
  68.4652265  82.7635511 108.9449789  67.2862772  82.2609974 108.4563681
  68.0212441  82.1613849 108.7109265  59.9550834  73.7804558 123.6711847
  60.5122264  73.5518368 123.0390312  59.6311899  74.5410224 123.3947059
  59.9897244  73.8588395 123.5368344  47.8249543  77.2064754 119.1400443
  47.2776262  76.5365400 119.2581311  48.6141921  76.8394602 119.2043910
  47.8601726  77.0529741 119.1669144  57.6733951  76.8672211 124.6363854
  58.4245278  77.1823888 124.9503408  57.8656528  76.6651382 123.8097776
  57.8125365  76.8839593 124.5607250  56.8933951  74.6863587 106.2912071
  57.2732916  74.7043216 105.5063186  56.1526547  75.1317575 106.1702918
  56.8402788  74.7545361 106.1575639  64.5219241  72.9945778 111.8787649
  64.5213468  72.8394434 112.7371926  64.3175421  73.8408765 111.8229035
  64.4919019  73.0966398 111.9975589  46.5836512  76.4185562 116.2946466
  46.4058273  75.9662171 117.0201382  46.2955534  77.2211724 116.4784944
  46.5149465  76.4708120 116.4289969  62.2460093  77.6743280 115.5323856
  62.7413759  76.9566275 115.4927877  61.4359869  77.3714077 115.4178343
  62.2003987  77.5240926 115.5097582  57.6918705  81.5241093 107.6820861
  56.8830027  81.2007766 107.6354170  58.1993614  80.8174315 107.6149109
  57.6468372  81.3722409 107.6651155  48.3208982  78.9513286 113.4068225
  47.4554502  78.9398976 113.2950996  48.4207798  78.7643509 114.2539364
  48.2083149  78.9219347 113.5157170  64.3111912  80.4246967 118.2200985
  64.7366984  79.9021389 117.6671410  63.9468832  81.0227804 117.6989608
  64.3198515  80.4357194 118.0609995  53.9465992  88.7211185 116.9798331
  54.2612551  89.5347573 116.9876112  54.3559405  88.3361403 117.6480490
  54.0534090  88.7839887 117.0802422  60.8990512  84.1381231 114.5502143
  61.3701690  84.8521494 114.7192128  61.2350690  83.5379981 115.0862012
  61.0185627  84.1552696 114.6534519  57.8160007  68.9108702 121.5060237
  57.9487912  68.1139695 121.8341213  58.2005159  69.4375105 122.0858513
  57.8916335  68.8708619 121.6403740  61.5364458  83.9299165 121.3129835
  60.9885404  83.3057049 121.0449901  61.9977487  84.1193437 120.5973915
  61.5231667  83.8658216 121.1680266  60.8892362  65.8339028 118.1041331
  60.0838325  65.7236758 118.4209169  60.7599097  65.9351484 117.2471196
  60.7512495  65.8322698 118.0249371  64.3458322  71.9984520 118.6981028
  63.7621311  72.4993726 118.2858595  64.6662616  71.4914076 118.0645351
  64.3071498  71.9976355 118.5439535  56.8853121  70.9125115 108.9739702
  57.7068816  71.0823428 108.7321397  56.4222772  71.0672376 108.2506000
  56.9384284  70.9606848 108.8311347  55.4748453  68.9067877 119.7538131
  56.0192866  68.5659004 120.3442473  55.5285389  69.7653338 119.8959416
  55.5637573  68.9823136 119.8620005  51.2879012  82.6684293 116.6276939
  51.8923869  82.6280127 115.9990760  51.0806325  83.5155445 116.6580995
  51.3467909  82.7872295 116.5393056  61.1022784  84.9350238 117.8439176
  61.9221158  84.7913204 118.1055472  60.8216862  85.5596437 118.3855614
  61.1819528  85.0060590 117.9627116  46.5230294  81.6518911 116.4975862
  46.4254572  80.8415182 116.8065919  47.3059164  81.6310704 116.1122130
  46.6246431  81.5286001 116.4862725  77.5736435  92.5915090 110.8082053
  77.5430439  93.4459727 110.9800322  78.1717783  92.2910382 111.3668196
  77.6573592  92.6731586 110.9156855  70.7736119  91.6790741 115.5634983
  69.9174015  91.8399239 115.6144100  70.8203773  90.8082805 115.5840044
  70.6535231  91.5741543 115.5741049  65.1577259 101.2153459 111.3272215
  64.4060159 100.8368997 111.0988260  65.6063271 101.2471892 110.5791025
  65.1126926 101.1639066 111.1829717  70.6102219 101.6378828 106.7557762
  70.2753587 102.3155750 106.3201984  71.1229089 101.2484139 106.1674634
  70.6367800 101.6803406 106.6044553  70.1506510 103.5893097 112.6968873
  70.5345890 104.1579996 112.1573649  70.0865652 102.8642607 112.2174690
  70.1979938 103.5668560 112.5462736  66.7362015 101.2271851 113.5934987
  66.8372378 100.4172205 113.9032115  66.1403761 101.1328797 112.9634666
  66.6634554 101.0936879 113.5461226  75.3953009  95.1667392 109.0800363
  75.2792535  95.9175078 109.5092501  76.1908896  94.9091345 109.3296450
  75.4957599  95.2402239 109.1804454  59.9327060  97.2492137 113.2187321
  59.6977244  96.4159790 113.1119590  60.0712700  97.5296803 112.4048522
  59.9182722  97.1675641 113.0829676  62.2317147  89.4177868 116.1171629
  61.6122179  88.8270515 115.9481643  62.1301011  90.0089303 115.4835952
  62.1254823  89.4181951 115.9976618  67.2783335  99.1561415 110.3669705
  67.5999176  99.6966622 109.7631013  67.9255431  98.5858186 110.4991995
  67.4209390  99.1520590 110.2976740  69.3285043  91.1577410 110.4504092
  70.0265207  91.3365537 110.9425555  69.6437375  90.6347749 109.8274481
  69.4780380  91.1071182 110.4306102  61.9586280  92.9630150 118.3615198
  61.8344977  93.5492595 118.9965016  62.6104565  92.4690345 118.6627473
  62.0359929  92.9768954 118.5001127  69.5172978  97.5447855 110.4383883
  69.9566614  96.9364955 110.8838656  69.3677641  97.1655228 109.6669348
  69.5594444  97.3986326 110.3903051  66.9844621  96.1391867 117.6402709
  67.6293624  95.6464310 117.3213657  67.2246398  96.2816653 118.4668787
  67.1155206  96.0869309 117.7152242  67.5011906  86.5269807 114.5325366
  67.1715236  86.9780950 113.8629065  66.8256908  86.4485970 115.0798373
  67.3522343  86.5820942 114.5148590  73.1182315  95.8975036 107.3914652
  73.0333610  96.7536003 107.5364221  73.6066698  95.6219360 108.0596812
  73.1771212  95.9832358 107.5116734  74.7088314  82.5155329 112.7774977
  74.3941755  83.2058808 113.2095399  74.1915256  82.4600112 112.0760478
  74.5852784  82.6090218 112.7371926  74.0500748  92.5159830 108.8912388
  73.5212219  92.7319464 109.5509694  74.5725768  93.2095969 108.8113357
  74.0489201  92.6502967 108.9767987  65.9400356  96.4123047 107.6919856
  65.3557571  96.9173078 108.0985719  65.5370451  96.1865434 106.9516448
  65.7939659  96.4531295 107.6424881  61.4944384 102.1277808 114.4943527
  61.0111963 102.8528298 114.4703111  62.3067703 102.4253938 114.6053685
  61.5435132 102.2780162 114.5070806  70.3977570  92.6588699 106.1688776
  70.6373574  92.8666683 105.3564119  70.7193411  91.8546208 106.2777721
  70.4814728  92.5702800 106.0649329  65.7067860  84.5882095 110.0148314
  66.4613828  84.9560412 109.7765364  65.5295395  84.9621649 110.7827494
  65.7922339  84.6980283 110.0933203  64.3488582 102.6433984 114.6463807
  65.0509161 102.1285973 114.7036564  64.2686065 102.9708135 115.4510682
  64.4412342 102.6148210 114.7736599  64.0624925  86.9952414 106.7126427
  63.8800498  87.2124295 105.8867420  64.9250538  87.1091427 106.7685042
  64.1629514  87.0442312 106.5980914  63.6739357  98.8340336 114.1549415
  64.5128256  99.0663269 114.2023177  63.7051126  97.9644648 114.0856450
  63.8021075  98.7397283 114.1514060  69.7424644  83.9978825 109.7475451
  70.4710805  83.8194780 109.3013607  69.8319537  84.8396904 109.9582629
  69.8631306  84.0962703 109.7128969  73.7232945  94.9332212 113.6507745
  74.4790460  95.3663726 113.6896654  73.8295269  94.2836982 114.2242381
  73.8503115  94.9009696 113.7405770  59.7029205  95.4741502 118.6097142
  59.4367620  94.6580619 118.7688132  59.7167769  95.5194658 117.7392658
  59.6653927  95.3598407 118.5050624  76.6810599  85.8019317 116.6439576
  77.3236507  85.8717422 117.2301491  76.9333620  85.1348540 116.1419118
  76.8132731  85.7145666 116.6566855  63.6086952  90.2726587 105.2248900
  62.8945129  89.9864766 105.6371333  64.0930921  90.6123212 105.8655288
  63.5746315  90.2808236 105.3804535  64.4527811  89.0119880 121.2564150
  63.7599608  88.5416860 121.5024881  65.0688139  88.7858185 121.8305857
  64.4412341  88.9087012 121.3773302  79.8957462  95.4786409 113.2929785
  80.5573896  94.9177078 113.1925694  79.2548874  94.9838440 113.6182476
  79.8986330  95.3222818 113.3262125  70.7834270  98.7756540 105.6010708
  71.1985418  98.4441564 104.9095204  69.9526200  98.5425443 105.4730845
  70.7222279  98.6927796 105.4801556  60.1122619  96.2600282 115.8908886
  59.9298192  96.2347168 115.0381178  60.8472288  96.7299219 115.9297795
  60.1936683  96.3261644 115.7706805  76.1822293  96.4951791 113.0341774
  76.4177882  96.6396990 112.2068625  76.3311857  97.2594200 113.4273287
  76.2388096  96.6290846 112.9705378  78.0112750  95.3353457 110.8711378
  78.3420967  95.8681098 110.2651473  78.5845838  95.3892345 111.5273329
  78.1446429  95.4223026 110.8789159  73.2244639  93.1818360 111.5534958
  73.3191493  93.9207654 112.0074583  72.6003482  92.7535836 111.9869522
  73.1453669  93.2279681 111.6843105  60.0793529  93.1393782 116.0407953
  60.6567032  93.0030233 116.6800198  59.3807591  92.6829566 116.2953537
  60.0614550  93.0516048 116.1730243  73.4767660  95.0267100 104.7871910
  73.3947823  95.0969287 105.6526897  74.1147381  95.5896844 104.5955650
  73.5587497  95.1206071 104.8861859  66.8360831  94.7927838 114.2546436
  66.5780075  93.9599573 114.2277736  66.8909314  95.0185451 113.4138936
  66.8060609  94.7025609 114.1266573  71.9161881  86.8956289 114.3550529
  71.2118208  86.4065474 114.5134448  71.9646856  86.9078763 113.4838973
  71.8191933  86.8245937 114.2489869  65.8095543  92.3465600 114.7411331
  65.2345135  92.5057769 115.3775292  65.4331220  91.7101009 114.2779781
  65.6698356  92.2763413 114.7665889  69.4768832  90.8188950 119.6003709
  69.0883265  90.3943167 118.9455900  68.8123530  91.0671099 120.1080736
  69.3215760  90.7927671 119.5791577  79.1192101  90.5763954 112.3751539
  78.8628666  89.7643896 112.1849422  79.9621415  90.5841521 112.1481727
  79.2058127  90.4575952 112.3136356  55.5552362  91.9905675 112.7555771
  55.6412614  91.6137543 113.5369301  56.1828160  91.6166121 112.2775730
  55.6608913  91.8791157 112.8001249  73.2995194  84.5163578 117.1127693
  73.6805705  83.8341749 117.4995568  72.4958478  84.2273180 116.9303358
  73.2371655  84.3730627 117.1431749  70.5807770  95.0487554 107.7980516
  71.3948409  95.3402447 107.6863288  70.5166912  94.3947417 107.2238809
  70.6910509  94.9952749 107.6969354  66.4515679  98.5209072 112.9252828
  67.0889625  98.2820819 113.4704622  66.8770750  98.7246231 112.1905989
  66.6091845  98.5160082 112.8969986  61.1428321 100.7597408 116.8087132
  61.1832466 101.0312259 115.9806912  61.7022845 101.2839316 117.2244920
  61.2311667 100.8773163 116.7479020  67.0918494  93.7411361 107.2627718
  67.4763646  93.5219068 108.0144263  66.8430114  94.5674307 107.3928794
  67.1120566  93.8309508 107.3928794  68.8337150  98.9981494 114.6046615
  68.9076159  98.8356666 115.4588465  69.6506657  99.1871684 114.3607096
  68.9653509  99.0018237 114.6944640  62.5942907  99.3439357 111.6341058
  61.7681025  99.5901094 111.5075337  62.6554898  99.2651438 112.5003116
  62.4817074  99.3684306 111.7430003  64.8118931  85.4108298 112.5936498
  63.9441356  85.4830898 112.6594107  65.0994135  86.2130377 112.7824473
  64.7258679  85.5402445 112.6311265  73.9351820  85.5586157 120.9247820
  74.6805412  85.3695968 120.5111245  73.5189124  86.0844395 120.3661676
  73.9836794  85.6088303 120.7812393  67.3741736 101.9616237 109.3360088
  67.6640035 101.5705219 108.6119315  68.1045217 102.1432942 109.7765363
  67.5248620 101.9310051 109.2942895  65.3147652 103.9383620 112.4020238
  65.0947947 103.6480974 113.1946905  65.0942174 103.2798575 111.8738150
  65.2495246 103.7983328 112.4409146  64.2264599  96.0256936 114.6675939
  63.9377848  95.3994408 115.2021667  65.0947947  95.9677224 114.7340620
  64.3124851  95.9244481 114.7566894  75.0142497  91.1691720 114.9857921
  74.6707263  90.4482055 115.3365171  75.1135539  90.9605571 114.1436279
  74.9784540  91.0315923 114.9129601  67.4815607 105.3113010 111.1850930
  68.1339666 104.7789452 111.4141956  66.7841216 104.9581662 111.5718804
  67.4746325 105.1802533 111.2763098  64.4296872  97.6652187 110.5918304
  65.1842840  98.0465226 110.8053767  63.8367485  98.1163331 111.0465001
  64.4533586  97.7881015 110.6901183  75.4755526  97.6317424 110.5281909
  76.0413558  98.2910634 110.4440452  74.8283429  97.9767122 110.9998312
  75.4634282  97.7799365 110.5854666  65.7495099  98.8360749 115.9658420
  65.2275852  98.9761040 116.6510284  66.1369119  98.0771413 116.1560537
  65.7298800  98.7446272 116.0959496  62.7386283  88.8866557 110.0353374
  62.4511079  88.5167828 109.2985322  63.4256751  89.3561413 109.7737079
  62.7975180  88.9013527 109.8868450  71.9462104 100.5756208 109.9518989
  71.7048780  99.8424069 109.5446054  72.1263437 101.1243065 109.2985322
  71.9369728 100.5478599 109.7949212  67.1761425  95.8664768 111.3639911
  66.9804207  96.4739502 110.7700214  67.3995770  95.1732712 110.8831585
  67.1796066  95.8542293 111.2055992  65.5739955  92.7519506 111.4820779
  66.2962606  92.9160664 111.0224585  65.0947947  93.4729170 111.3760119
  65.6103685  92.8817735 111.3986393  73.5333462  89.0883304 116.8617464
  72.6944563  89.1144583 116.6255727  73.6037829  89.7354040 117.4422811
  73.4201856  89.1879430 116.9126581  71.9802740  85.9868681 111.5945080
  72.6829093  85.7876430 111.1165038  71.7146929  85.2144624 111.9013924
  72.0449373  85.8431647 111.5690522  77.4090986  94.2951291 114.1478706
  77.3224961  94.4506717 115.0013485  76.9541466  94.9389367 113.7738111
  77.3294243  94.4127046 114.2185813  60.3114478  89.6647770 110.8838656
  60.4130614  90.4673931 111.2119631  61.1070364  89.4635106 110.5861736
  60.4442383  89.7533669 110.8874011  66.7431297  87.2503967 120.6475961
  66.5514494  87.2659101 121.4975384  67.5929893  87.4467641 120.6242616
  66.8407019  87.2818318 120.7699255  61.1278210  89.7794948 118.6259777
  60.9863701  88.9278889 118.7504285  61.4118773  89.8223609 117.8021983
  61.1486056  89.6594698 118.5227401  71.2816802  91.6162038 112.7704265
  71.0351516  91.5357789 113.6041054  71.6101925  90.8315506 112.5766793
  71.2938046  91.4888304 112.8651788  76.6718224  97.6823651 107.3207546
  76.2925032  96.8960789 107.3136835  76.0084469  98.2310508 107.1779190
  76.5176698  97.6468475 107.2988343  69.6535524  87.4459476 120.8547784
  70.1108138  88.1783450 120.9820576  69.7291852  87.0225941 121.6135040
  69.7326494  87.4916714 120.9848860  61.8968515  87.6925296 121.9437227
  61.3610704  87.0805654 122.2597995  61.9586280  88.2673432 122.5970894
  61.8264148  87.6872223 122.0872654  74.1262850  80.6249351 114.7241627
  74.2446418  81.0825814 113.9908929  73.9525025  79.8194612 114.4377844
  74.1182021  80.5743123 114.5742560  69.4965132 101.2337170 111.1596372
  70.2615023 100.9646814 110.8379036  69.3943222 100.7487181 111.8766435
  69.5946627 101.1226735 111.2176200  67.5317902  89.4361580 117.6989608
  66.7413976  89.2553040 118.0206944  67.9278524  88.6588532 117.6819902
  67.4734778  89.2949041 117.7442156  72.0183792  98.2649354 103.1396321
  72.7856778  98.3249479 102.7302173  71.5715101  97.6929796 102.6552640
  72.0657220  98.1885930 103.0074032  72.9161588  97.0704010 115.4249054
  72.2406590  96.8389242 115.9262441  72.9253964  96.4625193 114.7991159
  72.8180092  96.9462935 115.4065206  74.9178322  99.9269142 107.6559232
  74.9998160 100.7336129 107.3320683  75.4028065  99.9465102 108.3800005
  75.0015480 100.0489805 107.7146130  68.7274826  94.6053978 116.3229310
  68.3037075  94.8058477 115.5868328  68.5519681  93.7582826 116.4353609
  68.6385706  94.5102760 116.2303000  64.0157271  95.1006030 111.7557282
  64.1721890  95.0352833 112.6113274  64.3557864  95.8754582 111.5435962
  64.0890506  95.2055228 111.8511876  70.5536415  94.4763913 110.6250645
  71.0951961  93.9734294 111.0889266  70.8682974  94.4229108 109.8140131
  70.6800812  94.3943334 110.5734457  68.7222865  99.8681265 107.9090673
  68.7915685  99.0095803 108.0483674  69.5011320 100.0853146 107.5809698
  68.8475715  99.7734129 107.8807831  71.7025685  89.3700218 120.6772946
  71.9167654  88.7311132 120.1236300  71.0859584  89.8146042 120.2480808
  71.6431014  89.3410362 120.5323377  73.1130353 102.2918966 112.1227167
  72.7210144 101.9885681 111.4050033  73.2683425 103.1288056 111.9332121
  73.0783943 102.3702803 111.9883664  60.5891532  92.2840980 112.0718049
  60.9690497  92.7025525 111.4078317  60.0146897  92.8654436 112.3786893
  60.5602857  92.4318839 112.0194790  73.2770027  98.8568955 112.0633197
  72.9184682  99.0283598 112.8397230  72.7908738  99.3182161 111.5061196
  73.1528724  98.9507926 112.0958466  71.0940413  82.4800154 115.6660289
  70.2233971  82.4538875 115.6193598  71.3480755  82.3077346 114.8486134
  71.0033974  82.4510297 115.5380425  68.0658393  94.5368120 104.6033432
  68.3550918  95.3133003 104.8777006  68.1530192  94.0256852 105.3047931
  68.1212649  94.5760039 104.7475930  68.1189554  84.4906382 117.1233759
  67.6028042  83.7986573 117.2485338  67.5583483  85.1577159 117.0696358
  67.9596067  84.4869640 117.1339825  70.1881787  85.0299342 118.9526612
  69.8013540  85.0548374 119.7340142  69.7014725  84.4641021 118.5001128
  70.0594296  84.9495093 119.0014515  69.8538929  81.9166328 121.2436872
  70.4832047  82.4526628 120.9657942  70.0224792  81.8243686 122.0950437
  69.9716724  81.9827690 121.3285400  64.2322334  93.8501385 116.7033544
  63.3910340  93.7505259 116.9112438  64.4412342  94.6196865 117.0547864
  64.1387026  93.9493428 116.7860859  61.7097901  91.4720922 114.5318294
  61.3154598  91.5463934 113.7568404  61.1538018  91.8578868 115.0826656
  61.5700713  91.5402697 114.4985954  73.3462848  84.4502216 114.2122173
  73.5512441  84.3824524 115.0579170  73.0189272  85.2561037 114.1443351
  73.3278095  84.5588156 114.3281828  68.0438999  91.7782784 115.9531141
  67.7402136  91.2238772 116.5541549  67.3418419  91.9574994 115.4659176
  67.8955208  91.7227567 115.9700847  67.1005096  89.0883304 110.5175843
  67.3764830  88.3702217 110.1053411  67.7003765  89.6868224 110.3096949
  67.2298360  89.0703675 110.4256604  76.5996535  85.0033980 113.6924939
  75.9870849  85.4904382 114.0778671  76.6960710  84.3277471 114.2362590
  76.5234433  84.9752289 113.8303797  70.6015616  86.7596821 108.7922438
  71.0559363  86.9307382 109.5170283  71.0755662  86.1464932 108.3920214
  70.7383936  86.6947707 108.8396200  64.1231142  96.2445147 118.1225177
  63.5319075  96.8854645 118.0928192  64.8852165  96.6682765 118.0956476
  64.1479402  96.4020986 118.1140324  64.5191764  87.4047145 118.7893194
  64.9793246  87.4786074 119.5268318  64.5647871  88.2028399 118.4393016
  64.5942320  87.5341292 118.8465951  67.9428636  93.4639356 109.8967445
  68.6870681  93.8513632 110.1350395  68.0889332  92.6196781 110.0607933
  68.0739221  93.3969829 109.9561415  69.8608212  85.2589615 114.9299307
  69.0144257  85.4312422 114.8040657  69.8579344  84.4538958 115.2665135
  69.7355362  85.1650644 114.9610434  70.9306512  89.0364829 115.7961365
  70.4566466  88.5106591 116.3066676  71.3024648  88.4894302 115.2276226
  70.9156401  88.8780826 115.7876512  61.3079542  91.0336336 121.1644910
  62.1705155  90.9332045 121.0782240  60.9771325  90.4531045 120.6030483
  61.3864739  90.9327962 121.0690316  72.8590012  89.9301384 108.8587119
  72.3313030  90.0130128 108.1692827  73.3185720  90.6719255 108.8551763
  72.8491862  90.0522046 108.7561814  79.1948430  90.8768662 115.1597404
  78.9558200  90.8364496 114.3218189  79.3582331  91.7239814 115.2863125
  79.1838733  90.9960747 115.0550886  64.6681328  89.8578785 117.8255329
  64.0434398  89.8697177 117.2181281  64.3326923  90.3338960 118.4746569
  64.5266820  89.9297302 117.8311897  64.8523077  88.2003903 103.8828014
  64.5035881  88.8523628 104.3459563  64.3719523  88.1861016 103.1551885
  64.7293321  88.2946957 103.8439105  61.3807004  97.9179245 119.2659093
  60.8506928  97.2271684 119.3154068  61.6532097  97.9089430 118.4371802
  61.3431726  97.8146377 119.1506509  72.4127094  98.5004947 107.9896776
  73.1361293  98.9663060 107.8461349  71.9727685  98.5678557 107.2394373
  72.4542786  98.5788784 107.8581557  63.9372074  91.4671933 120.0430197
  64.0965560  90.7115257 120.4481919  63.7564967  92.0162872 120.6970935
  63.9337433  91.4365746 120.1992903  71.8792377  83.6333168 120.5980987
  71.3832938  83.8296842 119.9072553  72.6361439  84.0325836 120.4269788
  71.9179201  83.7210902 120.4701123  69.1495256  87.3075514 117.1884297
  69.1737743  86.7735626 116.4997077  69.4006730  86.7992823 117.8509888
  69.1905175  87.1536418 117.1848942  56.6602846  94.5907009 116.6227441
  56.5546295  94.5453853 115.7579525  55.9103066  94.9360790 116.9041726
  56.5338449  94.6347917 116.5364771  65.4296578  86.0346332 116.5690042
  65.4694950  86.5355539 117.2824749  64.6046243  86.1256726 116.2995965
  65.3136104  86.1228149 116.6340580  66.8510942  92.5506842 118.8663941
  66.0202871  92.7180660 118.6599189  66.7962459  92.1742793 119.6512826
  66.7200357  92.5196573 118.9512469  64.6594725  86.0415735 124.5020351
  65.2847428  85.4977868 124.7749783  64.2045205  85.5610653 123.9328142
  64.6842986  85.8905216 124.4581945  65.2246986  90.8262434 109.3954058
  65.3649947  91.3234898 110.0982700  65.7229518  90.1248728 109.5368272
  65.3188067  90.7964412 109.5205637  65.2547208  91.6929545 106.7246635
  65.8892287  92.2889970 106.6596097  65.3372819  91.3933002 107.5392505
  65.3603759  91.7370453 106.8349722  66.8326191  87.6243520 106.6992077
  67.1542032  87.1446603 106.0451339  67.0953135  88.4343166 106.5082889
  66.9192216  87.6733418 106.5747569  72.2285346  87.0115714 119.0615556
  72.6540417  86.5588240 118.4499083  71.6142339  86.4575785 119.3380344
  72.2013991  86.8629690 119.0120581  61.7600196  93.8897385 109.9936181
  62.2692425  94.4861893 110.3747487  62.2334468  93.6223359 109.3112601
  61.9043572  93.9383201 109.9490704  72.6730944 102.5625652 108.1494837
  71.9560254 102.3886514 107.6842074  73.3237682 102.3278224 107.6170323
  72.6632794 102.5021445 108.0024055  70.6679569  83.4830814 112.4706133
  70.0247887  83.3328460 113.0391272  70.3278976  83.2373159 111.7055238
  70.5224646  83.4242936 112.4409148  75.2578915  91.4390241 111.8936142
  74.5870105  91.9819943 111.7649207  75.9518665  91.9085096 111.6517837
  75.2607783  91.5888512 111.8391669  75.4207043  87.8946124 114.8026515
  75.7734653  87.4675847 115.4772314  74.5621844  87.8096968 114.9327591
  75.3456487  87.8190865 114.9221525  64.1190728  90.5253644 112.8609361
  63.4002717  90.9417777 113.1282225  64.4903090  91.0907883 112.3101000
  64.0682659  90.6702925 112.8192168  69.8937302  89.5651644 108.1982741
  69.3002141  89.8868640 107.6467308  69.9312580  88.7192739 107.9903847
  69.8111691  89.4875972 108.0865512  76.8531103  83.0164536 115.7310827
  76.3461967  82.3093676 115.6632005  77.6498536  82.6857725 115.8611904
  76.8958342  82.8637687 115.7409822  72.7695119  89.5231148 111.6284491
  72.5408812  89.5463850 110.7862849  73.0293195  88.6988615 111.7479502
  72.7741307  89.4047228 111.5209689  61.8980062  89.8203197 123.8811953
  61.7282652  90.4804572 123.3360160  61.4546012  90.0309758 124.6024442
  61.8079395  89.9489179 123.9073583  65.8239881  88.0607695 112.9238687
  66.2997247  88.4224774 112.2888868  65.3228481  88.7164162 113.2038830
  65.8205240  88.2101883 112.8715428  79.0551243  97.5329463 108.7151692
  79.4384848  98.2820819 108.9449789  78.2595356  97.7795282 108.4563681
  78.9945025  97.6799157 108.7109265  58.7982126  92.7250062 119.1400443
  58.2508846  92.0550708 119.2581311  59.5874504  92.3579910 119.2043910
  58.8334310  92.5715049 119.1669144  67.8666534  90.2048894 106.2912071
  68.2465499  90.2228524 105.5063186  67.1259130  90.6502883 106.1702918
  67.8135372  90.2730669 106.1575639  75.4951825  88.5131086 111.8787649
  75.4946051  88.3579742 112.7371926  75.2908005  89.3594073 111.8229035
  75.4651603  88.6151706 111.9975589  57.5569096  91.9370870 116.2946466
  57.3790857  91.4847479 117.0201382  57.2688118  92.7397031 116.4784944
  57.4882049  91.9893428 116.4289969  73.2192677  93.1928587 115.5323856
  73.7146342  92.4751582 115.4927877  72.4092453  92.8899385 115.4178343
  73.1736570  93.0426234 115.5097582  68.6651288  97.0426401 107.6820861
  67.8562611  96.7193074 107.6354170  69.1726197  96.3359623 107.6149109
  68.6200955  96.8907717 107.6651155  59.2941566  94.4698594 113.4068225
  58.4287085  94.4584284 113.2950996  59.3940381  94.2828817 114.2539364
  59.1815733  94.4404655 113.5157170  68.7892590  84.4294010 121.5060237
  68.9220496  83.6325003 121.8341213  69.1737743  84.9560413 122.0858513
  68.8648919  84.3893926 121.6403740  71.8624945  81.3524336 118.1041331
  71.0570909  81.2422066 118.4209169  71.7331681  81.4536792 117.2471196
  71.7245078  81.3508006 118.0249371  75.3190906  87.5169828 118.6981028
  74.7353895  88.0179034 118.2858595  75.6395200  87.0099384 118.0645351
  75.2804081  87.5161663 118.5439535  67.8585705  86.4310423 108.9739702
  68.6801399  86.6008736 108.7321397  67.3955356  86.5857684 108.2506000
  67.9116867  86.4792156 108.8311347  66.4481037  84.4253185 119.7538131
  66.9925450  84.0844312 120.3442473  66.5017973  85.2838646 119.8959416
  66.5370156  84.5008444 119.8620005  62.2611596  98.1869601 116.6276939
  62.8656453  98.1465435 115.9990760  62.0538908  99.0340753 116.6580995
  62.3200493  98.3057603 116.5393056  57.4962878  97.1704218 116.4975862
  57.3987156  96.3600490 116.8065919  58.2791748  97.1496012 116.1122130
  57.5979014  97.0471309 116.4862725  76.6800444 100.1067403 110.0148314
  77.4346412 100.4745720 109.7765364  76.5027979 100.4806957 110.7827494
  76.7654922 100.2165591 110.0933203  75.0357509 102.5137722 106.7126427
  74.8533082 102.7309603 105.8867420  75.8983122 102.6276735 106.7685042
  75.1362098 102.5627620 106.5980914  80.7157228  99.5164133 109.7475451
  81.4443388  99.3380087 109.3013607  80.8052121 100.3582212 109.9582629
  80.8363890  99.6148011 109.7128969  74.5819536 105.7911894 105.2248900
  73.8677713 105.5050074 105.6371333  75.0663504 106.1308520 105.8655288
  74.5478899 105.7993544 105.3804535  73.7118867 104.4051865 110.0353374
  73.4243662 104.0353136 109.2985322  74.3989335 104.8746721 109.7737079
  73.7707764 104.4198835 109.8868450  71.2847061 105.1833078 110.8838656
  71.3863198 105.9859239 111.2119631  72.0802948 104.9820414 110.5861736
  71.4174967 105.2718977 110.8874011  79.0390976 110.0553428 104.6033432
  79.3283501 110.8318311 104.8777006  79.1262775 109.5442160 105.3047931
  79.0945233 110.0945347 104.7475930  75.8255661 103.7189211 103.8828014
  75.4768465 104.3708936 104.3459563  75.3452106 103.7046324 103.1551885
  75.7025904 103.8132265 103.8439105  76.2279792 107.2114853 106.7246635
  76.8624871 107.8075278 106.6596097  76.3105402 106.9118310 107.5392505
  76.3336343 107.2555761 106.8349722  77.8058774 103.1428828 106.6992077
  78.1274616 102.6631911 106.0451339  78.0685718 103.9528474 106.5082889
  77.8924800 103.1918726 106.5747569  78.8399118 105.7234202 106.2912071
  79.2198083 105.7413832 105.5063186  78.0991714 106.1688191 106.1702918
  78.7867956 105.7915977 106.1575639  78.8318289 101.9495731 108.9739702
  79.6533983 102.1194043 108.7321397  78.3687939 102.1042992 108.2506000
  78.8849451 101.9977464 108.8311347  26.4122709  16.5015728  93.6897809
  26.0774077  17.1792649  93.2542031  26.9249579  16.1121039  93.1014680
  26.4388290  16.5440306  93.5384600  28.9202804  10.7611936  94.3254699
  28.8354099  11.6172902  94.4704268  29.4087187  10.4856260  94.9936858
  28.9791702  10.8469257  94.4456781  26.5854760  13.6393440  92.5350755
  27.0005908  13.3078464  91.8435251  25.7546689  13.4062342  92.4070892
  26.5242768  13.5564696  92.4141603  29.2788150   9.8903999  91.7211957
  29.1968312   9.9606187  92.5866944  29.9167870  10.4533743  91.5295697
  29.3607987   9.9842970  91.8201906  23.1762226  16.8253137  96.2700135
  23.4660524  16.4342118  95.5459361  23.9065707  17.0069842  96.7105410
  23.3269110  16.7946951  96.2282942  27.7482594  15.4393107  96.8859035
  27.5069269  14.7060968  96.4786100  27.9283926  15.9879964  96.2325369
  27.7390218  15.4115499  96.7289258  32.4738713  12.5460551  94.2547593
  32.0945522  11.7597689  94.2476882  31.8104959  13.0947408  94.1119237
  32.3197188  12.5105375  94.2328390  27.8204282  13.1286254  90.0736368
  28.5877267  13.1886379  89.6642220  27.3735591  12.5566695  89.5892687
  27.8677709  13.0522829  89.9414079  30.7198812  14.7906042  94.5899279
  30.8018650  15.5973028  94.2660729  31.2048554  14.8102001  95.3140052
  30.8035970  14.9126704  94.6486177  24.5243355  14.7318164  94.8430720
  24.5936175  13.8732703  94.9823721  25.3031810  14.9490045  94.5149745
  24.6496205  14.6371028  94.8147878  28.2147584  13.3641847  94.9236822
  28.9381783  13.8299960  94.7801396  27.7748175  13.4315456  94.1734419
  28.2563276  13.4425683  94.7921604  28.4751434  17.4262552  95.0834883
  27.7580743  17.2523414  94.6182121  29.1258171  17.1915124  94.5510369
  28.4653284  17.3658344  94.9364101  34.8571732  12.3966362  95.6491739
  35.2405338  13.1457718  95.8789836  34.0615846  12.6432182  95.3903728
  34.7965515  12.5436056  95.6449312  44.3489508  22.9737297  97.7422100
  44.3183512  23.8281934  97.9140369  44.9470857  22.6732590  98.3008243
  44.4326666  23.0553794  97.8496902  37.5489193  22.0612948 102.4975030
  36.6927088  22.2221446 102.5484147  37.5956846  21.1905012 102.5180091
  37.4288304  21.9563750 102.5081096  31.9330332  31.5975666  98.2612262
  31.1813232  31.2191204  98.0328307  32.3816344  31.6294100  97.5131072
  31.8879999  31.5461273  98.1169764  37.3855292  32.0201036  93.6897809
  37.0506661  32.6977957  93.2542031  37.8982163  31.6306347  93.1014680
  37.4120873  32.0625614  93.5384600  36.9259584  33.9715304  99.6308920
  37.3098963  34.5402203  99.0913696  36.8618725  33.2464815  99.1514736
  36.9733011  33.9490768  99.4802783  40.3941014  24.1204992 105.1406682
  40.9396974  24.7990079 105.2000651  40.3357890  23.9792453 104.2808263
  40.4656928  24.1996994 105.0218742  33.5115089  31.6094058 100.5275034
  33.6125451  30.7994412 100.8372162  32.9156834  31.5151005  99.8974713
  33.4387627  31.4759086 100.4801273  42.1706082  25.5489599  96.0140409
  42.0545608  26.2997285  96.4432548  42.9661969  25.2913553  96.2636496
  42.2710672  25.6224446  96.1144501  33.3515828  36.5271647 101.9289890
  33.9953284  36.9684811 102.3186049  33.6772084  35.7225074 101.8420149
  33.4947657  36.4736842 101.9735367  26.7080133  27.6314345 100.1527368
  26.4730317  26.7981997 100.0459637  26.8465774  27.9119011  99.3388569
  26.6935795  27.5497848 100.0169723  34.0536408  29.5383622  97.3009752
  34.3752249  30.0788830  96.6971060  34.7008504  28.9680394  97.4332042
  34.1962463  29.5342797  97.2316787  36.1038116  21.5399617  97.3844139
  36.8018281  21.7187745  97.8765602  36.4190448  21.0169957  96.7614528
  36.2533453  21.4893389  97.3646149  36.2926051  27.9270062  97.3723930
  36.7319687  27.3187163  97.8178703  36.1430714  27.5477436  96.6009395
  36.3347517  27.7808533  97.3243097  33.7597694  26.5214074 104.5742756
  34.4046697  26.0286517 104.2553704  33.9999471  26.6638861 105.4008834
  33.8908279  26.4691516 104.6492289  36.2983786  29.3668980 104.2249648
  36.5807028  28.5720386 104.0036404  37.0269946  29.8449567 104.2454709
  36.4473349  29.3203577 104.1952663  39.8935388  26.2797244  94.3254699
  39.8086683  27.1358210  94.4704268  40.3819771  26.0041568  94.9936858
  39.9524285  26.3654565  94.4456781  41.4841387  12.8977537  99.7115024
  41.1694828  13.5881015 100.1435446  40.9668329  12.8422319  99.0100525
  41.3605858  12.9912425  99.6711973  40.8253821  22.8982038  95.8252434
  40.2965293  23.1141671  96.4849741  41.3478841  23.5918176  95.7453404
  40.8242274  23.0325175  95.9108034  46.2801874  28.4728342 101.1985479
  45.4499577  28.6838986 101.3618895  46.2311126  27.6465397 100.9227762
  46.1508609  28.3817948 101.1822844  32.7153429  26.7945254  94.6259902
  32.1310644  27.2995286  95.0325766  32.3123524  26.5687641  93.8856494
  32.5692733  26.8353503  94.5764928  28.2697457  32.5100016 101.4283574
  27.7865036  33.2350505 101.4043158  29.0820776  32.8076146 101.5393732
  28.3188205  32.6602369 101.4410853  34.3411612  31.3032196 104.0333388
  33.8238553  30.9439611 103.4294696  35.0386003  30.7794371 104.0439454
  34.3677193  31.1729884 103.9463647  37.9975204  31.7527010 109.9949561
  38.0858549  31.5653151 110.8427772  38.4264916  31.1064440 109.5954408
  38.0737306  31.6290018 110.0621313  37.1730643  23.0410907  93.1028823
  37.4126647  23.2488890  92.2904166  37.4946484  22.2368415  93.2117767
  37.2567801  22.9525008  92.9989376  32.4820934  14.9704302  96.9488361
  33.2366902  15.3382619  96.7105411  32.3048468  15.3443857  97.7167540
  32.5675412  15.0802490  97.0273249  31.1241655  33.0256192 101.5803854
  31.8262234  32.5108181 101.6376610  31.0439138  33.3530343 102.3850729
  31.2165415  32.9970418 101.7076646  45.7755832  21.1198743 104.9935900
  44.9384253  21.1900930 105.2283495  45.7444063  21.1223238 104.1210203
  45.6474115  21.1308970 104.8995448  30.8377998  17.3774621  93.6466474
  30.6553571  17.5946502  92.8207467  31.7003611  17.4913634  93.7025088
  30.9382588  17.4264519  93.5320961  30.4492430  29.2162544 101.0889462
  31.2881330  29.4485476 101.1363223  30.4804199  28.3466855 101.0196497
  30.5774148  29.1219490 101.0854106  31.0745133  29.6363419 105.3902767
  31.6143358  29.4934550 106.0606140  30.3915079  30.0360170 105.7586794
  31.0537287  29.6743090 105.5437189  36.5177717  14.3801032  96.6815498
  37.2463878  14.2016987  96.2353654  36.6072610  15.2219112  96.8922676
  36.6384379  14.4784910  96.6469015  40.4986018  25.3154419 100.5847792
  41.2543533  25.7485934 100.6236700  40.6048343  24.6659189 101.1582428
  40.6256189  25.2831903 100.6745817  43.5366189  29.1427697 101.3350195
  43.1001421  29.1464439 102.0909166  43.2029105  29.8233196 100.9029772
  43.4228809  29.2440152 101.3831027  43.4563672  16.1841524 103.5779623
  44.0989581  16.2539629 104.1641538  43.7086693  15.5170747 103.0759165
  43.5885804  16.0967873 103.5906902  30.3840025  20.6548794  92.1588947
  29.6698202  20.3686973  92.5711379  30.8683994  20.9945420  92.7995334
  30.3499389  20.6630444  92.3144582  38.2665656  33.0946131 106.3059801
  37.4680902  32.8545632 106.5633669  38.7151668  33.1460524 107.0526848
  38.2140267  33.0668523 106.4544725  46.6710535  25.8608616 100.2269832
  47.3326969  25.2999285 100.1265740  46.0301947  25.3660647 100.5522523
  46.6739403  25.7045026 100.2602172  37.5587343  29.1578748  92.5350755
  37.9738492  28.8263772  91.8435251  36.7279273  28.9247650  92.4070892
  37.4975352  29.0750004  92.4141603  26.8875692  26.6422489 102.8248933
  26.7051265  26.6169375 101.9721225  27.6225361  27.1121427 102.8637842
  26.9689756  26.7083851 102.7046852  42.9575366  26.8773999  99.9681821
  43.1930955  27.0219198  99.1408671  43.1064930  27.6416407 100.3613334
  43.0141169  27.0113053  99.9045425  44.7865823  25.7175665  97.8051424
  45.1174040  26.2503305  97.1991519  45.3598911  25.7714553  98.4613375
  44.9199502  25.8045234  97.8129206  39.9997712  23.5640568  98.4875005
  40.0944566  24.3029862  98.9414630  39.3756555  23.1358043  98.9209569
  39.9206742  23.6101888  98.6183152  40.2520733  25.4089307  91.7211957
  40.1700896  25.4791494  92.5866944  40.8900454  25.9719051  91.5295697
  40.3340571  25.5028278  91.8201906  33.6113904  25.1750045 101.1886483
  33.3533149  24.3421780 101.1617782  33.6662387  25.4007658 100.3478983
  33.5813682  25.0847817 101.0606620  38.6914955  17.2778496 101.2890576
  37.9871281  16.7887681 101.4474495  38.7399929  17.2900970 100.4179020
  38.5945006  17.2068144 101.1829915  32.5848617  22.7287808 101.6751378
  32.0098208  22.8879976 102.3115339  32.2084293  22.0923217 101.2119828
  32.4451429  22.6585621 101.7005936  45.8945174  20.9586162  99.3091586
  45.6381739  20.1466103  99.1189469  46.7374488  20.9663729  99.0821773
  45.9811200  20.8398159  99.2476403  37.3560843  25.4309762  94.7320563
  38.1701482  25.7224654  94.6203334  37.2919985  24.7769624  94.1578856
  37.4663582  25.3774956  94.6309400  43.5770334  28.1135758 109.1450139
  43.3408971  27.2823823 109.0262199  44.2213563  28.0621365 109.7304983
  43.6365004  27.9833446 109.2136032  33.2268752  28.9031279  99.8592875
  33.8642699  28.6643027 100.4044669  33.6523823  29.1068438  99.1246036
  33.3844918  28.8982289  99.8310032  27.9181394  31.1419616 103.7427179
  27.9585539  31.4134467 102.9146958  28.4775918  31.6661524 104.1584967
  28.0064740  31.2595371 103.6819067  33.8671567  24.1233569  94.1967764
  34.2516719  23.9041276  94.9484310  33.6183187  24.9496514  94.3268841
  33.8873639  24.2131715  94.3268841  44.6006754  27.8980206 105.2078433
  44.2952571  28.6308263 105.5691749  43.8812970  27.4918136 104.9271219
  44.4494097  27.9461939 105.2191570  35.6090224  29.3803702 101.5386661
  35.6829232  29.2178874 102.3928511  36.4259730  29.5693891 101.2947143
  35.7406582  29.3840444 101.6284687  50.3008546  24.5373207 104.5346777
  50.2333047  24.5569166 103.6649364  50.2864209  25.3803534 104.7602448
  50.2887303  24.6646942 104.4399254  29.3695980  29.7261564  98.5681105
  28.5434098  29.9723302  98.4415384  29.4307972  29.6473645  99.4343163
  29.2570147  29.7506513  98.6770049  34.1494809  32.3438445  96.2700135
  34.4393108  31.9527426  95.5459361  34.8798290  32.5255150  96.7105410
  34.3001694  32.3132259  96.2282942  48.0867164  23.3117593 102.8093372
  48.6375085  22.6785662 103.0490464  48.0711279  23.8432986 103.5008876
  48.1652360  23.2966542 102.9472230  32.0900725  34.3205827  99.3360284
  31.8701020  34.0303182 100.1286952  31.8695247  33.6620782  98.8078197
  32.0248319  34.1805536  99.3749193  31.0017672  26.4079144 101.6015986
  30.7130921  25.7816615 102.1361713  31.8701020  26.3499431 101.6680667
  31.0877924  26.3066688 101.6906941  41.7895570  21.5513927 101.9197968
  41.4460336  20.8304262 102.2705218  41.8888613  21.3427778 101.0776326
  41.7537613  21.4138130 101.8469648  34.2568681  35.6935217  98.1190977
  34.9092739  35.1611659  98.3482003  33.5594289  35.3403869  98.5058851
  34.2499399  35.5624740  98.2103145  31.2049946  28.0474395  97.5258351
  31.9595914  28.4287434  97.7393814  30.6120558  28.4985538  97.9805048
  31.2286659  28.1703222  97.6241230  42.2508599  28.0139631  97.4621956
  42.8166632  28.6732841  97.3780499  41.6036502  28.3589329  97.9338358
  42.2387355  28.1621572  97.5194713  32.5248172  29.2182956 102.8998467
  32.0028926  29.3583248 103.5850331  32.9122192  28.4593620 103.0900584
  32.5051873  29.1268480 103.0299543  29.5139356  19.2688765  96.9693421
  29.2264152  18.8990035  96.2325369  30.2009824  19.7383620  96.7077126
  29.5728253  19.2835734  96.8208497  38.7215177  30.9578415  96.8859035
  38.4801853  30.2246276  96.4786100  38.9016510  31.5065272  96.2325369
  38.7122801  30.9300806  96.7289258  33.9514498  26.2486975  98.2979958
  33.7557280  26.8561710  97.7040261  34.1748843  25.5554919  97.8171632
  33.9549139  26.2364501  98.1396038  32.3493028  23.1341713  98.4160826
  33.0715680  23.2982871  97.9564632  31.8701021  23.8551378  98.3100166
  32.3856758  23.2639943  98.3326440  40.3086535  19.4705512 103.7957511
  39.4697636  19.4966791 103.5595774  40.3790903  20.1176247 104.3762858
  40.1954929  19.5701638 103.8466628  38.7555814  16.3690889  98.5285127
  39.4582166  16.1698637  98.0505085  38.4900002  15.5966831  98.8353970
  38.8202446  16.2253855  98.5030568  44.1844059  24.6773499 101.0818753
  44.0978034  24.8328925 101.9353532  43.7294539  25.3211574 100.7078158
  44.1047316  24.7949254 101.1525859  27.0867551  20.0469977  97.8178702
  27.1883687  20.8496139  98.1459678  27.8823438  19.8457313  97.5201783
  27.2195456  20.1355876  97.8214058  38.0569875  21.9984246  99.7044312
  37.8104590  21.9179997 100.5381101  38.3854998  21.2137714  99.5106840
  38.0691119  21.8710511  99.7991835  41.9517924  28.7067605 103.4931093
  41.8132283  29.4048651 103.9979836  41.1717922  28.5516261 103.1367275
  41.8161151  28.7867772 103.5157368  33.0894658  32.9243736 105.9828322
  33.2384221  32.3646652 105.3301727  33.8694660  33.0035738 106.3660841
  33.2268751  32.8529302 105.9425271  43.4471297  28.0645859  94.2547593
  43.0678106  27.2782997  94.2476882  42.7837542  28.6132716  94.1119237
  43.2929772  28.0290683  94.2328390  35.6147958  33.0958379 107.2612813
  35.5391629  32.4267190 107.8163601  35.5437817  33.7976167 107.7753479
  35.5928565  33.1003286 107.4189661  36.2718205  31.6159378  98.0936419
  37.0368096  31.3469022  97.7719083  36.1696295  31.1309388  98.8106482
  36.3699701  31.5048942  98.1516247  38.7936866  28.6471562  90.0736368
  39.5609851  28.7071687  89.6642220  38.3468175  28.0752003  89.5892687
  38.8410293  28.5708137  89.9414079  39.6914661  27.4526217 102.3589101
  39.0159663  27.2211450 102.8602488  39.7007037  26.8447400 101.7331206
  39.5933166  27.3285143 102.3405253  41.6931396  30.3091350  94.5899279
  41.7751233  31.1158336  94.2660729  42.1781138  30.3287309  95.3140052
  41.7768554  30.4312012  94.6486177  35.5027899  24.9876186 103.2569356
  35.0790148  25.1880685 102.5208375  35.3272754  24.1405034 103.3693656
  35.4138780  24.8924967 103.1643047  35.0039592  36.5026699 105.7190814
  35.4935523  35.8037488 105.5366478  34.4323825  36.2050569 106.3066871
  34.9924122  36.3552922 105.7791855  30.7910344  25.4828237  98.6897329
  30.9474963  25.4175040  99.5453321  31.1310937  26.2576790  98.4776009
  30.8643579  25.5877435  98.7851923  37.3289489  24.8586121  97.5590692
  37.8705034  24.3556502  98.0229313  37.6436048  24.8051315  96.7480177
  37.4553886  24.7765542  97.5074504  35.4975938  30.2503472  94.8430720
  35.5668759  29.3918011  94.9823721  36.2764393  30.4675353  94.5149745
  35.6228788  30.1556336  94.8147878  39.8883426  32.6741174  99.0567214
  39.4963218  32.3707889  98.3390080  40.0436498  33.5110264  98.8672167
  39.8537016  32.7525010  98.9223711  27.3644605  22.6663188  99.0058096
  27.7443570  23.0847733  98.3418363  26.7899970  23.2476643  99.3126939
  27.3355930  22.8141046  98.9534837  40.0523101  29.2391162  98.9973244
  39.6937755  29.4105805  99.7737277  39.5661811  29.7004368  98.4401243
  39.9281798  29.3330133  99.0298513  34.8411466  24.9190328  91.5373478
  35.1303991  25.6955210  91.8117053  34.9283265  24.4079059  92.2387978
  34.8965722  24.9582246  91.6815976  41.2127840  30.1295058 109.9440445
  41.8507561  29.6355254 109.6102901  40.5701932  30.0572459 109.3592672
  41.2122067  30.0454067 109.8082800  42.9384840  21.9784204 104.5106361
  42.5112448  21.8910553 103.7554460  42.3010893  22.0861980 105.0961205
  42.7814447  21.9816864 104.4851802  41.2682097  30.8214867 106.5845802
  42.0574475  30.4703931 106.7047883  41.4425694  31.6351255 106.3222436
  41.4102378  30.8900724 106.5633670  40.1215921  14.8324423 101.1462220
  40.3265514  14.7646731 101.9919217  39.7942345  15.6383245 101.0783398
  40.1031169  14.9410364 101.2621875  34.8192072  22.1604992 102.8871188
  34.5155209  21.6060980 103.4881596  34.1171493  22.3397202 102.3999222
  34.6708282  22.1049774 102.9040894  33.8758169  19.4705511  97.4515890
  34.1517903  18.7524424  97.0393457  34.4756838  20.0690431  97.2436996
  34.0051434  19.4525882  97.3596651  43.3749608  15.3856188 100.6264986
  42.7623922  15.8726590 101.0118717  43.4713783  14.7099678 101.1702637
  43.2987506  15.3574496 100.7643844  37.3768689  17.1419029  95.7262485
  37.8312436  17.3129589  96.4510330  37.8508735  16.5287139  95.3260261
  37.5137010  17.0769914  95.7736247  30.8984215  26.6267355 105.0565223
  30.3072148  27.2676853 105.0268239  31.6605238  27.0504972 105.0296523
  30.9232476  26.7843193 105.0480371  47.0174636  26.4573124 106.0542502
  47.0757760  26.9059773 106.8002478  46.3841104  26.8671937 105.6172582
  46.9325932  26.5846859 106.0995050  40.6573731  32.0776666 102.4897248
  40.4593420  32.5667481 101.7953459  40.0361442  32.2817908 103.0681381
  40.5361296  32.1793205 102.4720471  34.7181709  23.8461563  96.8307492
  35.4623754  24.2335839  97.0690442  34.8642406  23.0018988  96.9947980
  34.8492295  23.7792036  96.8901462  37.7059585  19.4187036 102.7301412
  37.2319540  18.8928798 103.2406722  38.0777721  18.8716509 102.1616273
  37.6909474  19.2603033 102.7216559  43.9696316  24.4789412 104.1408192
  43.7294539  23.6395827 104.1450618  44.4488323  24.5589579 104.8648966
  44.0048500  24.3670812 104.2482994  39.6343085  20.3123591  95.7927165
  39.1066104  20.3952335  95.1032874  40.0938793  21.0541462  95.7891810
  39.6244935  20.4344253  95.6901860  45.9701503  21.2590869 102.0937451
  45.7311273  21.2186703 101.2558236  46.1335404  22.1062021 102.2203172
  45.9591806  21.3782954 101.9890933  42.5747533  25.6440819 108.0242496
  43.2981732  25.1913345 107.8453516  42.3097495  25.9245484 107.2414824
  42.6428806  25.6191787 107.8821212  31.6276150  18.5826111  90.8168061
  31.2788954  19.2345836  91.2799610  31.1472596  18.5683224  90.0891932
  31.5046394  18.6769164  90.7779152  39.1880167  28.8827155  94.9236822
  39.9114366  29.3485268  94.7801396  38.7480759  28.9500764  94.1734419
  39.2295860  28.9610991  94.7921604  38.3566323  25.7424697 106.1737511
  37.7423316  25.1982747 106.4686147  38.8733608  25.2288933 105.6943328
  38.3421985  25.5861106 106.1461740  37.5962620  26.8128967 103.9081810
  37.1690228  26.1878685 103.4747245  37.5887564  26.5303889 104.7340817
  37.5321761  26.6781747 103.9661638  32.0000059  21.2084641  96.3294105
  32.1403020  21.7057105  97.0322746  32.4982592  20.5070935  96.4708319
  32.0941140  21.1786620  96.4545684  32.0300281  22.0751752  93.6586682
  32.6645361  22.6712177  93.5936144  32.1125892  21.7755210  94.4732552
  32.1356832  22.1192660  93.7689768  45.0082847  24.6067229 106.5273046
  45.6000687  25.2464480 106.5591244  45.4441842  23.9090266 106.8165113
  45.1601278  24.5985580 106.5753879  33.6079264  18.0065727  93.6332124
  33.9295105  17.5268810  92.9791386  33.8706208  18.8165373  93.4422935
  33.6945290  18.0555625  93.5087616  36.8376237  29.0284602 107.1530940
  36.3301328  29.5820449 107.5971570  36.5402883  29.0892892 106.3349714
  36.7181122  29.1190913 107.0979397  28.5353269  24.2719593  96.9276228
  29.0445498  24.8684100  97.3087533  29.0087541  24.0045566  96.2452647
  28.6796645  24.3205408  96.8830751  39.4484017  32.9447859  95.0834883
  38.7313327  32.7708722  94.6182121  40.0990755  32.7100432  94.5510369
  39.4385868  32.8843652  94.9364101  37.4432642  13.8653021  99.4046180
  36.8000960  13.7150668  99.9731318  37.1032049  13.6195366  98.6395285
  37.2977719  13.8065144  99.3749195  42.0331988  21.8212448  98.8276189
  41.3623178  22.3642150  98.6989254  42.7271739  22.2907303  98.5857883
  42.0360856  21.9710719  98.7731716  36.0818722  33.9609160 104.0587947
  35.8584377  33.2027989 104.4271973  35.5928565  33.9907181 103.3368387
  35.9762171  33.8531385 104.0064688  42.1960116  18.2768332 101.7366562
  42.5487726  17.8498055 102.4112360  41.3374917  18.1919175 101.8667638
  42.1209561  18.2013072 101.8561572  30.8943801  20.9075851  99.7949408
  30.1755790  21.3239984 100.0622272  31.2656163  21.4730090  99.2441046
  30.8435733  21.0525133  99.7532215  34.7297179  34.1809618 101.5125031
  34.3157578  33.5183748 101.1228873  35.4144553  34.3287477 100.9920726
  34.7695551  34.1050276 101.3781529  38.0962473  33.3399703 102.2648648
  37.6978756  33.4501974 101.4969468  37.4813693  33.5481770 102.8475208
  37.9461363  33.3873271 102.2379947  36.6690375  19.9473851  95.1322788
  36.0755215  20.2690848  94.5807355  36.7065653  19.1014947  94.9243894
  36.5864764  19.8698179  95.0205559  39.5448192  19.9053356  98.5624538
  39.3161885  19.9286057  97.7202896  39.8046268  19.0810823  98.6819549
  39.5494380  19.7869436  98.4549736  32.5992954  18.4429902  99.8578734
  33.0750321  18.8046982  99.2228915  32.0981554  19.0986370 100.1378876
  32.5958313  18.5924091  99.8055475  45.8304316  27.9151670  95.6491739
  46.2137922  28.6643026  95.8789836  45.0348429  28.1617490  95.3903728
  45.7698098  28.0621364  95.6449312  34.6419607  20.5871102  93.2252118
  35.0218572  20.6050731  92.4403232  33.9012204  21.0325091  93.1042965
  34.5888445  20.6552876  93.0915686  42.2704898  18.8953293  98.8127696
  42.2699124  18.7401950  99.6711973  42.0661078  19.7416280  98.7569082
  42.2404676  18.9973914  98.9315636  39.9945750  23.5750795 102.4663903
  40.4899415  22.8573790 102.4267923  39.1845526  23.2721593 102.3518390
  39.9489643  23.4248441 102.4437629  35.4404362  27.4248608  94.6160908
  34.6315684  27.1015282  94.5694217  35.9479270  26.7181830  94.5489156
  35.3954028  27.2729924  94.5991202  26.0694639  24.8520801 100.3408272
  25.2040158  24.8406492 100.2291043  26.1693455  24.6651024 101.1879411
  25.9568806  24.8226862 100.4497216  42.0597569  26.3254482 105.1541032
  42.4852640  25.8028904 104.6011457  41.6954489  26.9235320 104.6329655
  42.0684171  26.3364709 104.9950042  31.6951649  34.6218700 103.9138377
  32.0098208  35.4355088 103.9216159  32.1045062  34.2368919 104.5820537
  31.8019747  34.6847402 104.0142469  38.6476168  30.0388747 101.4842189
  39.1187347  30.7529009 101.6532175  38.9836347  29.4387497 102.0202059
  38.7671283  30.0560211 101.5874565  39.2850115  29.8306681 108.2469882
  38.7371061  29.2064564 107.9789947  39.7463143  30.0200953 107.5313961
  39.2717324  29.7665731 108.1020313  34.6338778  16.8132630  95.9079749
  35.4554473  16.9830943  95.6661444  34.1708429  16.9679891  95.1846047
  34.6869940  16.8614363  95.7651393  29.0364669  28.5691808 103.5616986
  29.6409526  28.5287642 102.9330807  28.8291981  29.4162960 103.5921042
  29.0953566  28.6879811 103.4733102  38.8508441  30.8357753 104.7779223
  39.6706815  30.6920719 105.0395518  38.5702519  31.4603952 105.3195661
  38.9305184  30.9068105 104.8967163  55.3222091  38.4922605  97.7422100
  55.2916096  39.3467242  97.9140369  55.9203440  38.1917898  98.3008243
  55.4059249  38.5739102  97.8496902  48.5221776  37.5798256 102.4975030
  47.6659672  37.7406754 102.5484147  48.5689430  36.7090320 102.5180091
  48.4020888  37.4749058 102.5081096  42.9062916  47.1160974  98.2612262
  42.1545815  46.7376512  98.0328307  43.3548928  47.1479408  97.5131072
  42.8612583  47.0646581  98.1169764  51.8315493  43.8484782 112.1035486
  52.5382260  43.3536813 112.2322421  52.0203428  44.2893863 111.3738144
  51.9643398  43.8403132 112.0144532  48.3587876  47.5386344  93.6897809
  48.0239244  48.2163265  93.2542031  48.8714746  47.1491655  93.1014680
  48.3853457  47.5810922  93.5384600  47.8992167  49.4900612  99.6308920
  48.2831546  50.0587511  99.0913696  47.8351308  48.7650123  99.1514736
  47.9465594  49.4676076  99.4802783  51.3673597  39.6390300 105.1406682
  51.9129557  40.3175387 105.2000651  51.3090474  39.4977761 104.2808263
  51.4389512  39.7182302 105.0218742  44.4847672  47.1279366 100.5275034
  44.5858035  46.3179720 100.8372162  43.8889417  47.0336313  99.8974713
  44.4120211  46.9944394 100.4801273  53.1438666  41.0674907  96.0140409
  53.0278192  41.8182593  96.4432548  53.9394553  40.8098860  96.2636496
  53.2443255  41.1409754  96.1144501  44.3248412  52.0456955 101.9289890
  44.9685867  52.4870119 102.3186049  44.6504667  51.2410382 101.8420149
  44.4680240  51.9922150 101.9735367  37.6812716  43.1499653 100.1527368
  37.4462901  42.3167305 100.0459637  37.8198357  43.4304318  99.3388569
  37.6668379  43.0683156 100.0169723  39.9802804  35.3185383 103.0511675
  39.3607835  34.7278031 102.8821690  39.8786667  35.9096819 102.4175999
  39.8740479  35.3189466 102.9316665  45.0268991  45.0568930  97.3009752
  45.3484832  45.5974138  96.6971060  45.6741088  44.4865702  97.4332042
  45.1695047  45.0528105  97.2316787  47.0770699  37.0584925  97.3844139
  47.7750864  37.2373053  97.8765602  47.3923032  36.5355264  96.7614528
  47.2266037  37.0078697  97.3646149  39.7071937  38.8637665 105.2955244
  39.5830634  39.4500111 105.9305063  40.3590221  38.3697861 105.5967519
  39.7845586  38.8776470 105.4341174  47.2658635  43.4455370  97.3723930
  47.7052270  42.8372471  97.8178703  47.1163298  43.0662744  96.6009395
  47.3080101  43.2993841  97.3243097  44.7330278  42.0399382 104.5742756
  45.3779280  41.5471825 104.2553704  44.9732055  42.1824169 105.4008834
  44.8640863  41.9876824 104.6492289  47.2716369  44.8854288 104.2249648
  47.5539612  44.0905694 104.0036404  48.0002530  45.3634875 104.2454709
  47.4205933  44.8388885 104.1952663  45.2497563  32.4277322 101.4665413
  44.9200893  32.8788465 100.7969112  44.5742565  32.3493485 102.0138420
  45.1007999  32.4828457 101.4488636  50.8667971  41.7982551  94.3254699
  50.7819267  42.6543518  94.4704268  51.3552355  41.5226876  94.9936858
  50.9256869  41.8839873  94.4456781  52.4573971  28.4162845  99.7115024
  52.1427412  29.1066323 100.1435446  51.9400912  28.3607627  99.0100525
  52.3338441  28.5097733  99.6711973  51.7986405  38.4167346  95.8252434
  51.2697876  38.6326979  96.4849741  52.3211425  39.1103484  95.7453404
  51.7974858  38.5510483  95.9108034  57.2534458  43.9913650 101.1985479
  56.4232161  44.2024294 101.3618895  57.2043710  43.1650705 100.9227762
  57.1241193  43.9003256 101.1822844  43.6886012  42.3130562  94.6259902
  43.1043228  42.8180594  95.0325766  43.2856108  42.0872949  93.8856494
  43.5425316  42.3538811  94.5764928  39.2430041  48.0285324 101.4283574
  38.7597619  48.7535813 101.4043158  40.0553359  48.3261454 101.5393732
  39.2920789  48.1787677 101.4410853  45.3144195  46.8217504 104.0333388
  44.7971137  46.4624919 103.4294696  46.0118586  46.2979679 104.0439454
  45.3409776  46.6915192 103.9463647  48.9707787  47.2712318 109.9949561
  49.0591133  47.0838459 110.8427772  49.3997500  46.6249748 109.5954408
  49.0469889  47.1475326 110.0621313  46.5378247  46.5543478 108.9767224
  45.9749082  46.1416088 109.5006885  47.2999270  46.4796384 109.3960367
  46.5672695  46.4820879 109.1160224  48.1463227  38.5596214  93.1028823
  48.3859231  38.7674198  92.2904166  48.4679068  37.7553723  93.2117767
  48.2300385  38.4710316  92.9989376  43.4553517  30.4889610  96.9488361
  44.2099485  30.8567927  96.7105411  43.2781052  30.8629165  97.7167540
  43.5407996  30.5987798  97.0273249  42.0974238  48.5441499 101.5803854
  42.7994818  48.0293489 101.6376610  42.0171721  48.8715651 102.3850729
  42.1897999  48.5155726 101.7076646  56.7488416  36.6384051 104.9935900
  55.9116837  36.7086238 105.2283495  56.7176647  36.6408546 104.1210203
  56.6206698  36.6494278 104.8995448  43.1453145  38.7817086 110.7084269
  43.3173649  38.6722981 111.5569550  43.6822502  39.4271492 110.4715461
  43.2498149  38.8609088 110.7989366  41.8110582  32.8959929  93.6466474
  41.6286155  33.1131810  92.8207467  42.6736195  33.0098942  93.7025088
  41.9115171  32.9449827  93.5320961  41.4225014  44.7347851 101.0889462
  42.2613913  44.9670784 101.1363223  41.4536783  43.8652163 101.0196497
  41.5506731  44.6404798 101.0854106  42.0477717  45.1548727 105.3902767
  42.5875942  45.0119858 106.0606140  41.3647663  45.5545477 105.7586794
  42.0269871  45.1928398 105.5437189  47.4910301  29.8986340  96.6815498
  48.2196461  29.7202295  96.2353654  47.5805194  30.7404420  96.8922676
  47.6116963  29.9970218  96.6469015  51.4718602  40.8339727 100.5847792
  52.2276117  41.2671242 100.6236700  51.5780926  40.1844497 101.1582428
  51.5988772  40.8017211 100.6745817  54.5098773  44.6613005 101.3350195
  54.0734005  44.6649747 102.0909166  54.1761688  45.3418504 100.9029772
  54.3961393  44.7625460 101.3831027  49.0827846  46.7021337 112.6593345
  49.8668263  46.8152185 113.0249087  48.8824441  45.8762474 112.8552031
  49.1693872  46.5968057 112.7427731  37.4514862  41.3749017 105.5437189
  37.1853277  40.5588134 105.7028179  37.4653426  41.4202173 104.6732704
  37.4139584  41.2605922 105.4390671  54.4296256  31.7026832 103.5779623
  55.0722164  31.7724937 104.1641538  54.6819276  31.0356055 103.0759165
  54.5618388  31.6153181 103.5906902  41.3572609  36.1734102  92.1588947
  40.6430786  35.8872281  92.5711379  41.8416577  36.5130728  92.7995334
  41.3231972  36.1815752  92.3144582  42.2013468  34.9127396 108.1904197
  41.5085265  34.4424375 108.4364928  42.8173796  34.6865700 108.7645904
  42.1897998  34.8094528 108.3113349  49.2398240  48.6131439 106.3059801
  48.4413485  48.3730939 106.5633669  49.6884251  48.6645832 107.0526848
  49.1872851  48.5853831 106.4544725  57.6443119  41.3793924 100.2269832
  58.3059553  40.8184593 100.1265740  57.0034531  40.8845955 100.5522523
  57.6471986  41.2230333 100.2602172  48.5319927  44.6764056  92.5350755
  48.9471075  44.3449080  91.8435251  47.7011856  44.4432958  92.4070892
  48.4707935  44.5935312  92.4141603  37.8608275  42.1607797 102.8248933
  37.6783849  42.1354683 101.9721225  38.5957944  42.6306735 102.8637842
  37.9422339  42.2269159 102.7046852  53.9307950  42.3959307  99.9681821
  54.1663539  42.5404506  99.1408671  54.0797513  43.1601715 100.3613334
  53.9873753  42.5298361  99.9045425  40.9254027  38.8792800 109.3331042
  41.6493999  38.8645830 109.8195936  41.0270164  39.5888155 108.8353010
  41.0472236  38.9817503 109.3309829  55.7598406  41.2360973  97.8051424
  56.0906624  41.7688613  97.1991519  56.3331495  41.2899861  98.4613375
  55.8932086  41.3230542  97.8129206  48.2998977  42.3591884 114.1979989
  47.5071957  42.6735396 114.3832608  48.4147904  42.5743353 113.3600773
  48.1994387  42.4375721 114.1018324  50.9730296  39.0825875  98.4875005
  51.0677150  39.8215170  98.9414630  50.3489139  38.6543351  98.9209569
  50.8939326  39.1287196  98.6183152  49.2282769  42.2612088 109.1365285
  49.8021631  41.6239332 109.2913849  49.1497573  42.2616170 108.2674943
  49.3016004  42.1677199 109.0311696  37.8279186  39.0401298 102.9748000
  38.4052688  38.9037748 103.6140245  37.1293248  38.5837082 103.2293584
  37.8100207  38.9523564 103.1070289  51.2253317  40.9274615  91.7211957
  51.1433479  40.9976802  92.5866944  51.8633037  41.4904359  91.5295697
  51.3073154  41.0213586  91.8201906  44.5846488  40.6935353 101.1886483
  44.3265732  39.8607088 101.1617782  44.6394971  40.9192966 100.3478983
  44.5546266  40.6033124 101.0606620  49.6647538  32.7963804 101.2890576
  48.9603865  32.3072989 101.4474495  49.7132512  32.8086278 100.4179020
  49.5677590  32.7253452 101.1829915  43.5581200  38.2473116 101.6751378
  42.9830791  38.4065284 102.3115339  43.1816876  37.6108525 101.2119828
  43.4184012  38.1770929 101.7005936  47.2254489  36.7196465 106.5343756
  46.8368922  36.2950683 105.8795947  46.5609187  36.9678615 107.0420783
  47.0701417  36.6935186 106.5131624  56.8677758  36.4771470  99.3091586
  56.6114323  35.6651411  99.1189469  57.7107072  36.4849037  99.0821773
  56.9543783  36.3583467  99.2476403  33.3038019  37.8913190  99.6895818
  33.3898271  37.5145059 100.4709348  33.9313816  37.5173636  99.2115777
  33.4094570  37.7798673  99.7341296  51.0480850  30.4171094 104.0467740
  51.4291362  29.7349265 104.4335614  50.2444135  30.1280696 103.8643405
  50.9857312  30.2738142 104.0771796  48.3293427  40.9495070  94.7320563
  49.1434066  41.2409962  94.6203334  48.2652568  40.2954932  94.1578856
  48.4396166  40.8960264  94.6309400  54.5502917  43.6321066 109.1450139
  54.3141555  42.8009130 109.0262199  55.1946146  43.5806673 109.7304983
  54.6097588  43.5018754 109.2136032  44.2001335  44.4216587  99.8592875
  44.8375282  44.1828335 100.4044669  44.6256407  44.6253746  99.1246036
  44.3577502  44.4167597  99.8310032  38.8913978  46.6604923 103.7427179
  38.9318123  46.9319775 102.9146958  39.4508502  47.1846832 104.1584967
  38.9797324  46.7780679 103.6819067  44.8404150  39.6418877  94.1967764
  45.2249303  39.4226583  94.9484310  44.5915771  40.4681822  94.3268841
  44.8606223  39.7317023  94.3268841  45.0072691  32.9225292 113.9130349
  44.6926132  33.6924855 113.6499911  44.6862623  32.3595548 113.3282576
  44.9131610  32.9535561 113.7871699  55.5739338  43.4165514 105.2078433
  55.2685155  44.1493571 105.5691749  54.8545554  43.0103444 104.9271219
  55.4226680  43.4647247 105.2191570  46.5822807  44.8989010 101.5386661
  46.6561816  44.7364181 102.3928511  47.3992314  45.0879199 101.2947143
  46.7139166  44.9025752 101.6284687  61.2741130  40.0558515 104.5346777
  61.2065630  40.0754474 103.6649364  61.2596792  40.8988842 104.7602448
  61.2619886  40.1832250 104.4399254  40.3428564  45.2446872  98.5681105
  39.5166682  45.4908610  98.4415384  40.4040555  45.1658953  99.4343163
  40.2302731  45.2691821  98.6770049  42.5604588  31.3115813  99.5276545
  41.6927013  31.3838413  99.5934154  42.8479792  32.1137892  99.7164520
  42.4744336  31.4409961  99.5651312  51.6837476  31.4593673 107.8587867
  52.4291068  31.2703483 107.4451292  51.2674781  31.9851911 107.3001723
  51.7322451  31.5095818 107.7152440  45.1227393  47.8623753  96.2700135
  45.4125691  47.4712734  95.5459361  45.8530874  48.0440458  96.7105410
  45.2734277  47.8317566  96.2282942  59.0599747  38.8302901 102.8093372
  59.6107669  38.1970970 103.0490464  59.0443863  39.3618294 103.5008876
  59.1384944  38.8151849 102.9472230  45.7122138  42.6641499 107.3553265
  45.2133832  43.3757266 107.4338154  46.5222362  42.9842165 107.3171428
  45.7578245  42.8168347 107.3609834  43.0633309  49.8391135  99.3360284
  42.8433604  49.5488490 100.1286952  42.8427831  49.1806090  98.8078197
  42.9980903  49.6990843  99.3749193  41.9750256  41.9264452 101.6015986
  41.6863504  41.3001923 102.1361713  42.8433604  41.8684739 101.6680667
  42.0610508  41.8251996 101.6906941  52.7628154  37.0699235 101.9197968
  52.4192919  36.3489570 102.2705218  52.8621196  36.8613086 101.0776326
  52.7270196  36.9323438 101.8469648  45.2301264  51.2120525  98.1190977
  45.8825322  50.6796967  98.3482003  44.5326873  50.8589177  98.5058851
  45.2231982  51.0810048  98.2103145  42.1782529  43.5659703  97.5258351
  42.9328497  43.9472742  97.7393814  41.5853142  44.0170846  97.9805048
  42.2019243  43.6888530  97.6241230  53.2241183  43.5324939  97.4621956
  53.7899215  44.1918149  97.3780499  52.5769086  43.8774637  97.9338358
  53.2119939  43.6806880  97.5194713  44.6389196  35.5222543 112.6515564
  43.8288972  35.8280323 112.5405406  45.1163883  36.2428125 112.7668148
  44.5892675  35.6737144 112.6522635  43.4980756  44.7368264 102.8998467
  42.9761509  44.8768556 103.5850331  43.8854776  43.9778928 103.0900584
  43.4784457  44.6453788 103.0299543  40.4871940  34.7874073  96.9693421
  40.1996736  34.4175343  96.2325369  41.1742408  35.2568928  96.7077126
  40.5460837  34.8021042  96.8208497  49.6947761  46.4763723  96.8859035
  49.4534437  45.7431584  96.4786100  49.8749094  47.0250580  96.2325369
  49.6855385  46.4486114  96.7289258  44.9247081  41.7672283  98.2979958
  44.7289864  42.3747018  97.7040261  45.1481427  41.0740227  97.8171632
  44.9281722  41.7549809  98.1396038  43.3225611  38.6527021  98.4160826
  44.0448263  38.8168179  97.9564632  42.8433604  39.3736686  98.3100166
  43.3589342  38.7825251  98.3326440  51.2819119  34.9890820 103.7957511
  50.4430220  35.0152099 103.5595774  51.3523486  35.6361555 104.3762858
  51.1687512  35.0886946 103.8466628  40.9733228  41.0585093 107.5214966
  41.4854325  41.3369347 106.8723726  40.6869571  41.7974387 107.8877779
  41.0068091  41.2087447 107.4804844  49.7288397  31.8876197  98.5285127
  50.4314750  31.6883945  98.0505085  49.4632586  31.1152139  98.8353970
  49.7935030  31.7439163  98.5030568  55.1576643  40.1958807 101.0818753
  55.0710617  40.3514233 101.9353532  54.7027123  40.8396882 100.7078158
  55.0779899  40.3134562 101.1525859  38.0600134  35.5655285  97.8178702
  38.1616271  36.3681447  98.1459678  38.8556021  35.3642621  97.5201783
  38.1928040  35.6541184  97.8214058  44.4916953  33.1511482 107.5816007
  44.3000150  33.1666616 108.4315431  45.3415549  33.3475156 107.5582662
  44.5892675  33.1825833 107.7039302  38.8763866  35.6802463 105.5599824
  38.7349358  34.8286404 105.6844332  39.1604430  35.7231124 104.7362030
  38.8971713  35.5602213 105.4567448  49.0302459  37.5169554  99.7044312
  48.7837173  37.4365305 100.5381101  49.3587582  36.7323021  99.5106840
  49.0423702  37.3895819  99.7991835  52.9250508  44.2252913 103.4931093
  52.7864867  44.9233959 103.9979836  52.1450506  44.0701569 103.1367275
  52.7893735  44.3053080 103.5157368  51.2628593  40.5249288 109.7453475
  51.2576631  39.6529105 109.7495902  51.9689587  40.7237457 109.2722931
  51.3673597  40.4253162 109.6760511  44.9899486  40.2526272 109.1167295
  45.1342862  40.8327480 108.4810405  45.3375135  40.6302569 109.8217150
  45.0626947  40.3946976 109.1266290  47.1619403  39.4516441 106.8992427
  46.4142718  39.6447455 106.4940705  47.3160929  38.6261660 106.6616548
  47.0741831  39.3581552 106.8037833  44.0627241  48.4429044 105.9828322
  44.2116805  47.8831960 105.3301727  44.8427243  48.5221046 106.3660841
  44.2001335  48.3714609 105.9425271  54.4203880  43.5831167  94.2547593
  54.0410689  42.7968305  94.2476882  53.7570126  44.1318024  94.1119237
  54.2662355  43.5475991  94.2328390  46.5880542  48.6143687 107.2612813
  46.5124213  47.9452497 107.8163601  46.5170401  49.3161475 107.7753479
  46.5661149  48.6188594 107.4189661  47.4021180  33.3466991 107.7887831
  47.8593795  34.0790966 107.9160623  47.4777509  32.9233457 108.5475086
  47.4812150  33.3924229 107.9188907  39.6454172  33.5932811 108.8777274
  39.1096361  32.9813169 109.1938042  39.7071936  34.1680947 109.5310941
  39.5749804  33.5879739 109.0212701  51.8748506  26.5256866 101.6581674
  51.9932075  26.9833330 100.9248976  51.7010682  25.7202128 101.3717891
  51.8667677  26.4750639 101.5082607  47.2450789  47.1344686  98.0936419
  48.0100680  46.8654330  97.7719083  47.1428879  46.6494696  98.8106482
  47.3432284  47.0234250  98.1516247  45.2803558  35.3369095 104.6329655
  44.4899633  35.1560555 104.9546990  45.6764181  34.5596048 104.6159949
  45.2220435  35.1956556 104.6782203  49.7669449  44.1656870  90.0736368
  50.5342434  44.2256994  89.6642220  49.3200758  43.5937311  89.5892687
  49.8142876  44.0893445  89.9414079  50.6647245  42.9711525 102.3589101
  49.9892247  42.7396758 102.8602488  50.6739621  42.3632708 101.7331206
  50.5665749  42.8470451 102.3405253  47.7941389  37.8129354 109.1153154
  47.7300530  38.6739311 108.9873290  47.9338576  37.4961348 108.3148705
  47.8056859  37.8929521 108.9781366  52.6663979  45.8276658  94.5899279
  52.7483817  46.6343644  94.2660729  53.1513721  45.8472617  95.3140052
  52.7501137  45.9497320  94.6486177  46.4760483  40.5061494 103.2569356
  46.0522732  40.7065993 102.5208375  46.3005338  39.6590342 103.3693656
  46.3871363  40.4110275 103.1643047  45.9772176  52.0212007 105.7190814
  46.4668106  51.3222796 105.5366478  45.4056408  51.7235877 106.3066871
  45.9656706  51.8738230 105.7791855  41.7642928  41.0013545  98.6897329
  41.9207547  40.9360348  99.5453321  42.1043521  41.7762098  98.4776009
  41.8376162  41.1062743  98.7851923  48.3022072  40.3771429  97.5590692
  48.8437618  39.8741810  98.0229313  48.6168631  40.3236623  96.7480177
  48.4286469  40.2950850  97.5074504  52.1739180  44.5874076 114.6717604
  52.9874045  44.3159225 114.8322737  52.0134146  44.2881616 113.8677800
  52.2709128  44.5029002 114.5763010  46.4708522  45.7688780  94.8430720
  46.5401342  44.9103319  94.9823721  47.2496977  45.9860661  94.5149745
  46.5961372  45.6741644  94.8147878  49.4511342  35.2707733 107.6112993
  49.6653311  34.6318647 107.0576347  48.8345241  35.7153557 107.1820854
  49.3916671  35.2417877 107.4663424  50.8616009  48.1926482  99.0567214
  50.4695801  47.8893197  98.3390080  51.0169082  49.0295571  98.8672167
  50.8269599  48.2710318  98.9223711  38.3377189  38.1848496  99.0058096
  38.7176154  38.6033041  98.3418363  37.7632554  38.7661951  99.3126939
  38.3088514  38.3326354  98.9534837  51.6150430  36.8796798 108.5496300
  50.8027111  36.5722689 108.6309472  52.0740364  36.3995799 109.1139012
  51.5630814  36.7633291 108.6450894  51.0255684  44.7576470  98.9973244
  50.6670339  44.9291113  99.7737277  50.5394395  45.2189676  98.4401243
  50.9014381  44.8515441  99.0298513  48.8426070  28.3807669 102.6000335
  47.9719628  28.3546390 102.5533645  49.0966411  28.2084861 101.7826181
  48.7519630  28.3517813 102.4720472  45.8144050  40.4375636  91.5373478
  46.1036574  41.2140518  91.8117053  45.9015848  39.9264367  92.2387978
  45.8698306  40.4767554  91.6815976  48.7103937  38.2856870 113.3325002
  49.1803568  38.9098986 113.7192876  48.7565817  37.6173845 113.8918217
  48.7871813  38.2791550 113.4725074  45.8675211  30.3913897 104.0573806
  45.3513699  29.6994089 104.1825385  45.3069140  31.0584674 104.0036405
  45.7081724  30.3877155 104.0679872  47.9367444  30.9306857 105.8866658
  47.5499197  30.9555889 106.6680188  47.4500381  30.3648536 105.4341175
  47.8079953  30.8502608 105.9354562  52.1860424  45.6480366 109.9440445
  52.8240144  45.1540562 109.6102901  51.5434515  45.5757767 109.3592672
  52.1854650  45.5639375 109.8082800  53.9117424  37.4969512 104.5106361
  53.4845032  37.4095861 103.7554460  53.2743477  37.6047288 105.0961205
  53.7547031  37.5002172 104.4851802  47.6024586  27.8173843 108.1776918
  48.2317704  28.3534143 107.8997989  47.7710449  27.7251202 109.0290484
  47.7202380  27.8835205 108.2625446  47.4038501  32.6045038 110.4503330
  48.2311930  32.3330186 110.5061944  47.4246347  33.4005879 110.8067148
  47.5291351  32.6824792 110.5118513  52.2414680  46.3400175 106.5845802
  53.0307058  45.9889239 106.7047883  52.4158278  47.1536563 106.3222436
  52.3834962  46.4086032 106.5633670  41.9807991  39.7508900 103.6373591
  41.1395997  39.6512775 103.8452484  42.1897999  40.5204381 103.9887911
  41.8872683  39.8500944 103.7200905  39.4583558  37.3728437 101.4658341
  39.0640255  37.4471449 100.6908451  38.9023674  37.7586384 102.0166703
  39.3186370  37.4410212 101.4326001  51.0948504  30.3509731 101.1462220
  51.2998098  30.2832039 101.9919217  50.7674928  31.1568553 101.0783398
  51.0763752  30.4595672 101.2621875  45.7924655  37.6790300 102.8871188
  45.4887793  37.1246288 103.4881596  45.0904076  37.8582509 102.3999222
  45.6440865  37.6235082 102.9040894  44.8490753  34.9890819  97.4515890
  45.1250487  34.2709732  97.0393457  45.4489422  35.5875739  97.2436996
  44.9784017  34.9711190  97.3596651  43.8543006  44.8940020 107.5943286
  43.7463361  44.9042082 108.4605344  44.0638788  45.7194801 107.4048240
  43.8693118  45.0181095 107.6947377  54.3482192  30.9041496 100.6264986
  53.7356506  31.3911898 101.0118717  54.4446367  30.2284986 101.1702637
  54.2720090  30.8759804 100.7643844  48.3501273  32.6604337  95.7262485
  48.8045020  32.8314897  96.4510330  48.8241319  32.0472447  95.3260261
  48.4869593  32.5955222  95.7736247  41.8716798  42.1452663 105.0565223
  41.2804732  42.7862161 105.0268239  42.6337822  42.5690280 105.0296523
  41.8965059  42.3028501 105.0480371  42.2677421  33.3054660 105.7233241
  42.7278903  33.3793590 106.4608365  42.3133528  34.1035914 105.3733062
  42.3427977  33.4348807 105.7805998  43.9160771  33.9721355 110.2905268
  43.5246336  33.3254702 110.7261046  44.0846634  34.5632791 110.9099524
  43.8831681  33.9635623 110.4467974  57.9907220  41.9758432 106.0542502
  58.0490344  42.4245081 106.8002478  57.3573688  42.3857245 105.6172582
  57.9058515  42.1032167 106.0995050  51.6306315  47.5961974 102.4897248
  51.4326003  48.0852789 101.7953459  51.0094026  47.8003216 103.0681381
  51.5093879  47.6978512 102.4720471  45.6914293  39.3646871  96.8307492
  46.4356338  39.7521147  97.0690442  45.8374989  38.5204296  96.9947980
  45.8224878  39.2977344  96.8901462  47.6093869  31.1597130 101.8639354
  46.7629914  31.3319938 101.7380703  47.6065001  30.3546474 102.2005182
  47.4841018  31.0658159 101.8950481  48.6792169  34.9372344 102.7301412
  48.2052123  34.4114106 103.2406722  49.0510305  34.3901817 102.1616273
  48.6642058  34.7788341 102.7216559  39.0565199  36.9343851 108.0984957
  39.9190812  36.8339560 108.0122287  38.7256982  36.3538560 107.5370529
  39.1350395  36.8335478 108.0030363  54.9428899  39.9974720 104.1408192
  54.7027122  39.1581135 104.1450618  55.4220907  40.0774887 104.8648966
  54.9781083  39.8856120 104.2482994  50.6075669  35.8308899  95.7927165
  50.0798687  35.9137643  95.1032874  51.0671377  36.5726770  95.7891810
  50.5977519  35.9529561  95.6901860  56.9434087  36.7776177 102.0937451
  56.7043856  36.7372011 101.2558236  57.1067988  37.6247329 102.2203172
  56.9324390  36.8968262 101.9890933  53.5480117  41.1626126 108.0242496
  54.2714316  40.7098653 107.8453516  53.2830079  41.4430792 107.2414824
  53.6161390  41.1377095 107.8821212  42.4166985  35.7586300 104.7595375
  41.7920055  35.7704692 104.1521328  42.0812580  36.2346475 105.4086616
  42.2752477  35.8304817 104.7651944  42.6008734  34.1011419  90.8168061
  42.2521538  34.7531144  91.2799610  42.1205180  34.0868532  90.0891932
  42.4778978  34.1954472  90.7779152  39.1292661  43.8186760 106.1999140
  38.5992585  43.1279199 106.2494115  39.4017754  43.8096945 105.3711848
  39.0917383  43.7153892 106.0846556  50.1612751  44.4012462  94.9236822
  50.8846950  44.8670575  94.7801396  49.7213342  44.4686072  94.1734419
  50.2028443  44.4796299  94.7921604  49.3298906  41.2610005 106.1737511
  48.7155899  40.7168055 106.4686147  49.8466191  40.7474241 105.6943328
  49.3154569  41.1046414 106.1461740  48.5695203  42.3314275 103.9081810
  48.1422811  41.7063993 103.4747245  48.5620148  42.0489197 104.7340817
  48.5054344  42.1967055 103.9661638  41.6857730  37.3679448 106.9770244
  41.8451217  36.6122772 107.3821966  41.5050624  37.9170387 107.6310982
  41.6823089  37.3373262 107.1332950  49.6278033  29.5340683 107.5321033
  49.1318595  29.7304358 106.8412600  50.3847095  29.9333352 107.3609835
  49.6664858  29.6218417 107.4041170  46.8980913  33.2083029 104.1224344
  46.9223400  32.6743142 103.4337124  47.1492387  32.7000338 104.7849935
  46.9390832  33.0543933 104.1188989  34.4088503  40.4914524 103.5567488
  34.3031952  40.4461369 102.6919572  33.6588723  40.8368305 103.8381773
  34.2824106  40.5355432 103.4704818  43.1782235  31.9353848 103.5030088
  43.2180607  32.4363054 104.2164796  42.3531900  32.0264241 103.2336011
  43.0621761  32.0235664 103.5680627  45.3611848  41.5014588 111.6050383
  44.5107479  41.6386302 111.7408028  45.5239976  40.7678366 112.0498085
  45.2595712  41.4128689 111.6905982  44.5996599  38.4514357 105.8003987
  43.7688528  38.6188175 105.5939235  44.5448116  38.0750308 106.5852873
  44.4686013  38.4204089 105.8852515  42.4080382  31.9423250 111.4360398
  43.0333085  31.3985383 111.7089830  41.9530862  31.4618168 110.8668188
  42.4328642  31.7912732 111.3921992  42.9732642  36.7269949  96.3294105
  43.1135604  37.2242413  97.0322746  43.4715175  36.0256243  96.4708319
  43.0673723  36.6971928  96.4545684  43.0032865  37.5937060  93.6586682
  43.6377944  38.1897485  93.5936144  43.0858476  37.2940518  94.4732552
  43.1089416  37.6377968  93.7689768  55.9815431  40.1252537 106.5273046
  56.5733271  40.7649788 106.5591244  56.4174425  39.4275574 106.8165113
  56.1333862  40.1170888 106.5753879  44.5811848  33.5251035  93.6332124
  44.9027689  33.0454118  92.9791386  44.8438791  34.3350681  93.4422935
  44.6677873  33.5740933  93.5087616  47.8108820  44.5469910 107.1530940
  47.3033912  45.1005757 107.5971570  47.5135467  44.6078200 106.3349714
  47.6913705  44.6376221 107.0979397  49.9771003  32.9123229 105.9955603
  50.4026074  32.4595756 105.3839129  49.3627996  32.3583300 106.2720390
  49.9499648  32.7637206 105.9460628  39.5085853  39.7904901  96.9276228
  40.0178082  40.3869408  97.3087533  39.9820125  39.5230874  96.2452647
  39.6529228  39.8390716  96.8830751  50.4216601  48.4633167  95.0834883
  49.7045910  48.2894030  94.6182121  51.0723338  48.2285740  94.5510369
  50.4118451  48.4028960  94.9364101  48.4165226  29.3838329  99.4046180
  47.7733543  29.2335975  99.9731318  48.0764633  29.1380674  98.6395285
  48.2710303  29.3250452  99.3749195  53.0064572  37.3397756  98.8276189
  52.3355762  37.8827458  98.6989254  53.7004322  37.8092611  98.5857883
  53.0093439  37.4896027  98.7731716  47.0551306  49.4794468 104.0587947
  46.8316960  48.7213297 104.4271973  46.5661149  49.5092489 103.3368387
  46.9494755  49.3716692 104.0064688  53.1692699  33.7953640 101.7366562
  53.5220310  33.3683363 102.4112360  52.3107501  33.7104483 101.8667638
  53.0942144  33.7198380 101.8561572  41.8676384  36.4261159  99.7949408
  41.1488374  36.8425292 100.0622272  42.2388747  36.9915398  99.2441046
  41.8168316  36.5710441  99.7532215  51.1675965  37.0589008 105.6851404
  51.1473893  36.8772303 106.5386183  51.2155166  37.9301027 105.6610988
  51.1710606  37.1605546 105.8074699  49.1122295  43.6476200 111.6099881
  49.0718150  43.0025877 111.0245036  49.9245613  43.5912818 111.9225293
  49.2265449  43.5435167 111.5696830  45.7029763  49.6994926 101.5125031
  45.2890161  49.0369056 101.1228873  46.3877137  49.8472785 100.9920726
  45.7428134  49.6235584 101.3781529  49.0695057  48.8585011 102.2648648
  48.6711340  48.9687282 101.4969468  48.4546276  49.0667078 102.8475208
  48.9193946  48.9058579 102.2379947  47.6422959  35.4659159  95.1322788
  47.0487798  35.7876156  94.5807355  47.6798237  34.6200255  94.9243894
  47.5597348  35.3883487  95.0205559  54.6016760  28.9172051 102.6650874
  54.0947624  28.2101191 102.5972052  55.3984193  28.5865240 102.7951951
  54.6443999  28.7645203 102.6749869  50.5180775  35.4238664  98.5624538
  50.2894468  35.4471365  97.7202896  50.7778852  34.5996131  98.6819549
  50.5226963  35.3054744  98.4549736  44.8000004  37.2773137 108.1649638
  44.2878907  36.6694320 108.5234670  44.6279500  37.9929729 108.6323614
  44.6989641  37.2936436 108.2865862  39.6465719  35.7210712 110.8152000
  39.4768309  36.3812087 110.2700207  39.2031668  35.9317273 111.5364489
  39.5565052  35.8496694 110.8413629  43.5725538  33.9615210  99.8578734
  44.0482904  34.3232290  99.2228915  43.0714138  34.6171678 100.1378876
  43.5690897  34.1109399  99.8055475  56.8036899  43.4336978  95.6491739
  57.1870505  44.1828334  95.8789836  56.0081013  43.6802798  95.3903728
  56.7430682  43.5806672  95.6449312  48.6769074  35.1997381 110.6051894
  49.2340504  34.9711191 109.9730359  48.3530139  35.9603047 110.3287106
  48.7115484  35.2781218 110.4708391  36.5467783  38.6257578 106.0740490
  35.9994502  37.9558223 106.1921358  37.3360161  38.2587425 106.1383957
  36.5819967  38.4722564 106.1009190  46.3952191  38.2865035 111.5703901
  47.1463518  38.6016711 111.8843455  46.5874768  38.0844206 110.7437823
  46.5343606  38.3032416 111.4947297  45.6152191  36.1056410  93.2252118
  45.9951156  36.1236039  92.4403232  44.8744787  36.5510399  93.1042965
  45.5621029  36.1738184  93.0915686  53.2437482  34.4138601  98.8127696
  53.2431708  34.2587258  99.6711973  53.0393662  35.2601588  98.7569082
  53.2137259  34.5159222  98.9315636  35.3054753  37.8378385 103.2286513
  35.1276514  37.3854994 103.9541428  35.0173775  38.6404547 103.4124990
  35.2367706  37.8900943 103.3630016  50.9678334  39.0936103 102.4663903
  51.4631999  38.3759098 102.4267923  50.1578109  38.7906900 102.3518390
  50.9222227  38.9433749 102.4437629  46.4136945  42.9433916  94.6160908
  45.6048268  42.6200590  94.5694217  46.9211854  42.2367138  94.5489156
  46.3686612  42.7915232  94.5991202  37.0427222  40.3706109 100.3408272
  36.1772742  40.3591800 100.2291043  37.1426038  40.1836332 101.1879411
  36.9301389  40.3412170 100.4497216  53.0330152  41.8439790 105.1541032
  53.4585224  41.3214212 104.6011457  52.6687072  42.4420628 104.6329655
  53.0416755  41.8550017 104.9950042  42.6684232  50.1404008 103.9138377
  42.9830791  50.9540396 103.9216159  43.0777646  49.7554226 104.5820537
  42.7752330  50.2032710 104.0142469  49.6208752  45.5574055 101.4842189
  50.0919930  46.2714317 101.6532175  49.9568930  44.9572805 102.0202059
  49.7403867  45.5745519 101.5874565  51.7085737  47.1675368 113.6634261
  51.8182702  46.3783928 114.0191009  52.0376633  47.0781304 112.8608600
  51.7738142  47.0381221 113.5976652  46.5378247  30.3301525 108.4400284
  46.6706152  29.5332519 108.7681260  46.9223400  30.8567928 109.0198560
  46.6134576  30.2901442 108.5743787  50.2582698  45.3491989 108.2469882
  49.7103644  44.7249872 107.9789947  50.7195727  45.5386261 107.5313961
  50.2449908  45.2851039 108.1020313  49.6110602  27.2531851 105.0381377
  48.8056566  27.1429581 105.3549216  49.4817338  27.3544307 104.1811243
  49.4730735  27.2515521 104.9589418  53.0676563  33.4177343 105.6321074
  52.4839551  33.9186550 105.2198642  53.3880857  32.9106899 104.9985398
  53.0289738  33.4169178 105.4779582  45.6071362  32.3317938  95.9079749
  46.4287056  32.5016251  95.6661444  45.1441013  32.4865199  95.1846047
  45.6602524  32.3799671  95.7651393  44.1966694  30.3260700 106.6878178
  44.7411107  29.9851827 107.2782520  44.2503629  31.1846162 106.8299463
  44.2855813  30.4015960 106.7960051  40.0097252  44.0877116 103.5616986
  40.6142110  44.0472950 102.9330807  39.8024565  44.9348268 103.5921042
  40.0686150  44.2065119 103.4733102  49.8241025  46.3543061 104.7779223
  50.6439398  46.2106027 105.0395518  49.5435102  46.9789260 105.3195661
  49.9037768  46.4253413 104.8967163  35.2448535  43.0711734 103.4315909
  35.1472813  42.2608005 103.7405966  36.0277404  43.0503527 103.0462177
  35.3464671  42.9478824 103.4202772  53.8795500  62.6346282  98.2612262
  53.1278399  62.2561820  98.0328307  54.3281511  62.6664716  97.5131072
  53.8345166  62.5831889  98.1169764  62.8048076  59.3670090 112.1035486
  63.5114844  58.8722120 112.2322421  62.9936012  59.8079171 111.3738144
  62.9375982  59.3588440 112.0144532  59.3320459  63.0571651  93.6897809
  58.9971828  63.7348573  93.2542031  59.8447330  62.6676963  93.1014680
  59.3586041  63.0996230  93.5384600  58.8724751  65.0085920  99.6308920
  59.2564130  65.5772819  99.0913696  58.8083892  64.2835430  99.1514736
  58.9198178  64.9861384  99.4802783  55.4580256  62.6464674 100.5275034
  55.5590619  61.8365028 100.8372162  54.8622001  62.5521621  99.8974713
  55.3852794  62.5129702 100.4801273  55.2980995  67.5642263 101.9289890
  55.9418451  68.0055427 102.3186049  55.6237251  66.7595689 101.8420149
  55.4412824  67.5107458 101.9735367  48.6545300  58.6684961 100.1527368
  48.4195484  57.8352613 100.0459637  48.7930941  58.9489626  99.3388569
  48.6400962  58.5868464 100.0169723  56.0001575  60.5754238  97.3009752
  56.3217416  61.1159445  96.6971060  56.6473671  60.0051010  97.4332042
  56.1427630  60.5713413  97.2316787  50.6804520  54.3822973 105.2955244
  50.5563217  54.9685418 105.9305063  51.3322805  53.8883169 105.5967519
  50.7578170  54.3961777 105.4341174  58.2448953  60.4039596 104.2249648
  58.5272196  59.6091002 104.0036404  58.9735113  60.8820183 104.2454709
  58.3938516  60.3574193 104.1952663  68.2267041  59.5098958 101.1985479
  67.3964744  59.7209602 101.3618895  68.1776293  58.6836013 100.9227762
  68.0973777  59.4188564 101.1822844  54.6618596  57.8315870  94.6259902
  54.0775811  58.3365902  95.0325766  54.2588691  57.6058257  93.8856494
  54.5157900  57.8724119  94.5764928  50.2162625  63.5470631 101.4283574
  49.7330203  64.2721121 101.4043158  51.0285943  63.8446762 101.5393732
  50.2653372  63.6972985 101.4410853  56.2876779  62.3402812 104.0333388
  55.7703720  61.9810227 103.4294696  56.9851170  61.8164987 104.0439454
  56.3142360  62.2100500 103.9463647  59.9440371  62.7897626 109.9949561
  60.0323717  62.6023767 110.8427772  60.3730083  62.1435056 109.5954408
  60.0202473  62.6660634 110.0621313  57.5110830  62.0728786 108.9767224
  56.9481665  61.6601396 109.5006885  58.2731854  61.9981692 109.3960367
  57.5405279  62.0006187 109.1160224  54.4286101  46.0074918  96.9488361
  55.1832069  46.3753235  96.7105411  54.2513635  46.3814473  97.7167540
  54.5140579  46.1173106  97.0273249  53.0706822  64.0626807 101.5803854
  53.7727401  63.5478796 101.6376610  52.9904305  64.3900959 102.3850729
  53.1630582  64.0341034 101.7076646  67.7220999  52.1569359 104.9935900
  66.8849420  52.2271546 105.2283495  67.6909230  52.1593854 104.1210203
  67.5939282  52.1679586 104.8995448  52.7843165  48.4145237  93.6466474
  52.6018739  48.6317118  92.8207467  53.6468778  48.5284250  93.7025088
  52.8847755  48.4635135  93.5320961  52.3957597  60.2533159 101.0889462
  53.2346497  60.4856092 101.1363223  52.4269366  59.3837471 101.0196497
  52.5239315  60.1590106 101.0854106  58.4642885  45.4171648  96.6815498
  59.1929045  45.2387603  96.2353654  58.5537777  46.2589728  96.8922676
  58.5849547  45.5155526  96.6469015  65.4831356  60.1798312 101.3350195
  65.0466588  60.1835055 102.0909166  65.1494272  60.8603811 100.9029772
  65.3693976  60.2810768 101.3831027  60.0560430  62.2206645 112.6593345
  60.8400847  62.3337493 113.0249087  59.8557024  61.3947782 112.8552031
  60.1426455  62.1153365 112.7427731  48.4247445  56.8934325 105.5437189
  48.1585861  56.0773442 105.7028179  48.4386010  56.9387481 104.6732704
  48.3872168  56.7791230 105.4390671  52.3305192  51.6919410  92.1588947
  51.6163369  51.4057589  92.5711379  52.8149161  52.0316036  92.7995334
  52.2964556  51.7001059  92.3144582  60.2130823  64.1316747 106.3059801
  59.4146069  63.8916247 106.5633669  60.6616835  64.1831140 107.0526848
  60.1605435  64.1039138 106.4544725  48.8340859  57.6793105 102.8248933
  48.6516432  57.6539991 101.9721225  49.5690528  58.1492043 102.8637842
  48.9154923  57.7454467 102.7046852  51.8986611  54.3978108 109.3331042
  52.6226583  54.3831138 109.8195936  52.0002747  55.1073463 108.8353010
  52.0204820  54.5002811 109.3309829  59.2731560  57.8777192 114.1979989
  58.4804541  58.1920704 114.3832608  59.3880487  58.0928661 113.3600773
  59.1726971  57.9561029 114.1018324  48.8011769  54.5586605 102.9748000
  49.3785272  54.4223056 103.6140245  48.1025831  54.1022390 103.2293584
  48.7832791  54.4708872 103.1070289  44.2770603  53.4098498  99.6895818
  44.3630854  53.0330367 100.4709348  44.9046400  53.0358944  99.2115777
  44.3827154  53.2983981  99.7341296  62.0213434  45.9356402 104.0467740
  62.4023946  45.2534573 104.4335614  61.2176718  45.6466004 103.8643405
  61.9589896  45.7923450 104.0771796  65.5235501  59.1506374 109.1450139
  65.2874138  58.3194438 109.0262199  66.1678730  59.0991981 109.7304983
  65.5830172  59.0204062 109.2136032  55.1733919  59.9401895  99.8592875
  55.8107866  59.7013642 100.4044669  55.5988990  60.1439054  99.1246036
  55.3310085  59.9352905  99.8310032  49.8646561  62.1790231 103.7427179
  49.9050707  62.4505082 102.9146958  50.4241085  62.7032139 104.1584967
  49.9529907  62.2965986 103.6819067  55.9805274  48.4410600 113.9130349
  55.6658715  49.2110163 113.6499911  55.6595207  47.8780856 113.3282576
  55.8864193  48.4720869 113.7871699  66.5471921  58.9350822 105.2078433
  66.2417738  59.6678879 105.5691749  65.8278137  58.5288752 104.9271219
  66.3959264  58.9832555 105.2191570  72.2473714  55.5743823 104.5346777
  72.1798214  55.5939782 103.6649364  72.2329376  56.4174150 104.7602448
  72.2352470  55.7017558 104.4399254  51.3161148  60.7632180  98.5681105
  50.4899265  61.0093918  98.4415384  51.3773139  60.6844261  99.4343163
  51.2035314  60.7877129  98.6770049  53.5337171  46.8301121  99.5276545
  52.6659597  46.9023721  99.5934154  53.8212376  47.6323200  99.7164520
  53.4476919  46.9595268  99.5651312  62.6570060  46.9778981 107.8587867
  63.4023652  46.7888791 107.4451292  62.2407365  47.5037219 107.3001723
  62.7055034  47.0281126 107.7152440  56.0959977  63.3809061  96.2700135
  56.3858275  62.9898042  95.5459361  56.8263457  63.5625766  96.7105410
  56.2466861  63.3502874  96.2282942  70.0332331  54.3488209 102.8093372
  70.5840252  53.7156278 103.0490464  70.0176446  54.8803602 103.5008876
  70.1117527  54.3337157 102.9472230  54.0365892  65.3576443  99.3360284
  53.8166188  65.0673798 100.1286952  53.8160414  64.6991398  98.8078197
  53.9713486  65.2176151  99.3749193  52.9482839  57.4449760 101.6015986
  52.6596088  56.8187231 102.1361713  53.8166187  57.3870047 101.6680667
  53.0343091  57.3437304 101.6906941  56.2033848  66.7305833  98.1190977
  56.8557906  66.1982275  98.3482003  55.5059457  66.3774485  98.5058851
  56.1964566  66.5995356  98.2103145  53.1515113  59.0845011  97.5258351
  53.9061081  59.4658050  97.7393814  52.5585725  59.5356154  97.9805048
  53.1751826  59.2073838  97.6241230  55.6121780  51.0407851 112.6515564
  54.8021555  51.3465631 112.5405406  56.0896466  51.7613433 112.7668148
  55.5625258  51.1922452 112.6522635  54.4713339  60.2553572 102.8998467
  53.9494093  60.3953864 103.5850331  54.8587360  59.4964236 103.0900584
  54.4517040  60.1639096 103.0299543  51.4604523  50.3059381  96.9693421
  51.1729319  49.9360651  96.2325369  52.1474992  50.7754236  96.7077126
  51.5193421  50.3206350  96.8208497  60.6680344  61.9949031  96.8859035
  60.4267020  61.2616892  96.4786100  60.8481677  62.5435888  96.2325369
  60.6587968  61.9671422  96.7289258  54.2958195  54.1712329  98.4160826
  55.0180847  54.3353487  97.9564632  53.8166188  54.8921994  98.3100166
  54.3321926  54.3010558  98.3326440  49.0332718  51.0840593  97.8178702
  49.1348854  51.8866755  98.1459678  49.8288605  50.8827929  97.5201783
  49.1660624  51.1726492  97.8214058  63.8983091  59.7438221 103.4931093
  63.7597451  60.4419267 103.9979836  63.1183089  59.5886877 103.1367275
  63.7626318  59.8238388 103.5157368  55.0359825  63.9614352 105.9828322
  55.1849388  63.4017268 105.3301727  55.8159827  64.0406354 106.3660841
  55.1733918  63.8899917 105.9425271  57.5613125  64.1328995 107.2612813
  57.4856796  63.4637805 107.8163601  57.4902984  64.8346783 107.7753479
  57.5393732  64.1373902 107.4189661  50.6186755  49.1118119 108.8777274
  50.0828945  48.4998477 109.1938042  50.6804520  49.6866255 109.5310941
  50.5482388  49.1065047 109.0212701  58.2183372  62.6529994  98.0936419
  58.9833263  62.3839637  97.7719083  58.1161462  62.1680004  98.8106482
  58.3164868  62.5419558  98.1516247  56.9504760  67.5397315 105.7190814
  57.4400690  66.8408104 105.5366478  56.3788992  67.2421185 106.3066871
  56.9389290  67.3923538 105.7791855  52.7375511  56.5198853  98.6897329
  52.8940130  56.4545656  99.5453321  53.0776104  57.2947406  98.4776009
  52.8108746  56.6248051  98.7851923  63.1471763  60.1059384 114.6717604
  63.9606628  59.8344533 114.8322737  62.9866729  59.8066924 113.8677800
  63.2441712  60.0214310 114.5763010  57.4441105  61.2874088  94.8430720
  57.5133926  60.4288627  94.9823721  58.2229561  61.5045969  94.5149745
  57.5693956  61.1926952  94.8147878  61.8348593  63.7111789  99.0567214
  61.4428385  63.4078505  98.3390080  61.9901665  64.5480879  98.8672167
  61.8002183  63.7895626  98.9223711  49.3109773  53.7033804  99.0058096
  49.6908737  54.1218348  98.3418363  48.7365137  54.2847259  99.3126939
  49.2821098  53.8511662  98.9534837  59.8158654  43.8992977 102.6000335
  58.9452212  43.8731698 102.5533645  60.0698995  43.7270169 101.7826181
  59.7252214  43.8703121 102.4720472  59.6836521  53.8042178 113.3325002
  60.1536152  54.4284294 113.7192876  59.7298401  53.1359153 113.8918217
  59.7604396  53.7976858 113.4725074  56.8407794  45.9099205 104.0573806
  56.3246283  45.2179397 104.1825385  56.2801723  46.5769982 104.0036405
  56.6814308  45.9062463 104.0679872  63.1593007  61.1665674 109.9440445
  63.7972728  60.6725870 109.6102901  62.5167099  61.0943075 109.3592672
  63.1587234  61.0824683 109.8082800  58.5757169  43.3359151 108.1776918
  59.2050287  43.8719451 107.8997989  58.7443032  43.2436510 109.0290484
  58.6934964  43.4020513 108.2625446  58.3771084  48.1230345 110.4503330
  59.2044514  47.8515494 110.5061944  58.3978930  48.9191187 110.8067148
  58.5023934  48.2010100 110.5118513  63.2147264  61.8585483 106.5845802
  64.0039642  61.5074547 106.7047883  63.3890862  62.6721871 106.3222436
  63.3567545  61.9271340 106.5633670  50.4316141  52.8913745 101.4658341
  50.0372839  52.9656757 100.6908451  49.8756258  53.2771692 102.0166703
  50.2918953  52.9595520 101.4326001  68.9639804  57.4943740 106.0542502
  69.0222927  57.9430389 106.8002478  68.3306271  57.9042553 105.6172582
  68.8791099  57.6217475 106.0995050  62.6038898  63.1147282 102.4897248
  62.4058587  63.6038097 101.7953459  61.9826609  63.3188524 103.0681381
  62.4826463  63.2163820 102.4720471  58.5826452  46.6782438 101.8639354
  57.7362497  46.8505246 101.7380703  58.5797585  45.8731782 102.2005182
  58.4573602  46.5843467 101.8950481  50.0297783  52.4529159 108.0984957
  50.8923396  52.3524868 108.0122287  49.6989566  51.8723868 107.5370529
  50.1082979  52.3520786 108.0030363  53.5741317  49.6196726  90.8168061
  53.2254122  50.2716452  91.2799610  53.0937763  49.6053840  90.0891932
  53.4511561  49.7139780  90.7779152  50.1025244  59.3372068 106.1999140
  49.5725169  58.6464507 106.2494115  50.3750337  59.3282253 105.3711848
  50.0649966  59.2339200 106.0846556  60.6010617  45.0525991 107.5321033
  60.1051178  45.2489666 106.8412600  61.3579679  45.4518660 107.3609835
  60.6397442  45.1403725 107.4041170  45.3821086  56.0099832 103.5567488
  45.2764535  55.9646677 102.6919572  44.6321306  56.3553613 103.8381773
  45.2556689  56.0540740 103.4704818  56.3344432  57.0199895 111.6050383
  55.4840062  57.1571610 111.7408028  56.4972559  56.2863674 112.0498085
  56.2328295  56.9313997 111.6905982  53.3812965  47.4608558 111.4360398
  54.0065669  46.9170691 111.7089830  52.9263445  46.9803476 110.8668188
  53.4061226  47.3098040 111.3921992  53.9465226  52.2455257  96.3294105
  54.0868187  52.7427721  97.0322746  54.4447759  51.5441551  96.4708319
  54.0406307  52.2157236  96.4545684  53.9765448  53.1122368  93.6586682
  54.6110528  53.7082793  93.5936144  54.0591059  52.8125826  94.4732552
  54.0821999  53.1563276  93.7689768  66.9548014  55.6437845 106.5273046
  67.5465854  56.2835096 106.5591244  67.3907009  54.9460882 106.8165113
  67.1066445  55.6356196 106.5753879  58.7841404  60.0655218 107.1530940
  58.2766495  60.6191064 107.5971570  58.4868050  60.1263508 106.3349714
  58.6646289  60.1561529 107.0979397  50.4818436  55.3090209  96.9276228
  50.9910666  55.9054716  97.3087533  50.9552709  55.0416182  96.2452647
  50.6261812  55.3576024  96.8830751  61.3949184  63.9818475  95.0834883
  60.6778494  63.8079338  94.6182121  62.0455922  63.7471048  94.5510369
  61.3851035  63.9214268  94.9364101  59.3897809  44.9023637  99.4046180
  58.7466127  44.7521283  99.9731318  59.0497216  44.6565982  98.6395285
  59.2442886  44.8435760  99.3749195  58.0283889  64.9979776 104.0587947
  57.8049544  64.2398605 104.4271973  57.5393733  65.0277797 103.3368387
  57.9227338  64.8902000 104.0064688  52.8408968  51.9446467  99.7949408
  52.1220957  52.3610600 100.0622272  53.2121330  52.5100706  99.2441046
  52.7900900  52.0895749  99.7532215  60.0854879  59.1661508 111.6099881
  60.0450734  58.5211185 111.0245036  60.8978197  59.1098125 111.9225293
  60.1998032  59.0620475 111.5696830  56.6762346  65.2180234 101.5125031
  56.2622745  64.5554364 101.1228873  57.3609720  65.3658093 100.9920726
  56.7160718  65.1420892 101.3781529  60.0427640  64.3770319 102.2648648
  59.6443924  64.4872590 101.4969468  59.4278860  64.5852386 102.8475208
  59.8926530  64.4243887 102.2379947  50.6198302  51.2396020 110.8152000
  50.4500892  51.8997395 110.2700207  50.1764252  51.4502581 111.5364489
  50.5297636  51.3682002 110.8413629  54.5458121  49.4800518  99.8578734
  55.0215488  49.8417598  99.2228915  54.0446721  50.1356985 100.1378876
  54.5423480  49.6294707  99.8055475  47.5200367  54.1442886 106.0740490
  46.9727086  53.4743531 106.1921358  48.3092745  53.7772733 106.1383957
  47.5552550  53.9907872 106.1009190  57.3684775  53.8050343 111.5703901
  58.1196102  54.1202019 111.8843455  57.5607351  53.6029514 110.7437823
  57.5076189  53.8217724 111.4947297  46.2787336  53.3563693 103.2286513
  46.1009097  52.9040302 103.9541428  45.9906358  54.1589855 103.4124990
  46.2100289  53.4086251 103.3630016  48.0159806  55.8891417 100.3408272
  47.1505325  55.8777108 100.2291043  48.1158622  55.7021640 101.1879411
  47.9033973  55.8597478 100.4497216  53.6416816  65.6589316 103.9138377
  53.9563375  66.4725704 103.9216159  54.0510229  65.2739534 104.5820537
  53.7484914  65.7218018 104.0142469  62.6818320  62.6860676 113.6634261
  62.7915286  61.8969236 114.0191009  63.0109217  62.5966612 112.8608600
  62.7470726  62.5566529 113.5976652  61.2315282  60.8677297 108.2469882
  60.6836228  60.2435180 107.9789947  61.6928311  61.0571569 107.5313961
  61.2182491  60.8036347 108.1020313  60.5843186  42.7717159 105.0381377
  59.7789149  42.6614889 105.3549216  60.4549921  42.8729615 104.1811243
  60.4463318  42.7700829 104.9589418  64.0409146  48.9362651 105.6321074
  63.4572135  49.4371858 105.2198642  64.3613440  48.4292207 104.9985398
  64.0022322  48.9354486 105.4779582  55.1699277  45.8446008 106.6878178
  55.7143690  45.5037135 107.2782520  55.2236213  46.7031470 106.8299463
  55.2588397  45.9201267 106.7960051  50.9829836  59.6062424 103.5616986
  51.5874693  59.5658258 102.9330807  50.7757149  60.4533576 103.5921042
  51.0418733  59.7250427 103.4733102  60.7973608  61.8728369 104.7779223
  61.6171982  61.7291335 105.0395518  60.5167686  62.4974568 105.3195661
  60.8770352  61.9438721 104.8967163  46.2181118  58.5897042 103.4315909
  46.1205396  57.7793313 103.7405966  47.0009988  58.5688835 103.0462177
  46.3197255  58.4664132 103.4202772  77.2687259  69.5293221  97.7422100
  77.2381263  70.3837858  97.9140369  77.8668607  69.2288514  98.3008243
  77.3524416  69.6109718  97.8496902  70.4686943  68.6168872 102.4975030
  69.6124839  68.7777370 102.5484147  70.5154597  67.7460936 102.5180091
  70.3486055  68.5119674 102.5081096  64.8528083  78.1531590  98.2612262
  64.1010983  77.7747128  98.0328307  65.3014095  78.1850024  97.5131072
  64.8077750  78.1017197  98.1169764  73.7780660  74.8855398 112.1035486
  74.4847427  74.3907428 112.2322421  73.9668595  75.3264479 111.3738144
  73.9108566  74.8773748 112.0144532  70.3053043  78.5756959  93.6897809
  69.9704411  79.2533881  93.2542031  70.8179913  78.1862271  93.1014680
  70.3318624  78.6181538  93.5384600  69.8457334  80.5271228  99.6308920
  70.2296714  81.0958127  99.0913696  69.7816475  79.8020738  99.1514736
  69.8930761  80.5046692  99.4802783  73.3138764  70.6760916 105.1406682
  73.8594724  71.3546003 105.2000651  73.2555641  70.5348377 104.2808263
  73.3854679  70.7552918 105.0218742  66.4312839  78.1649982 100.5275034
  66.5323202  77.3550336 100.8372162  65.8354585  78.0706928  99.8974713
  66.3585378  78.0315010 100.4801273  75.0903833  72.1045523  96.0140409
  74.9743359  72.8553209  96.4432548  75.8859720  71.8469476  96.2636496
  75.1908422  72.1780370  96.1144501  66.2713579  83.0827571 101.9289890
  66.9151034  83.5240735 102.3186049  66.5969834  82.2780997 101.8420149
  66.4145408  83.0292766 101.9735367  59.6277884  74.1870269 100.1527368
  59.3928068  73.3537921 100.0459637  59.7663524  74.4674934  99.3388569
  59.6133546  74.1053772 100.0169723  61.9267971  66.3555999 103.0511675
  61.3073003  65.7648646 102.8821690  61.8251835  66.9467434 102.4175999
  61.8205647  66.3560082 102.9316665  66.9734159  76.0939546  97.3009752
  67.2950000  76.6344753  96.6971060  67.6206255  75.5236317  97.4332042
  67.1160214  76.0898721  97.2316787  69.0235867  68.0955541  97.3844139
  69.7216031  68.2743669  97.8765602  69.3388199  67.5725880  96.7614528
  69.1731204  68.0449313  97.3646149  61.6537104  69.9008281 105.2955244
  61.5295801  70.4870726 105.9305063  62.3055389  69.4068477 105.5967519
  61.7310753  69.9147085 105.4341174  69.2123802  74.4825986  97.3723930
  69.6517438  73.8743087  97.8178703  69.0628465  74.1033359  96.6009395
  69.2545268  74.3364457  97.3243097  66.6795445  73.0769998 104.5742756
  67.3244448  72.5842441 104.2553704  66.9197222  73.2194784 105.4008834
  66.8106030  73.0247440 104.6492289  69.2181536  75.9224904 104.2249648
  69.5004779  75.1276309 104.0036404  69.9467697  76.4005491 104.2454709
  69.3671100  75.8759501 104.1952663  67.1962730  63.4647938 101.4665413
  66.8666060  63.9159081 100.7969112  66.5207732  63.3864101 102.0138420
  67.0473167  63.5199073 101.4488636  72.8133139  72.8353167  94.3254699
  72.7284434  73.6914134  94.4704268  73.3017522  72.5597491  94.9936858
  72.8722036  72.9210489  94.4456781  74.4039138  59.4533461  99.7115024
  74.0892579  60.1436939 100.1435446  73.8866080  59.3978243  99.0100525
  74.2803608  59.5468349  99.6711973  73.7451572  69.4537962  95.8252434
  73.2163043  69.6697595  96.4849741  74.2676592  70.1474100  95.7453404
  73.7440025  69.5881098  95.9108034  79.1999625  75.0284266 101.1985479
  78.3697328  75.2394910 101.3618895  79.1508877  74.2021321 100.9227762
  79.0706360  74.9373872 101.1822844  65.6351180  73.3501178  94.6259902
  65.0508395  73.8551210  95.0325766  65.2321275  73.1243565  93.8856494
  65.4890483  73.3909427  94.5764928  61.1895208  79.0655939 101.4283574
  60.7062786  79.7906429 101.4043158  62.0018526  79.3632069 101.5393732
  61.2385956  79.2158293 101.4410853  67.2609362  77.8588120 104.0333388
  66.7436304  77.4995535 103.4294696  67.9583754  77.3350295 104.0439454
  67.2874943  77.7285808 103.9463647  70.9172954  78.3082934 109.9949561
  71.0056300  78.1209075 110.8427772  71.3462667  77.6620364 109.5954408
  70.9935057  78.1845942 110.0621313  68.4843414  77.5914094 108.9767224
  67.9214249  77.1786704 109.5006885  69.2464438  77.5167000 109.3960367
  68.5137863  77.5191495 109.1160224  70.0928394  69.5966830  93.1028823
  70.3324398  69.8044814  92.2904166  70.4144235  68.7924339  93.2117767
  70.1765552  69.5080932  92.9989376  65.4018684  61.5260226  96.9488361
  66.1564652  61.8938543  96.7105411  65.2246219  61.8999780  97.7167540
  65.4873163  61.6358414  97.0273249  64.0439405  79.5812115 101.5803854
  64.7459985  79.0664104 101.6376610  63.9636889  79.9086267 102.3850729
  64.1363166  79.5526342 101.7076646  78.6953583  67.6754667 104.9935900
  77.8582004  67.7456854 105.2283495  78.6641814  67.6779161 104.1210203
  78.5671865  67.6864894 104.8995448  65.0918312  69.8187702 110.7084269
  65.2638816  69.7093597 111.5569550  65.6287670  70.4642108 110.4715461
  65.1963316  69.8979704 110.7989366  63.3690181  75.7718467 101.0889462
  64.2079080  76.0041400 101.1363223  63.4001950  74.9022779 101.0196497
  63.4971898  75.6775414 101.0854106  63.9942884  76.1919342 105.3902767
  64.5341109  76.0490474 106.0606140  63.3112830  76.5916093 105.7586794
  63.9735038  76.2299013 105.5437189  69.4375468  60.9356956  96.6815498
  70.1661629  60.7572911  96.2353654  69.5270361  61.7775036  96.8922676
  69.5582130  61.0340834  96.6469015  73.4183769  71.8710343 100.5847792
  74.1741284  72.3041857 100.6236700  73.5246093  71.2215113 101.1582428
  73.5453939  71.8387827 100.6745817  76.4563940  75.6983620 101.3350195
  76.0199172  75.7020363 102.0909166  76.1226855  76.3789119 100.9029772
  76.3426560  75.7996076 101.3831027  71.0293014  77.7391953 112.6593345
  71.8133430  77.8522801 113.0249087  70.8289608  76.9133090 112.8552031
  71.1159039  77.6338673 112.7427731  59.3980029  72.4119633 105.5437189
  59.1318444  71.5958750 105.7028179  59.4118593  72.4572789 104.6732704
  59.3604751  72.2976538 105.4390671  76.3761423  62.7397448 103.5779623
  77.0187331  62.8095553 104.1641538  76.6284444  62.0726671 103.0759165
  76.5083555  62.6523797 103.5906902  63.3037776  67.2104718  92.1588947
  62.5895953  66.9242897  92.5711379  63.7881745  67.5501344  92.7995334
  63.2697139  67.2186367  92.3144582  64.1478635  65.9498012 108.1904197
  63.4550432  65.4794991 108.4364928  64.7638963  65.7236316 108.7645904
  64.1363165  65.8465143 108.3113349  71.1863407  79.6502055 106.3059801
  70.3878653  79.4101555 106.5633669  71.6349418  79.7016448 107.0526848
  71.1338018  79.6224446 106.4544725  79.5908286  72.4164540 100.2269832
  80.2524720  71.8555209 100.1265740  78.9499698  71.9216571 100.5522523
  79.5937154  72.2600949 100.2602172  70.4785094  75.7134672  92.5350755
  70.8936242  75.3819696  91.8435251  69.6477023  75.4803574  92.4070892
  70.4173103  75.6305928  92.4141603  59.8073443  73.1978413 102.8248933
  59.6249016  73.1725299 101.9721225  60.5423112  73.6677351 102.8637842
  59.8887507  73.2639775 102.7046852  75.8773117  73.4329923  99.9681821
  76.1128706  73.5775122  99.1408671  76.0262680  74.1972331 100.3613334
  75.9338920  73.5668977  99.9045425  62.8719194  69.9163416 109.3331042
  63.5959167  69.9016446 109.8195936  62.9735331  70.6258771 108.8353010
  62.9937403  70.0188119 109.3309829  77.7063574  72.2731589  97.8051424
  78.0371791  72.8059229  97.1991519  78.2796662  72.3270476  98.4613375
  77.8397253  72.3601157  97.8129206  70.2464144  73.3962500 114.1979989
  69.4537125  73.7106012 114.3832608  70.3613071  73.6113969 113.3600773
  70.1459554  73.4746337 114.1018324  72.9195463  70.1196491  98.4875005
  73.0142317  70.8585785  98.9414630  72.2954306  69.6913967  98.9209569
  72.8404493  70.1657812  98.6183152  71.1747937  73.2982704 109.1365285
  71.7486798  72.6609948 109.2913849  71.0962740  73.2986786 108.2674943
  71.2481171  73.2047815 109.0311696  59.7744353  70.0771913 102.9748000
  60.3517856  69.9408364 103.6140245  59.0758415  69.6207698 103.2293584
  59.7565374  69.9894180 103.1070289  73.1718484  71.9645231  91.7211957
  73.0898647  72.0347418  92.5866944  73.8098204  72.5274975  91.5295697
  73.2538321  72.0584202  91.8201906  66.5311655  71.7305969 101.1886483
  66.2730899  70.8977704 101.1617782  66.5860138  71.9563582 100.3478983
  66.5011433  71.6403740 101.0606620  71.6112705  63.8334420 101.2890576
  70.9069032  63.3443605 101.4474495  71.6597680  63.8456894 100.4179020
  71.5142757  63.7624068 101.1829915  65.5046367  69.2843732 101.6751378
  64.9295959  69.4435900 102.3115339  65.1282044  68.6479141 101.2119828
  65.3649180  69.2141544 101.7005936  69.1719656  67.7567081 106.5343756
  68.7834089  67.3321299 105.8795947  68.5074354  68.0049230 107.0420783
  69.0166584  67.7305802 106.5131624  78.8142925  67.5142085  99.3091586
  78.5579490  66.7022027  99.1189469  79.6572239  67.5219653  99.0821773
  78.9008950  67.3954083  99.2476403  55.2503186  68.9283806  99.6895818
  55.3363438  68.5515675 100.4709348  55.8778984  68.5544252  99.2115777
  55.3559737  68.8169288  99.7341296  72.9946017  61.4541710 104.0467740
  73.3756529  60.7719881 104.4335614  72.1909302  61.1651312 103.8643405
  72.9322479  61.3108758 104.0771796  70.2758594  71.9865685  94.7320563
  71.0899233  72.2780578  94.6203334  70.2117735  71.3325548  94.1578856
  70.3861333  71.9330880  94.6309400  76.4968084  74.6691682 109.1450139
  76.2606722  73.8379746 109.0262199  77.1411313  74.6177289 109.7304983
  76.5562755  74.5389369 109.2136032  66.1466502  75.4587203  99.8592875
  66.7840449  75.2198950 100.4044669  66.5721574  75.6624362  99.1246036
  66.3042669  75.4538213  99.8310032  60.8379145  77.6975539 103.7427179
  60.8783290  77.9690390 102.9146958  61.3973669  78.2217447 104.1584967
  60.9262491  77.8151294 103.6819067  66.7869317  70.6789493  94.1967764
  67.1714470  70.4597199  94.9484310  66.5380938  71.5052438  94.3268841
  66.8071390  70.7687639  94.3268841  66.9537858  63.9595908 113.9130349
  66.6391299  64.7295471 113.6499911  66.6327790  63.3966164 113.3282576
  66.8596777  63.9906176 113.7871699  77.5204505  74.4536130 105.2078433
  77.2150322  75.1864187 105.5691749  76.8010721  74.0474060 104.9271219
  77.3691847  74.5017863 105.2191570  68.5287974  75.9359625 101.5386661
  68.6026983  75.7734797 102.3928511  69.3457481  76.1249815 101.2947143
  68.6604333  75.9396368 101.6284687  83.2206297  71.0929131 104.5346777
  83.1530797  71.1125090 103.6649364  83.2061960  71.9359458 104.7602448
  83.2085054  71.2202866 104.4399254  62.2893731  76.2817488  98.5681105
  61.4631849  76.5279225  98.4415384  62.3505722  76.2029569  99.4343163
  62.1767898  76.3062437  98.6770049  64.5069755  62.3486429  99.5276545
  63.6392180  62.4209029  99.5934154  64.7944959  63.1508508  99.7164520
  64.4209503  62.4780576  99.5651312  73.6302644  62.4964289 107.8587867
  74.3756236  62.3074099 107.4451292  73.2139948  63.0222527 107.3001723
  73.6787618  62.5466434 107.7152440  67.0692560  78.8994369  96.2700135
  67.3590859  78.5083350  95.5459361  67.7996041  79.0811073  96.7105410
  67.2199444  78.8688182  96.2282942  81.0064914  69.8673517 102.8093372
  81.5572836  69.2341586 103.0490464  80.9909030  70.3988910 103.5008876
  81.0850111  69.8522465 102.9472230  67.6587305  73.7012114 107.3553265
  67.1598999  74.4127882 107.4338154  68.4687530  74.0212781 107.3171428
  67.7043412  73.8538963 107.3609834  65.0098476  80.8761751  99.3360284
  64.7898771  80.5859106 100.1286952  64.7892998  80.2176706  98.8078197
  64.9446070  80.7361459  99.3749193  63.9215423  72.9635067 101.6015986
  63.6328672  72.3372539 102.1361713  64.7898771  72.9055355 101.6680667
  64.0075675  72.8622612 101.6906941  74.7093321  68.1069851 101.9197968
  74.3658087  67.3860186 102.2705218  74.8086363  67.8983702 101.0776326
  74.6735364  67.9694054 101.8469648  67.1766431  82.2491141  98.1190977
  67.8290489  81.7167583  98.3482003  66.4792040  81.8959793  98.5058851
  67.1697149  82.1180664  98.2103145  64.1247696  74.6030319  97.5258351
  64.8793664  74.9843358  97.7393814  63.5318309  75.0541462  97.9805048
  64.1484410  74.7259146  97.6241230  75.1706350  74.5695555  97.4621956
  75.7364382  75.2288765  97.3780499  74.5234253  74.9145253  97.9338358
  75.1585106  74.7177496  97.5194713  66.5854363  66.5593159 112.6515564
  65.7754139  66.8650939 112.5405406  67.0629050  67.2798741 112.7668148
  66.5357842  66.7107760 112.6522635  65.4445923  75.7738880 102.8998467
  64.9226676  75.9139172 103.5850331  65.8319943  75.0149544 103.0900584
  65.4249624  75.6824404 103.0299543  62.4337107  65.8244689  96.9693421
  62.1461903  65.4545959  96.2325369  63.1207575  66.2939544  96.7077126
  62.4926004  65.8391658  96.8208497  71.6412928  77.5134339  96.8859035
  71.3999604  76.7802200  96.4786100  71.8214261  78.0621196  96.2325369
  71.6320552  77.4856730  96.7289258  66.8712248  72.8042899  98.2979958
  66.6755031  73.4117633  97.7040261  67.0946594  72.1110843  97.8171632
  66.8746890  72.7920424  98.1396038  65.2690779  69.6897637  98.4160826
  65.9913430  69.8538795  97.9564632  64.7898771  70.4107302  98.3100166
  65.3054509  69.8195866  98.3326440  73.2284286  66.0261436 103.7957511
  72.3895387  66.0522714 103.5595774  73.2988653  66.6732171 104.3762858
  73.1152680  66.1257561 103.8466628  62.9198395  72.0955709 107.5214966
  63.4319492  72.3739962 106.8723726  62.6334738  72.8345003 107.8877779
  62.9533258  72.2458063 107.4804844  71.6753564  62.9246813  98.5285127
  72.3779917  62.7254561  98.0505085  71.4097753  62.1522755  98.8353970
  71.7400197  62.7809779  98.5030568  77.1041810  71.2329422 101.0818753
  77.0175784  71.3884848 101.9353532  76.6492290  71.8767498 100.7078158
  77.0245067  71.3505177 101.1525859  60.0065302  66.6025901  97.8178702
  60.1081438  67.4052062  98.1459678  60.8021188  66.4013237  97.5201783
  60.1393207  66.6911800  97.8214058  66.4382121  64.1882098 107.5816007
  66.2465318  64.2037232 108.4315431  67.2880717  64.3845772 107.5582662
  66.5357843  64.2196449 107.7039302  60.8229034  66.7173079 105.5599824
  60.6814525  65.8657020 105.6844332  61.1069597  66.7601740 104.7362030
  60.8436880  66.5972829 105.4567448  70.9767626  68.5540169  99.7044312
  70.7302340  68.4735920 100.5381101  71.3052749  67.7693637  99.5106840
  70.9888870  68.4266435  99.7991835  74.8715675  75.2623529 103.4931093
  74.7330034  75.9604575 103.9979836  74.0915673  75.1072185 103.1367275
  74.7358902  75.3423695 103.5157368  73.2093760  71.5619904 109.7453475
  73.2041798  70.6899721 109.7495902  73.9154754  71.7608073 109.2722931
  73.3138764  71.4623778 109.6760511  66.9364653  71.2896888 109.1167295
  67.0808029  71.8698096 108.4810405  67.2840302  71.6673185 109.8217150
  67.0092115  71.4317592 109.1266290  69.1084571  70.4887056 106.8992427
  68.3607885  70.6818071 106.4940705  69.2626096  69.6632276 106.6616548
  69.0206998  70.3952168 106.8037833  66.0092408  79.4799660 105.9828322
  66.1581972  78.9202576 105.3301727  66.7892410  79.5591662 106.3660841
  66.1466502  79.4085225 105.9425271  76.3669048  74.6201783  94.2547593
  75.9875856  73.8338920  94.2476882  75.7035293  75.1688640  94.1119237
  76.2127522  74.5846607  94.2328390  68.5345709  79.6514303 107.2612813
  68.4589380  78.9823113 107.8163601  68.4635568  80.3532091 107.7753479
  68.5126316  79.6559210 107.4189661  69.3486348  64.3837607 107.7887831
  69.8058962  65.1161581 107.9160623  69.4242676  63.9604072 108.5475086
  69.4277318  64.4294845 107.9188907  61.5919339  64.6303427 108.8777274
  61.0561528  64.0183785 109.1938042  61.6537104  65.2051563 109.5310941
  61.5214972  64.6250355 109.0212701  73.8213674  57.5627482 101.6581674
  73.9397242  58.0203946 100.9248976  73.6475849  56.7572744 101.3717891
  73.8132845  57.5121254 101.5082607  69.1915956  78.1715302  98.0936419
  69.9565847  77.9024945  97.7719083  69.0894046  77.6865312  98.8106482
  69.2897451  78.0604866  98.1516247  67.2268726  66.3739711 104.6329655
  66.4364800  66.1931171 104.9546990  67.6229348  65.5966664 104.6159949
  67.1685602  66.2327172 104.6782203  71.7134616  75.2027485  90.0736368
  72.4807601  75.2627610  89.6642220  71.2665925  74.6307927  89.5892687
  71.7608044  75.1264061  89.9414079  72.6112412  74.0082141 102.3589101
  71.9357414  73.7767373 102.8602488  72.6204788  73.4003324 101.7331206
  72.5130916  73.8841066 102.3405253  69.7406556  68.8499970 109.1153154
  69.6765697  69.7109927 108.9873290  69.8803744  68.5331963 108.3148705
  69.7522026  68.9300137 108.9781366  74.6129146  76.8647274  94.5899279
  74.6948984  77.6714260  94.2660729  75.0978889  76.8843233  95.3140052
  74.6966304  76.9867936  94.6486177  68.4225650  71.5432110 103.2569356
  67.9987899  71.7436609 102.5208375  68.2470505  70.6960958 103.3693656
  68.3336530  71.4480891 103.1643047  67.9237343  83.0582622 105.7190814
  68.4133273  82.3593412 105.5366478  67.3521575  82.7606492 106.3066871
  67.9121873  82.9108846 105.7791855  63.7108095  72.0384161  98.6897329
  63.8672714  71.9730964  99.5453321  64.0508688  72.8132714  98.4776009
  63.7841330  72.1433359  98.7851923  70.2487239  71.4142045  97.5590692
  70.7902785  70.9112426  98.0229313  70.5633798  71.3607239  96.7480177
  70.3751636  71.3321465  97.5074504  74.1204347  75.6244692 114.6717604
  74.9339212  75.3529841 114.8322737  73.9599313  75.3252232 113.8677800
  74.2174295  75.5399618 114.5763010  68.4173689  76.8059396  94.8430720
  68.4866509  75.9473935  94.9823721  69.1962144  77.0231277  94.5149745
  68.5426539  76.7112260  94.8147878  71.3976509  66.3078349 107.6112993
  71.6118478  65.6689263 107.0576347  70.7810408  66.7524173 107.1820854
  71.3381838  66.2788493 107.4663424  72.8081177  79.2297097  99.0567214
  72.4160968  78.9263813  98.3390080  72.9634249  80.0666187  98.8672167
  72.7734766  79.3080934  98.9223711  60.2842356  69.2219111  99.0058096
  60.6641321  69.6403656  98.3418363  59.7097721  69.8032567  99.3126939
  60.2553681  69.3696970  98.9534837  73.5615597  67.9167414 108.5496300
  72.7492278  67.6093305 108.6309472  74.0205531  67.4366414 109.1139012
  73.5095981  67.8003907 108.6450894  72.9720851  75.7947086  98.9973244
  72.6135506  75.9661729  99.7737277  72.4859562  76.2560292  98.4401243
  72.8479548  75.8886057  99.0298513  70.7891237  59.4178285 102.6000335
  69.9184795  59.3917006 102.5533645  71.0431579  59.2455477 101.7826181
  70.6984797  59.3888428 102.4720472  67.7609217  71.4746252  91.5373478
  68.0501742  72.2511134  91.8117053  67.8481016  70.9634983  92.2387978
  67.8163473  71.5138170  91.6815976  70.6569104  69.3227486 113.3325002
  71.1268735  69.9469602 113.7192876  70.7030984  68.6544461 113.8918217
  70.7336980  69.3162166 113.4725074  67.8140378  61.4284513 104.0573806
  67.2978866  60.7364705 104.1825385  67.2534307  62.0955290 104.0036405
  67.6546891  61.4247771 104.0679872  69.8832611  61.9677473 105.8866658
  69.4964364  61.9926505 106.6680188  69.3965549  61.4019152 105.4341175
  69.7545120  61.8873224 105.9354562  74.1325591  76.6850982 109.9440445
  74.7705311  76.1911178 109.6102901  73.4899682  76.6128383 109.3592672
  74.1319817  76.6009991 109.8082800  75.8582591  68.5340128 104.5106361
  75.4310199  68.4466477 103.7554460  75.2208644  68.6417904 105.0961205
  75.7012198  68.5372788 104.4851802  69.5489753  58.8544459 108.1776918
  70.1782871  59.3904759 107.8997989  69.7175616  58.7621818 109.0290484
  69.6667548  58.9205821 108.2625446  69.3503668  63.6415653 110.4503330
  70.1777097  63.3700802 110.5061944  69.3711514  64.4376495 110.8067148
  69.4756518  63.7195408 110.5118513  74.1879847  77.3770790 106.5845802
  74.9772225  77.0259855 106.7047883  74.3623445  78.1907179 106.3222436
  74.3300129  77.4456648 106.5633670  63.9273158  70.7879516 103.6373591
  63.0861164  70.6883390 103.8452484  64.1363166  71.5574996 103.9887911
  63.8337850  70.8871560 103.7200905  61.4048725  68.4099053 101.4658341
  61.0105422  68.4842065 100.6908451  60.8488842  68.7956999 102.0166703
  61.2651537  68.4780828 101.4326001  73.0413671  61.3880347 101.1462220
  73.2463265  61.3202655 101.9919217  72.7140095  62.1939168 101.0783398
  73.0228919  61.4966288 101.2621875  67.7389823  68.7160915 102.8871188
  67.4352960  68.1616904 103.4881596  67.0369243  68.8953125 102.3999222
  67.5906032  68.6605698 102.9040894  66.7955920  66.0261435  97.4515890
  67.0715654  65.3080348  97.0393457  67.3954589  66.6246355  97.2436996
  66.9249184  66.0081806  97.3596651  65.8008174  75.9310636 107.5943286
  65.6928529  75.9412698 108.4605344  66.0103955  76.7565416 107.4048240
  65.8158285  76.0551711 107.6947377  76.2947359  61.9412111 100.6264986
  75.6821673  62.4282514 101.0118717  76.3911534  61.2655602 101.1702637
  76.2185257  61.9130420 100.7643844  70.2966440  63.6974953  95.7262485
  70.7510187  63.8685513  96.4510330  70.7706486  63.0843063  95.3260261
  70.4334760  63.6325838  95.7736247  63.8181966  73.1823279 105.0565223
  63.2269899  73.8232777 105.0268239  64.5802989  73.6060896 105.0296523
  63.8430226  73.3399117 105.0480371  64.2142588  64.3425276 105.7233241
  64.6744070  64.4164206 106.4608365  64.2598695  65.1406530 105.3733062
  64.2893144  64.4719423 105.7805998  65.8625938  65.0091971 110.2905268
  65.4711503  64.3625318 110.7261046  66.0311801  65.6003406 110.9099524
  65.8296848  65.0006239 110.4467974  79.9372387  73.0129048 106.0542502
  79.9955511  73.4615697 106.8002478  79.3038855  73.4227861 105.6172582
  79.8523682  73.1402783 106.0995050  73.5771482  78.6332590 102.4897248
  73.3791171  79.1223405 101.7953459  72.9559193  78.8373832 103.0681381
  73.4559046  78.7349128 102.4720471  67.6379460  70.4017487  96.8307492
  68.3821505  70.7891763  97.0690442  67.7840156  69.5574912  96.9947980
  67.7690045  70.3347960  96.8901462  69.5559036  62.1967746 101.8639354
  68.7095081  62.3690554 101.7380703  69.5530168  61.3917090 102.2005182
  69.4306186  62.1028775 101.8950481  70.6257336  65.9742960 102.7301412
  70.1517290  65.4484722 103.2406722  70.9975472  65.4272433 102.1616273
  70.6107225  65.8158957 102.7216559  61.0030366  67.9714467 108.0984957
  61.8655979  67.8710176 108.0122287  60.6722149  67.3909176 107.5370529
  61.0815563  67.8706094 108.0030363  76.8894067  71.0345336 104.1408192
  76.6492290  70.1951751 104.1450618  77.3686074  71.1145503 104.8648966
  76.9246250  70.9226736 104.2482994  72.5540836  66.8679515  95.7927165
  72.0263854  66.9508259  95.1032874  73.0136544  67.6097386  95.7891810
  72.5442686  66.9900177  95.6901860  78.8899254  67.8146793 102.0937451
  78.6509024  67.7742627 101.2558236  79.0533155  68.6617945 102.2203172
  78.8789557  67.9338878 101.9890933  75.4945284  72.1996742 108.0242496
  76.2179483  71.7469269 107.8453516  75.2295246  72.4801408 107.2414824
  75.5626557  72.1747711 107.8821212  64.3632152  66.7956916 104.7595375
  63.7385222  66.8075308 104.1521328  64.0277747  67.2717091 105.4086616
  64.2217644  66.8675433 104.7651944  61.0757828  74.8557376 106.1999140
  60.5457752  74.1649815 106.2494115  61.3482921  74.8467561 105.3711848
  61.0382550  74.7524508 106.0846556  72.1077918  75.4383078  94.9236822
  72.8312117  75.9041191  94.7801396  71.6678509  75.5056688  94.1734419
  72.1493610  75.5166915  94.7921604  71.2764073  72.2980621 106.1737511
  70.6621066  71.7538671 106.4686147  71.7931358  71.7844857 105.6943328
  71.2619736  72.1417030 106.1461740  70.5160370  73.3684891 103.9081810
  70.0887979  72.7434609 103.4747245  70.5085315  73.0859813 104.7340817
  70.4519512  73.2337671 103.9661638  63.6322898  68.4050064 106.9770244
  63.7916384  67.6493388 107.3821966  63.4515791  68.9541003 107.6310982
  63.6288257  68.3743877 107.1332950  71.5743201  60.5711299 107.5321033
  71.0783762  60.7674973 106.8412600  72.3312263  60.9703968 107.3609835
  71.6130025  60.6589033 107.4041170  68.8446080  64.2453645 104.1224344
  68.8688567  63.7113757 103.4337124  69.0957554  63.7370954 104.7849935
  68.8855999  64.0914549 104.1188989  56.3553670  71.5285140 103.5567488
  56.2497119  71.4831984 102.6919572  55.6053890  71.8738921 103.8381773
  56.2289273  71.5726048 103.4704818  65.1247402  62.9724463 103.5030088
  65.1645774  63.4733670 104.2164796  64.2997067  63.0634857 103.2336011
  65.0086928  63.0606280 103.5680627  67.3077015  72.5385203 111.6050383
  66.4572646  72.6756918 111.7408028  67.4705143  71.8048982 112.0498085
  67.2060879  72.4499305 111.6905982  66.5461766  69.4884973 105.8003987
  65.7153695  69.6558791 105.5939235  66.4913283  69.1120924 106.5852873
  66.4151181  69.4574705 105.8852515  64.3545549  62.9793866 111.4360398
  64.9798252  62.4355999 111.7089830  63.8996029  62.4988784 110.8668188
  64.3793810  62.8283347 111.3921992  64.9197810  67.7640565  96.3294105
  65.0600771  68.2613029  97.0322746  65.4180342  67.0626859  96.4708319
  65.0138891  67.7342544  96.4545684  64.9498032  68.6307676  93.6586682
  65.5843111  69.2268101  93.5936144  65.0323643  68.3311133  94.4732552
  65.0554583  68.6748584  93.7689768  77.9280598  71.1623153 106.5273046
  78.5198438  71.8020404 106.5591244  78.3639592  70.4646190 106.8165113
  78.0799029  71.1541504 106.5753879  66.5277015  64.5621651  93.6332124
  66.8492856  64.0824734  92.9791386  66.7903959  65.3721297  93.4422935
  66.6143040  64.6111549  93.5087616  69.7573988  75.5840526 107.1530940
  69.2499079  76.1376372 107.5971570  69.4600634  75.6448815 106.3349714
  69.6378873  75.6746837 107.0979397  71.9236170  63.9493845 105.9955603
  72.3491241  63.4966372 105.3839129  71.3093163  63.3953916 106.2720390
  71.8964815  63.8007821 105.9460628  61.4551020  70.8275517  96.9276228
  61.9643249  71.4240024  97.3087533  61.9285292  70.5601490  96.2452647
  61.5994396  70.8761332  96.8830751  72.3681768  79.5003783  95.0834883
  71.6511078  79.3264646  94.6182121  73.0188506  79.2656356  94.5510369
  72.3583618  79.4399576  94.9364101  70.3630393  60.4208945  99.4046180
  69.7198711  60.2706591  99.9731318  70.0229800  60.1751290  98.6395285
  70.2175470  60.3621067  99.3749195  74.9529739  68.3768372  98.8276189
  74.2820929  68.9198074  98.6989254  75.6469489  68.8463227  98.5857883
  74.9558607  68.5266643  98.7731716  69.0016473  80.5165084 104.0587947
  68.7782127  79.7583913 104.4271973  68.5126316  80.5463105 103.3368387
  68.8959922  80.4087308 104.0064688  75.1157867  64.8324255 101.7366562
  75.4685477  64.4053978 102.4112360  74.2572668  64.7475099 101.8667638
  75.0407311  64.7568996 101.8561572  63.8141552  67.4631775  99.7949408
  63.0953541  67.8795908 100.0622272  64.1853914  68.0286014  99.2441046
  63.7633483  67.6081057  99.7532215  73.1141132  68.0959624 105.6851404
  73.0939060  67.9142919 106.5386183  73.1620333  68.9671643 105.6610988
  73.1175773  68.1976162 105.8074699  71.0587462  74.6846816 111.6099881
  71.0183317  74.0396493 111.0245036  71.8710781  74.6283433 111.9225293
  71.1730616  74.5805783 111.5696830  67.6494930  80.7365542 101.5125031
  67.2355328  80.0739672 101.1228873  68.3342304  80.8843401 100.9920726
  67.6893302  80.6606200 101.3781529  71.0160224  79.8955627 102.2648648
  70.6176507  80.0057898 101.4969468  70.4011444  80.1037694 102.8475208
  70.8659113  79.9429195 102.2379947  69.5888126  66.5029775  95.1322788
  68.9952965  66.8246772  94.5807355  69.6263404  65.6570870  94.9243894
  69.5062515  66.4254103  95.0205559  76.5481927  59.9542667 102.6650874
  76.0412791  59.2471807 102.5972052  77.3449360  59.6235856 102.7951951
  76.5909166  59.8015819 102.6749869  72.4645943  66.4609280  98.5624538
  72.2359636  66.4841981  97.7202896  72.7244019  65.6366747  98.6819549
  72.4692131  66.3425359  98.4549736  66.7465171  68.3143753 108.1649638
  66.2344074  67.7064936 108.5234670  66.5744667  69.0300345 108.6323614
  66.6454808  68.3307052 108.2865862  61.5930886  66.7581328 110.8152000
  61.4233476  67.4182703 110.2700207  61.1496836  66.9687889 111.5364489
  61.5030219  66.8867310 110.8413629  65.5190705  64.9985826  99.8578734
  65.9948071  65.3602906  99.2228915  65.0179305  65.6542293 100.1378876
  65.5156064  65.1480015  99.8055475  78.7502067  74.4707594  95.6491739
  79.1335672  75.2198950  95.8789836  77.9546180  74.7173414  95.3903728
  78.6895849  74.6177288  95.6449312  70.6234241  66.2367997 110.6051894
  71.1805671  66.0081807 109.9730359  70.2995306  66.9973663 110.3287106
  70.6580651  66.3151834 110.4708391  58.4932950  69.6628193 106.0740490
  57.9459670  68.9928839 106.1921358  59.2825328  69.2958041 106.1383957
  58.5285134  69.5093180 106.1009190  68.3417359  69.3235651 111.5703901
  69.0928686  69.6387327 111.8843455  68.5339935  69.1214821 110.7437823
  68.4808773  69.3403032 111.4947297  67.5617358  67.1427026  93.2252118
  67.9416323  67.1606655  92.4403232  66.8209954  67.5881014  93.1042965
  67.5086196  67.2108800  93.0915686  75.1902649  65.4509217  98.8127696
  75.1896875  65.2957873  99.6711973  74.9858829  66.2972204  98.7569082
  75.1602427  65.5529838  98.9315636  57.2519920  68.8749001 103.2286513
  57.0741681  68.4225610 103.9541428  56.9638942  69.6775163 103.4124990
  57.1832873  68.9271559 103.3630016  72.9143501  70.1306719 102.4663903
  73.4097166  69.4129714 102.4267923  72.1043277  69.8277516 102.3518390
  72.8687394  69.9804365 102.4437629  68.3602112  73.9804532  94.6160908
  67.5513435  73.6571205  94.5694217  68.8677021  73.2737754  94.5489156
  68.3151779  73.8285848  94.5991202  58.9892390  71.4076725 100.3408272
  58.1237909  71.3962415 100.2291043  59.0891205  71.2206948 101.1879411
  58.8766557  71.3782786 100.4497216  74.9795320  72.8810406 105.1541032
  75.4050391  72.3584828 104.6011457  74.6152239  73.4791244 104.6329655
  74.9881922  72.8920633 104.9950042  64.6149399  81.1774624 103.9138377
  64.9295958  81.9911012 103.9216159  65.0242813  80.7924842 104.5820537
  64.7217497  81.2403326 104.0142469  71.5673919  76.5944670 101.4842189
  72.0385097  77.3084933 101.6532175  71.9034098  75.9943421 102.0202059
  71.6869034  76.6116135 101.5874565  73.6550904  78.2045984 113.6634261
  73.7647869  77.4154544 114.0191009  73.9841800  78.1151920 112.8608600
  73.7203309  78.0751837 113.5976652  68.4843414  61.3672141 108.4400284
  68.6171320  60.5703134 108.7681260  68.8688567  61.8938544 109.0198560
  68.5599743  61.3272058 108.5743787  72.2047865  76.3862605 108.2469882
  71.6568811  75.7620488 107.9789947  72.6660894  76.5756877 107.5313961
  72.1915075  76.3221655 108.1020313  71.5575769  58.2902467 105.0381377
  70.7521733  58.1800197 105.3549216  71.4282505  58.3914923 104.1811243
  71.4195902  58.2886137 104.9589418  75.0141730  64.4547959 105.6321074
  74.4304719  64.9557166 105.2198642  75.3346024  63.9477515 104.9985398
  74.9754905  64.4539794 105.4779582  67.5536529  63.3688554  95.9079749
  68.3752223  63.5386867  95.6661444  67.0906180  63.5235815  95.1846047
  67.6067691  63.4170287  95.7651393  66.1431861  61.3631316 106.6878178
  66.6876274  61.0222443 107.2782520  66.1968797  62.2216778 106.8299463
  66.2320980  61.4386575 106.7960051  61.9562420  75.1247732 103.5616986
  62.5607277  75.0843566 102.9330807  61.7489732  75.9718884 103.5921042
  62.0151317  75.2435735 103.4733102  71.7706192  77.3913677 104.7779223
  72.5904566  77.2476643 105.0395518  71.4900269  78.0159876 105.3195661
  71.8502935  77.4624029 104.8967163  57.1913702  74.1082350 103.4315909
  57.0937980  73.2978621 103.7405966  57.9742572  74.0874143 103.0462177
  57.2929838  73.9849440 103.4202772  88.2419842  85.0478529  97.7422100
  88.2113846  85.9023166  97.9140369  88.8401191  84.7473822  98.3008243
  88.3257000  85.1295025  97.8496902  81.4419527  84.1354180 102.4975030
  80.5857422  84.2962678 102.5484147  81.4887181  83.2646244 102.5180091
  81.3218638  84.0304982 102.5081096  75.8260667  93.6716898  98.2612262
  75.0743566  93.2932436  98.0328307  76.2746678  93.7035331  97.5131072
  75.7810333  93.6202505  98.1169764  84.7513243  90.4040706 112.1035486
  85.4580011  89.9092736 112.2322421  84.9401179  90.8449787 111.3738144
  84.8841149  90.3959056 112.0144532  81.2785627  94.0942267  93.6897809
  80.9436995  94.7719189  93.2542031  81.7912497  93.7047579  93.1014680
  81.3051208  94.1366846  93.5384600  80.8189918  96.0456536  99.6308920
  81.2029297  96.6143435  99.0913696  80.7549059  95.3206046  99.1514736
  80.8663345  96.0231999  99.4802783  84.2871348  86.1946224 105.1406682
  84.8327308  86.8731310 105.2000651  84.2288224  86.0533685 104.2808263
  84.3587262  86.2738226 105.0218742  77.4045423  93.6835290 100.5275034
  77.5055786  92.8735644 100.8372162  76.8087168  93.5892236  99.8974713
  77.3317961  93.5500318 100.4801273  86.0636417  87.6230831  96.0140409
  85.9475943  88.3738517  96.4432548  86.8592303  87.3654784  96.2636496
  86.1641006  87.6965678  96.1144501  77.2446162  98.6012879 101.9289890
  77.8883618  99.0426043 102.3186049  77.5702418  97.7966305 101.8420149
  77.3877991  98.5478074 101.9735367  70.6010467  89.7055577 100.1527368
  70.3660652  88.8723229 100.0459637  70.7396108  89.9860242  99.3388569
  70.5866130  89.6239080 100.0169723  72.9000555  81.8741307 103.0511675
  72.2805586  81.2833954 102.8821690  72.7984418  82.4652742 102.4175999
  72.7938230  81.8745390 102.9316665  77.9466742  91.6124854  97.3009752
  78.2682583  92.1530061  96.6971060  78.5938839  91.0421625  97.4332042
  78.0892797  91.6084029  97.2316787  79.9968450  83.6140849  97.3844139
  80.6948615  83.7928976  97.8765602  80.3120783  83.0911188  96.7614528
  80.1463787  83.5634621  97.3646149  72.6269688  85.4193589 105.2955244
  72.5028384  86.0056034 105.9305063  73.2787972  84.9253785 105.5967519
  72.7043337  85.4332393 105.4341174  80.1856386  90.0011294  97.3723930
  80.6250021  89.3928394  97.8178703  80.0361048  89.6218667  96.6009395
  80.2277851  89.8549765  97.3243097  77.6528029  88.5955306 104.5742756
  78.2977031  88.1027749 104.2553704  77.8929806  88.7380092 105.4008834
  77.7838614  88.5432748 104.6492289  80.1914120  91.4410212 104.2249648
  80.4737363  90.6461617 104.0036404  80.9200280  91.9190799 104.2454709
  80.3403684  91.3944809 104.1952663  78.1695314  78.9833246 101.4665413
  77.8398644  79.4344389 100.7969112  77.4940316  78.9049409 102.0138420
  78.0205750  79.0384381 101.4488636  83.7865722  88.3538475  94.3254699
  83.7017017  89.2099442  94.4704268  84.2750105  88.0782799  94.9936858
  83.8454619  88.4395797  94.4456781  85.3771722  74.9718768  99.7115024
  85.0625163  75.6622247 100.1435446  84.8598663  74.9163551  99.0100525
  85.2536192  75.0653657  99.6711973  84.7184155  84.9723269  95.8252434
  84.1895627  85.1882903  96.4849741  85.2409175  85.6659408  95.7453404
  84.7172608  85.1066406  95.9108034  90.1732208  90.5469574 101.1985479
  89.3429911  90.7580218 101.3618895  90.1241461  89.7206628 100.9227762
  90.0438944  90.4559180 101.1822844  76.6083763  88.8686486  94.6259902
  76.0240978  89.3736518  95.0325766  76.2053858  88.6428873  93.8856494
  76.4623067  88.9094734  94.5764928  72.1627792  94.5841247 101.4283574
  71.6795370  95.3091737 101.4043158  72.9751110  94.8817377 101.5393732
  72.2118540  94.7343601 101.4410853  78.2341946  93.3773428 104.0333388
  77.7168887  93.0180843 103.4294696  78.9316337  92.8535602 104.0439454
  78.2607527  93.2471116 103.9463647  81.8905538  93.8268242 109.9949561
  81.9788884  93.6394383 110.8427772  82.3195250  93.1805672 109.5954408
  81.9667640  93.7031250 110.0621313  79.4575998  93.1099402 108.9767224
  78.8946832  92.6972012 109.5006885  80.2197021  93.0352308 109.3960367
  79.4870446  93.0376803 109.1160224  81.0660978  85.1152138  93.1028823
  81.3056981  85.3230122  92.2904166  81.3876819  84.3109647  93.2117767
  81.1498135  85.0266239  92.9989376  76.3751268  77.0445534  96.9488361
  77.1297236  77.4123851  96.7105411  76.1978802  77.4185088  97.7167540
  76.4605746  77.1543722  97.0273249  75.0171989  95.0997423 101.5803854
  75.7192568  94.5849412 101.6376610  74.9369472  95.4271575 102.3850729
  75.1095749  95.0711649 101.7076646  89.6686167  83.1939975 104.9935900
  88.8314588  83.2642162 105.2283495  89.6374398  83.1964469 104.1210203
  89.5404449  83.2050202 104.8995448  76.0650896  85.3373010 110.7084269
  76.2371399  85.2278905 111.5569550  76.6020253  85.9827416 110.4715461
  76.1695900  85.4165012 110.7989366  74.7308332  79.4515853  93.6466474
  74.5483906  79.6687734  92.8207467  75.5933946  79.5654866  93.7025088
  74.8312922  79.5005751  93.5320961  74.3422764  91.2903775 101.0889462
  75.1811664  91.5226708 101.1363223  74.3734534  90.4208087 101.0196497
  74.4704482  91.1960722 101.0854106  74.9675467  91.7104650 105.3902767
  75.5073692  91.5675781 106.0606140  74.2845414  92.1101401 105.7586794
  74.9467621  91.7484321 105.5437189  80.4108052  76.4542264  96.6815498
  81.1394212  76.2758219  96.2353654  80.5002945  77.2960343  96.8922676
  80.5314714  76.5526142  96.6469015  84.3916352  87.3895651 100.5847792
  85.1473867  87.8227165 100.6236700  84.4978677  86.7400421 101.1582428
  84.5186523  87.3573135 100.6745817  87.4296523  91.2168928 101.3350195
  86.9931755  91.2205671 102.0909166  87.0959439  91.8974427 100.9029772
  87.3159143  91.3181384 101.3831027  82.0025597  93.2577261 112.6593345
  82.7866014  93.3708109 113.0249087  81.8022192  92.4318398 112.8552031
  82.0891622  93.1523981 112.7427731  70.3712613  87.9304941 105.5437189
  70.1051028  87.1144058 105.7028179  70.3851177  87.9758097 104.6732704
  70.3337335  87.8161846 105.4390671  87.3494006  78.2582756 103.5779623
  87.9919915  78.3280861 104.1641538  87.6017027  77.5911979 103.0759165
  87.4816139  78.1709105 103.5906902  74.2770360  82.7290026  92.1588947
  73.5628537  82.4428205  92.5711379  74.7614328  83.0686651  92.7995334
  74.2429723  82.7371675  92.3144582  75.1211219  81.4683320 108.1904197
  74.4283016  80.9980299 108.4364928  75.7371546  81.2421624 108.7645904
  75.1095749  81.3650451 108.3113349  82.1595990  95.1687363 106.3059801
  81.3611236  94.9286863 106.5633669  82.6082002  95.2201756 107.0526848
  82.1070602  95.1409754 106.4544725  90.5640870  87.9349848 100.2269832
  91.2257304  87.3740517 100.1265740  89.9232282  87.4401879 100.5522523
  90.5669737  87.7786257 100.2602172  81.4517677  91.2319980  92.5350755
  81.8668826  90.9005003  91.8435251  80.6209607  90.9988882  92.4070892
  81.3905686  91.1491236  92.4141603  70.7806026  88.7163721 102.8248933
  70.5981599  88.6910607 101.9721225  71.5155695  89.1862658 102.8637842
  70.8620090  88.7825083 102.7046852  86.8505700  88.9515231  99.9681821
  87.0861290  89.0960429  99.1408671  86.9995264  89.7157639 100.3613334
  86.9071504  89.0854285  99.9045425  73.8451778  85.4348723 109.3331042
  74.5691750  85.4201754 109.8195936  73.9467914  86.1444079 108.8353010
  73.9669987  85.5373427 109.3309829  88.6796157  87.7916897  97.8051424
  89.0104374  88.3244537  97.1991519  89.2529245  87.8455784  98.4613375
  88.8129836  87.8786465  97.8129206  81.2196727  88.9147808 114.1979989
  80.4269708  89.2291320 114.3832608  81.3345654  89.1299277 113.3600773
  81.1192138  88.9931645 114.1018324  83.8928046  85.6381799  98.4875005
  83.9874901  86.3771093  98.9414630  83.2686890  85.2099275  98.9209569
  83.8137076  85.6843120  98.6183152  82.1480520  88.8168012 109.1365285
  82.7219382  88.1795256 109.2913849  82.0695324  88.8172094 108.2674943
  82.2213755  88.7233123 109.0311696  70.7476937  85.5957221 102.9748000
  71.3250439  85.4593672 103.6140245  70.0490998  85.1393005 103.2293584
  70.7297958  85.5079488 103.1070289  84.1451068  87.4830539  91.7211957
  84.0631230  87.5532726  92.5866944  84.7830788  88.0460283  91.5295697
  84.2270905  87.5769510  91.8201906  77.5044239  87.2491277 101.1886483
  77.2463483  86.4163012 101.1617782  77.5592722  87.4748890 100.3478983
  77.4744017  87.1589048 101.0606620  82.5845289  79.3519728 101.2890576
  81.8801616  78.8628913 101.4474495  82.6330263  79.3642202 100.4179020
  82.4875340  79.2809376 101.1829915  76.4778951  84.8029039 101.6751378
  75.9028542  84.9621208 102.3115339  76.1014627  84.1664449 101.2119828
  76.3381763  84.7326852 101.7005936  80.1452240  83.2752389 106.5343756
  79.7566672  82.8506606 105.8795947  79.4806938  83.5234538 107.0420783
  79.9899167  83.2491110 106.5131624  89.7875509  83.0327393  99.3091586
  89.5312073  82.2207335  99.1189469  90.6304823  83.0404961  99.0821773
  89.8741534  82.9139391  99.2476403  66.2235770  84.4469114  99.6895818
  66.3096022  84.0700983 100.4709348  66.8511567  84.0729560  99.2115777
  66.3292321  84.3354596  99.7341296  83.9678601  76.9727017 104.0467740
  84.3489113  76.2905189 104.4335614  83.1641885  76.6836620 103.8643405
  83.9055063  76.8294066 104.0771796  81.2491178  87.5050993  94.7320563
  82.0631817  87.7965886  94.6203334  81.1850319  86.8510856  94.1578856
  81.3593917  87.4516188  94.6309400  87.4700668  90.1876989 109.1450139
  87.2339305  89.3565054 109.0262199  88.1143897  90.1362597 109.7304983
  87.5295339  90.0574677 109.2136032  77.1199086  90.9772511  99.8592875
  77.7573033  90.7384258 100.4044669  77.5454158  91.1809670  99.1246036
  77.2775252  90.9723521  99.8310032  71.8111728  93.2160847 103.7427179
  71.8515874  93.4875698 102.9146958  72.3706252  93.7402755 104.1584967
  71.8995074  93.3336602 103.6819067  77.7601901  86.1974801  94.1967764
  78.1447054  85.9782507  94.9484310  77.5113521  87.0237746  94.3268841
  77.7803974  86.2872947  94.3268841  77.9270441  79.4781216 113.9130349
  77.6123883  80.2480778 113.6499911  77.6060374  78.9151472 113.3282576
  77.8329361  79.5091484 113.7871699  88.4937089  89.9721438 105.2078433
  88.1882906  90.7049495 105.5691749  87.7743304  89.5659368 104.9271219
  88.3424431  90.0203171 105.2191570  79.5020558  91.4544933 101.5386661
  79.5759566  91.2920105 102.3928511  80.3190064  91.6435123 101.2947143
  79.6336917  91.4581676 101.6284687  94.1938881  86.6114439 104.5346777
  94.1263381  86.6310398 103.6649364  94.1794543  87.4544766 104.7602448
  94.1817637  86.7388174 104.4399254  73.2626315  91.8002796  98.5681105
  72.4364432  92.0464533  98.4415384  73.3238306  91.7214877  99.4343163
  73.1500482  91.8247745  98.6770049  75.4802338  77.8671737  99.5276545
  74.6124764  77.9394337  99.5934154  75.7677543  78.6693816  99.7164520
  75.3942087  77.9965884  99.5651312  84.6035227  78.0149597 107.8587867
  85.3488819  77.8259407 107.4451292  84.1872532  78.5407835 107.3001723
  84.6520201  78.0651742 107.7152440  78.0425144  94.4179676  96.2700135
  78.3323442  94.0268658  95.5459361  78.7728625  94.5996381  96.7105410
  78.1932028  94.3873490  96.2282942  91.9797498  85.3858825 102.8093372
  92.5305420  84.7526894 103.0490464  91.9641613  85.9174218 103.5008876
  92.0582694  85.3707773 102.9472230  78.6319889  89.2197422 107.3553265
  78.1331583  89.9313190 107.4338154  79.4420113  89.5398089 107.3171428
  78.6775996  89.3724271 107.3609834  75.9831059  96.3947059  99.3360284
  75.7631355  96.1044414 100.1286952  75.7625581  95.7362014  98.8078197
  75.9178653  96.2546767  99.3749193  74.8948007  88.4820375 101.6015986
  74.6061255  87.8557847 102.1361713  75.7631355  88.4240663 101.6680667
  74.9808258  88.3807920 101.6906941  85.6825904  83.6255159 101.9197968
  85.3390670  82.9045494 102.2705218  85.7818947  83.4169010 101.0776326
  85.6467947  83.4879362 101.8469648  78.1499015  97.7676449  98.1190977
  78.8023073  97.2352891  98.3482003  77.4524624  97.4145101  98.5058851
  78.1429733  97.6365972  98.2103145  75.0980280  90.1215626  97.5258351
  75.8526248  90.5028665  97.7393814  74.5050893  90.5726770  97.9805048
  75.1216993  90.2444454  97.6241230  86.1438933  90.0880863  97.4621956
  86.7096966  90.7474073  97.3780499  85.4966837  90.4330561  97.9338358
  86.1317690  90.2362804  97.5194713  77.5586947  82.0778467 112.6515564
  76.7486723  82.3836246 112.5405406  78.0361634  82.7984049 112.7668148
  77.5090426  82.2293068 112.6522635  76.4178506  91.2924188 102.8998467
  75.8959260  91.4324479 103.5850331  76.8052527  90.5334852 103.0900584
  76.3982207  91.2009712 103.0299543  73.4069691  81.3429996  96.9693421
  73.1194486  80.9731267  96.2325369  74.0940159  81.8124852  96.7077126
  73.4658588  81.3576966  96.8208497  82.6145511  93.0319647  96.8859035
  82.3732187  92.2987508  96.4786100  82.7946844  93.5806504  96.2325369
  82.6053135  93.0042038  96.7289258  77.8444832  88.3228207  98.2979958
  77.6487615  88.9302941  97.7040261  78.0679178  87.6296151  97.8171632
  77.8479473  88.3105732  98.1396038  76.2423362  85.2082945  98.4160826
  76.9646014  85.3724103  97.9564632  75.7631355  85.9292610  98.3100166
  76.2787093  85.3381174  98.3326440  84.2016870  81.5446744 103.7957511
  83.3627970  81.5708022 103.5595774  84.2721237  82.1917479 104.3762858
  84.0885263  81.6442869 103.8466628  73.8930979  87.6141017 107.5214966
  74.4052076  87.8925270 106.8723726  73.6067321  88.3530311 107.8877779
  73.9265842  87.7643371 107.4804844  82.6486148  78.4432121  98.5285127
  83.3512501  78.2439869  98.0505085  82.3830337  77.6708063  98.8353970
  82.7132780  78.2995087  98.5030568  88.0774394  86.7514730 101.0818753
  87.9908368  86.9070156 101.9353532  87.6224873  87.3952806 100.7078158
  87.9977650  86.8690485 101.1525859  70.9797885  82.1211209  97.8178702
  71.0814022  82.9237370  98.1459678  71.7753772  81.9198545  97.5201783
  71.1125791  82.2097108  97.8214058  77.4114704  79.7067406 107.5816007
  77.2197901  79.7222540 108.4315431  78.2613300  79.9031080 107.5582662
  77.5090426  79.7381757 107.7039302  71.7961617  82.2358387 105.5599824
  71.6547109  81.3842328 105.6844332  72.0802181  82.2787048 104.7362030
  71.8169463  82.1158137 105.4567448  81.9500210  84.0725477  99.7044312
  81.7034924  83.9921228 100.5381101  82.2785333  83.2878945  99.5106840
  81.9621453  83.9451743  99.7991835  85.8448258  90.7808837 103.4931093
  85.7062618  91.4789883 103.9979836  85.0648256  90.6257493 103.1367275
  85.7091485  90.8609003 103.5157368  84.1826344  87.0805212 109.7453475
  84.1774382  86.2085029 109.7495902  84.8887337  87.2793381 109.2722931
  84.2871348  86.9809086 109.6760511  77.9097237  86.8082196 109.1167295
  78.0540613  87.3883404 108.4810405  78.2572885  87.1858493 109.8217150
  77.9824698  86.9502900 109.1266290  80.0817154  86.0072364 106.8992427
  79.3340468  86.2003379 106.4940705  80.2358679  85.1817584 106.6616548
  79.9939582  85.9137476 106.8037833  76.9824992  94.9984968 105.9828322
  77.1314556  94.4387884 105.3301727  77.7624994  95.0776969 106.3660841
  77.1199085  94.9270533 105.9425271  87.3401631  90.1387090  94.2547593
  86.9608440  89.3524228  94.2476882  86.6767877  90.6873948  94.1119237
  87.1860106  90.1031914  94.2328390  79.5078292  95.1699611 107.2612813
  79.4321964  94.5008421 107.8163601  79.4368152  95.8717399 107.7753479
  79.4858899  95.1744518 107.4189661  80.3218931  79.9022915 107.7887831
  80.7791545  80.6346889 107.9160623  80.3975260  79.4789380 108.5475086
  80.4009901  79.9480153 107.9188907  72.5651922  80.1488735 108.8777274
  72.0294112  79.5369093 109.1938042  72.6269687  80.7236871 109.5310941
  72.4947555  80.1435663 109.0212701  84.7946257  73.0812790 101.6581674
  84.9129825  73.5389254 100.9248976  84.6208433  72.2758051 101.3717891
  84.7865428  73.0306562 101.5082607  80.1648539  93.6900610  98.0936419
  80.9298431  93.4210253  97.7719083  80.0626629  93.2050620  98.8106482
  80.2630035  93.5790174  98.1516247  78.2001309  81.8925019 104.6329655
  77.4097384  81.7116479 104.9546990  78.5961932  81.1151972 104.6159949
  78.1418185  81.7512480 104.6782203  82.6867200  90.7212793  90.0736368
  83.4540185  90.7812918  89.6642220  82.2398509  90.1493235  89.5892687
  82.7340627  90.6449369  89.9414079  83.5844995  89.5267449 102.3589101
  82.9089997  89.2952681 102.8602488  83.5937372  88.9188632 101.7331206
  83.4863500  89.4026374 102.3405253  80.7139139  84.3685278 109.1153154
  80.6498281  85.2295235 108.9873290  80.8536327  84.0517271 108.3148705
  80.7254609  84.4485445 108.9781366  85.5861730  92.3832582  94.5899279
  85.6681567  93.1899568  94.2660729  86.0711472  92.4028541  95.3140052
  85.6698888  92.5053244  94.6486177  79.3958233  87.0617417 103.2569356
  78.9720482  87.2621917 102.5208375  79.2203089  86.2146265 103.3693656
  79.3069114  86.9666199 103.1643047  78.8969927  98.5767930 105.7190814
  79.3865857  97.8778720 105.5366478  78.3254159  98.2791800 106.3066871
  78.8854457  98.4294154 105.7791855  74.6840678  87.5569469  98.6897329
  74.8405297  87.4916272  99.5453321  75.0241271  88.3318021  98.4776009
  74.7573913  87.6618667  98.7851923  81.2219823  86.9327352  97.5590692
  81.7635368  86.4297734  98.0229313  81.5366382  86.8792547  96.7480177
  81.3484220  86.8506773  97.5074504  79.3906273  92.3244704  94.8430720
  79.4599093  91.4659242  94.9823721  80.1694728  92.5416585  94.5149745
  79.5159123  92.2297568  94.8147878  82.3709092  81.8263657 107.6112993
  82.5851062  81.1874571 107.0576347  81.7542991  82.2709481 107.1820854
  82.3114422  81.7973801 107.4663424  83.7813760  94.7482405  99.0567214
  83.3893552  94.4449120  98.3390080  83.9366832  95.5851495  98.8672167
  83.7467350  94.8266242  98.9223711  71.2574940  84.7404419  99.0058096
  71.6373905  85.1588964  98.3418363  70.6830305  85.3217875  99.3126939
  71.2286265  84.8882278  98.9534837  84.5348180  83.4352722 108.5496300
  83.7224862  83.1278613 108.6309472  84.9938115  82.9551722 109.1139012
  84.4828565  83.3189215 108.6450894  83.9453435  91.3132394  98.9973244
  83.5868090  91.4847037  99.7737277  83.4592146  91.7745600  98.4401243
  83.8212132  91.4071365  99.0298513  81.7623821  74.9363593 102.6000335
  80.8917379  74.9102314 102.5533645  82.0164162  74.7640785 101.7826181
  81.6717381  74.9073736 102.4720472  78.7341800  86.9931560  91.5373478
  79.0234325  87.7696442  91.8117053  78.8213599  86.4820291  92.2387978
  78.7896057  87.0323478  91.6815976  81.6301688  84.8412794 113.3325002
  82.1001319  85.4654910 113.7192876  81.6763568  84.1729769 113.8918217
  81.7069564  84.8347474 113.4725074  78.7872961  76.9469821 104.0573806
  78.2711450  76.2550013 104.1825385  78.2266890  77.6140598 104.0036405
  78.6279475  76.9433079 104.0679872  80.8565195  77.4862781 105.8866658
  80.4696948  77.5111813 106.6680188  80.3698132  76.9204460 105.4341175
  80.7277704  77.4058532 105.9354562  85.1058174  92.2036290 109.9440445
  85.7437895  91.7096486 109.6102901  84.4632266  92.1313691 109.3592672
  85.1052401  92.1195299 109.8082800  86.8315174  84.0525436 104.5106361
  86.4042782  83.9651785 103.7554460  86.1941227  84.1603212 105.0961205
  86.6744782  84.0558096 104.4851802  80.5222337  74.3729767 108.1776918
  81.1515455  74.9090067 107.8997989  80.6908199  74.2807126 109.0290484
  80.6400131  74.4391129 108.2625446  80.3236251  79.1600961 110.4503330
  81.1509681  78.8886110 110.5061944  80.3444098  79.9561803 110.8067148
  80.4489102  79.2380716 110.5118513  85.1612431  92.8956098 106.5845802
  85.9504809  92.5445163 106.7047883  85.3356029  93.7092487 106.3222436
  85.3032713  92.9641956 106.5633670  74.9005741  86.3064824 103.6373591
  74.0593748  86.2068698 103.8452484  75.1095749  87.0760304 103.9887911
  74.8070434  86.4056867 103.7200905  72.3781308  83.9284361 101.4658341
  71.9838006  84.0027373 100.6908451  71.8221425  84.3142307 102.0166703
  72.2384121  83.9966136 101.4326001  84.0146255  76.9065655 101.1462220
  84.2195848  76.8387963 101.9919217  83.6872679  77.7124476 101.0783398
  83.9961503  77.0151596 101.2621875  78.7122406  84.2346223 102.8871188
  78.4085544  83.6802212 103.4881596  78.0101827  84.4138433 102.3999222
  78.5638616  84.1791006 102.9040894  77.7688503  81.5446743  97.4515890
  78.0448238  80.8265656  97.0393457  78.3687173  82.1431663  97.2436996
  77.8981768  81.5267114  97.3596651  76.7740757  91.4495944 107.5943286
  76.6661112  91.4598006 108.4605344  76.9836539  92.2750724 107.4048240
  76.7890868  91.5737019 107.6947377  87.2679943  77.4597419 100.6264986
  86.6554256  77.9467821 101.0118717  87.3644118  76.7840910 101.1702637
  87.1917840  77.4315728 100.7643844  81.2699024  79.2160260  95.7262485
  81.7242770  79.3870821  96.4510330  81.7439070  78.6028371  95.3260261
  81.4067344  79.1511146  95.7736247  74.7914549  88.7008586 105.0565223
  74.2002482  89.3418085 105.0268239  75.5535573  89.1246204 105.0296523
  74.8162810  88.8584425 105.0480371  75.1875172  79.8610584 105.7233241
  75.6476654  79.9349514 106.4608365  75.2331279  80.6591838 105.3733062
  75.2625727  79.9904731 105.7805998  76.8358522  80.5277279 110.2905268
  76.4444087  79.8810626 110.7261046  77.0044384  81.1188714 110.9099524
  76.8029432  80.5191547 110.4467974  90.9104971  88.5314356 106.0542502
  90.9688094  88.9801005 106.8002478  90.2771438  88.9413169 105.6172582
  90.8256266  88.6588091 106.0995050  84.5504065  94.1517898 102.4897248
  84.3523754  94.6408712 101.7953459  83.9291776  94.3559139 103.0681381
  84.4291630  94.2534436 102.4720471  78.6112044  85.9202795  96.8307492
  79.3554089  86.3077071  97.0690442  78.7572740  85.0760220  96.9947980
  78.7422629  85.8533268  96.8901462  80.5291619  77.7153054 101.8639354
  79.6827664  77.8875862 101.7380703  80.5262752  76.9102397 102.2005182
  80.4038769  77.6214083 101.8950481  81.5989920  81.4928268 102.7301412
  81.1249874  80.9670030 103.2406722  81.9708055  80.9457741 102.1616273
  81.5839809  81.3344265 102.7216559  71.9762950  83.4899775 108.0984957
  72.8388563  83.3895484 108.0122287  71.6454733  82.9094484 107.5370529
  72.0548146  83.3891402 108.0030363  87.8626650  86.5530644 104.1408192
  87.6224873  85.7137059 104.1450618  88.3418657  86.6330811 104.8648966
  87.8978834  86.4412043 104.2482994  83.5273419  82.3864823  95.7927165
  82.9996438  82.4693567  95.1032874  83.9869127  83.1282694  95.7891810
  83.5175270  82.5085485  95.6901860  89.8631837  83.3332101 102.0937451
  89.6241607  83.2927935 101.2558236  90.0265738  84.1803253 102.2203172
  89.8522141  83.4524186 101.9890933  86.4677867  87.7182050 108.0242496
  87.1912066  87.2654577 107.8453516  86.2027830  87.9986716 107.2414824
  86.5359141  87.6933019 107.8821212  75.3364736  82.3142224 104.7595375
  74.7117806  82.3260616 104.1521328  75.0010331  82.7902399 105.4086616
  75.1950228  82.3860741 104.7651944  75.5206484  80.6567342  90.8168061
  75.1719289  81.3087068  91.2799610  75.0402930  80.6424455  90.0891932
  75.3976728  80.7510396  90.7779152  72.0490411  90.3742684 106.1999140
  71.5190336  89.6835123 106.2494115  72.3215505  90.3652869 105.3711848
  72.0115134  90.2709816 106.0846556  83.0810502  90.9568386  94.9236822
  83.8044701  91.4226499  94.7801396  82.6411093  91.0241996  94.1734419
  83.1226194  91.0352223  94.7921604  82.2496657  87.8165929 106.1737511
  81.6353650  87.2723979 106.4686147  82.7663942  87.3030165 105.6943328
  82.2352319  87.6602338 106.1461740  81.4892954  88.8870199 103.9081810
  81.0620562  88.2619917 103.4747245  81.4817898  88.6045120 104.7340817
  81.4252095  88.7522979 103.9661638  74.6055481  83.9235372 106.9770244
  74.7648968  83.1678696 107.3821966  74.4248375  84.4726311 107.6310982
  74.6020840  83.8929185 107.1332950  82.5475784  76.0896607 107.5321033
  82.0516345  76.2860281 106.8412600  83.3044846  76.4889275 107.3609835
  82.5862609  76.1774341 107.4041170  79.8178664  79.7638953 104.1224344
  79.8421151  79.2299065 103.4337124  80.0690137  79.2556262 104.7849935
  79.8588582  79.6099857 104.1188989  67.3286254  87.0470448 103.5567488
  67.2229703  87.0017292 102.6919572  66.5786474  87.3924229 103.8381773
  67.2021856  87.0911356 103.4704818  76.0979986  78.4909771 103.5030088
  76.1378358  78.9918978 104.2164796  75.2729651  78.5820165 103.2336011
  75.9819512  78.5791588 103.5680627  78.2809599  88.0570511 111.6050383
  77.4305229  88.1942226 111.7408028  78.4437727  87.3234290 112.0498085
  78.1793462  87.9684613 111.6905982  77.5194349  85.0070281 105.8003987
  76.6886279  85.1744099 105.5939235  77.4645867  84.6306232 106.5852873
  77.3883764  84.9760012 105.8852515  75.3278133  78.4979174 111.4360398
  75.9530836  77.9541307 111.7089830  74.8728613  78.0174092 110.8668188
  75.3526393  78.3468655 111.3921992  75.8930393  83.2825873  96.3294105
  76.0333354  83.7798337  97.0322746  76.3912926  82.5812167  96.4708319
  75.9871474  83.2527851  96.4545684  75.9230616  84.1492984  93.6586682
  76.5575695  84.7453409  93.5936144  76.0056226  83.8496441  94.4732552
  76.0287167  84.1933892  93.7689768  88.9013181  86.6808461 106.5273046
  89.4931022  87.3205712 106.5591244  89.3372176  85.9831498 106.8165113
  89.0531613  86.6726811 106.5753879  77.5009598  80.0806959  93.6332124
  77.8225439  79.6010042  92.9791386  77.7636542  80.8906605  93.4422935
  77.5875624  80.1296857  93.5087616  80.7306571  91.1025833 107.1530940
  80.2231662  91.6561680 107.5971570  80.4333217  91.1634123 106.3349714
  80.6111456  91.1932145 107.0979397  82.8968753  79.4679153 105.9955603
  83.3223825  79.0151680 105.3839129  82.2825747  78.9139224 106.2720390
  82.8697399  79.3193129 105.9460628  72.4283603  86.3460824  96.9276228
  72.9375833  86.9425332  97.3087533  72.9017876  86.0786798  96.2452647
  72.5726979  86.3946640  96.8830751  83.3414352  95.0189091  95.0834883
  82.6243661  94.8449953  94.6182121  83.9921089  94.7841663  94.5510369
  83.3316202  94.9584884  94.9364101  81.3362976  75.9394253  99.4046180
  80.6931294  75.7891899  99.9731318  80.9962383  75.6936598  98.6395285
  81.1908054  75.8806375  99.3749195  85.9262323  83.8953680  98.8276189
  85.2553513  84.4383382  98.6989254  86.6202073  84.3648535  98.5857883
  85.9291190  84.0451951  98.7731716  79.9749056  96.0350392 104.0587947
  79.7514711  95.2769221 104.4271973  79.4858900  96.0648413 103.3368387
  79.8692505  95.9272616 104.0064688  86.0890450  80.3509563 101.7366562
  86.4418060  79.9239286 102.4112360  85.2305252  80.2660407 101.8667638
  86.0139895  80.2754304 101.8561572  74.7874135  82.9817083  99.7949408
  74.0686124  83.3981216 100.0622272  75.1586497  83.5471322  99.2441046
  74.7366067  83.1266364  99.7532215  84.0873716  83.6144932 105.6851404
  84.0671643  83.4328227 106.5386183  84.1352917  84.4856950 105.6610988
  84.0908357  83.7161470 105.8074699  82.0320046  90.2032124 111.6099881
  81.9915901  89.5581801 111.0245036  82.8443364  90.1468741 111.9225293
  82.1463199  90.0991091 111.5696830  78.6227513  96.2550850 101.5125031
  78.2087912  95.5924980 101.1228873  79.3074888  96.4028709 100.9920726
  78.6625885  96.1791508 101.3781529  81.9892808  95.4140935 102.2648648
  81.5909091  95.5243205 101.4969468  81.3744027  95.6223001 102.8475208
  81.8391697  95.4614503 102.2379947  80.5620710  82.0215083  95.1322788
  79.9685549  82.3432079  94.5807355  80.5995987  81.1756178  94.9243894
  80.4795099  81.9439411  95.0205559  87.5214510  75.4727975 102.6650874
  87.0145375  74.7657115 102.5972052  88.3181944  75.1421164 102.7951951
  87.5641749  75.3201127 102.6749869  83.4378526  81.9794587  98.5624538
  83.2092219  82.0027289  97.7202896  83.6976602  81.1552054  98.6819549
  83.4424714  81.8610667  98.4549736  77.7197755  83.8329060 108.1649638
  77.2076658  83.2250243 108.5234670  77.5477251  84.5485653 108.6323614
  77.6187392  83.8492360 108.2865862  72.5663469  82.2766636 110.8152000
  72.3966060  82.9368011 110.2700207  72.1229419  82.4873197 111.5364489
  72.4762803  82.4052618 110.8413629  76.4923289  80.5171134  99.8578734
  76.9680655  80.8788214  99.2228915  75.9911888  81.1727601 100.1378876
  76.4888648  80.6665323  99.8055475  89.7234650  89.9892902  95.6491739
  90.1068256  90.7384258  95.8789836  88.9278764  90.2358722  95.3903728
  89.6628432  90.1362596  95.6449312  81.5966825  81.7553305 110.6051894
  82.1538255  81.5267115 109.9730359  81.2727890  82.5158971 110.3287106
  81.6313235  81.8337142 110.4708391  69.4665534  85.1813501 106.0740490
  68.9192253  84.5114147 106.1921358  70.2557912  84.8143349 106.1383957
  69.5017717  85.0278488 106.1009190  79.3149942  84.8420958 111.5703901
  80.0661269  85.1572635 111.8843455  79.5072519  84.6400129 110.7437823
  79.4541356  84.8588340 111.4947297  78.5349942  82.6612334  93.2252118
  78.9148907  82.6791963  92.4403232  77.7942538  83.1066322  93.1042965
  78.4818780  82.7294108  93.0915686  86.1635232  80.9694525  98.8127696
  86.1629459  80.8143181  99.6711973  85.9591412  81.8157512  98.7569082
  86.1335010  81.0715145  98.9315636  68.2252503  84.3934309 103.2286513
  68.0474264  83.9410918 103.9541428  67.9371525  85.1960471 103.4124990
  68.1565456  84.4456867 103.3630016  83.8876084  85.6492027 102.4663903
  84.3829750  84.9315022 102.4267923  83.0775860  85.3462824 102.3518390
  83.8419978  85.4989673 102.4437629  79.3334696  89.4989840  94.6160908
  78.5246019  89.1756513  94.5694217  79.8409605  88.7923062  94.5489156
  79.2884363  89.3471156  94.5991202  69.9624973  86.9262033 100.3408272
  69.0970493  86.9147723 100.2291043  70.0623789  86.7392256 101.1879411
  69.8499140  86.8968094 100.4497216  85.9527903  88.3995714 105.1541032
  86.3782975  87.8770136 104.6011457  85.5884823  88.9976551 104.6329655
  85.9614506  88.4105941 104.9950042  75.5881983  96.6959932 103.9138377
  75.9028542  97.5096320 103.9216159  75.9975396  96.3110150 104.5820537
  75.6950081  96.7588634 104.0142469  82.5406503  92.1129978 101.4842189
  83.0117681  92.8270241 101.6532175  82.8766681  91.5128728 102.0202059
  82.6601618  92.1301443 101.5874565  79.4575998  76.8857449 108.4400284
  79.5903903  76.0888442 108.7681260  79.8421150  77.4123852 109.0198560
  79.5332326  76.8457366 108.5743787  83.1780449  91.9047912 108.2469882
  82.6301395  91.2805796 107.9789947  83.6393478  92.0942184 107.5313961
  83.1647658  91.8406963 108.1020313  82.5308353  73.8087775 105.0381377
  81.7254316  73.6985505 105.3549216  82.4015088  73.9100231 104.1811243
  82.3928486  73.8071445 104.9589418  85.9874313  79.9733267 105.6321074
  85.4037302  80.4742473 105.2198642  86.3078607  79.4662823 104.9985398
  85.9487489  79.9725102 105.4779582  78.5269112  78.8873862  95.9079749
  79.3484807  79.0572175  95.6661444  78.0638763  79.0421123  95.1846047
  78.5800275  78.9355595  95.7651393  77.1164444  76.8816624 106.6878178
  77.6608857  76.5407751 107.2782520  77.1701380  77.7402086 106.8299463
  77.2053564  76.9571883 106.7960051  72.9295003  90.6433040 103.5616986
  73.5339861  90.6028874 102.9330807  72.7222316  91.4904192 103.5921042
  72.9883900  90.7621043 103.4733102  82.7438775  92.9098985 104.7779223
  83.5637149  92.7661951 105.0395518  82.4632853  93.5345184 105.3195661
  82.8235519  92.9809337 104.8967163  68.1646285  89.6267658 103.4315909
  68.0670563  88.8163929 103.7405966  68.9475155  89.6059451 103.0462177
  68.2662422  89.5034748 103.4202772  99.2152426 100.5663837  97.7422100
  99.1846430 101.4208474  97.9140369  99.8133774 100.2659129  98.3008243
  99.2989584 100.6480333  97.8496902  92.4152111  99.6539488 102.4975030
  91.5590006  99.8147986 102.5484147  92.4619764  98.7831552 102.5180091
  92.2951222  99.5490290 102.5081096  86.7993250 109.1902206  98.2612262
  86.0476150 108.8117744  98.0328307  87.2479262 109.2220639  97.5131072
  86.7542917 109.1387813  98.1169764  92.2518210 109.6127575  93.6897809
  91.9169579 110.2904497  93.2542031  92.7645081 109.2232887  93.1014680
  92.2783791 109.6552153  93.5384600  91.7922501 111.5641844  99.6308920
  92.1761881 112.1328743  99.0913696  91.7281643 110.8391354  99.1514736
  91.8395929 111.5417307  99.4802783  88.3778006 109.2020598 100.5275034
  88.4788369 108.3920952 100.8372162  87.7819752 109.1077544  99.8974713
  88.3050545 109.0685626 100.4801273  97.0369000 103.1416139  96.0140409
  96.9208526 103.8923825  96.4432548  97.8324887 102.8840092  96.2636496
  97.1373590 103.2150986  96.1144501  81.5743051 105.2240884 100.1527368
  81.3393235 104.3908537 100.0459637  81.7128691 105.5045550  99.3388569
  81.5598713 105.1424388 100.0169723  83.8733138  97.3926615 103.0511675
  83.2538170  96.8019262 102.8821690  83.7717002  97.9838050 102.4175999
  83.7670814  97.3930698 102.9316665  88.9199326 107.1310162  97.3009752
  89.2415167 107.6715369  96.6971060  89.5671422 106.5606933  97.4332042
  89.0625381 107.1269337  97.2316787  90.9701034  99.1326157  97.3844139
  91.6681198  99.3114284  97.8765602  91.2853366  98.6096496  96.7614528
  91.1196371  99.0819929  97.3646149  83.6002271 100.9378897 105.2955244
  83.4760968 101.5241342 105.9305063  84.2520556 100.4439092 105.5967519
  83.6775921 100.9517701 105.4341174  91.1588969 105.5196602  97.3723930
  91.5982605 104.9113702  97.8178703  91.0093632 105.1403975  96.6009395
  91.2010435 105.3735073  97.3243097  89.1427897  94.5018554 101.4665413
  88.8131227  94.9529697 100.7969112  88.4672899  94.4234717 102.0138420
  88.9938334  94.5569689 101.4488636  94.7598306 103.8723783  94.3254699
  94.6749601 104.7284750  94.4704268  95.2482689 103.5968107  94.9936858
  94.8187203 103.9581105  94.4456781  96.3504305  90.4904076  99.7115024
  96.0357746  91.1807555 100.1435446  95.8331247  90.4348859  99.0100525
  96.2268776  90.5838965  99.6711973  95.6916739 100.4908577  95.8252434
  95.1628210 100.7068211  96.4849741  96.2141759 101.1844716  95.7453404
  95.6905192 100.6251714  95.9108034  87.5816347 104.3871794  94.6259902
  86.9973562 104.8921826  95.0325766  87.1786442 104.1614181  93.8856494
  87.4355651 104.4280042  94.5764928  83.1360375 110.1026555 101.4283574
  82.6527954 110.8277045 101.4043158  83.9483694 110.4002685 101.5393732
  83.1851123 110.2528909 101.4410853  92.0393561 100.6337446  93.1028823
  92.2789565 100.8415430  92.2904166  92.3609402  99.8294955  93.2117767
  92.1230719 100.5451547  92.9989376  87.3483851  92.5630842  96.9488361
  88.1029819  92.9309159  96.7105411  87.1711386  92.9370396  97.7167540
  87.4338330  92.6729030  97.0273249  85.9904573 110.6182731 101.5803854
  86.6925152 110.1034720 101.6376610  85.9102056 110.9456883 102.3850729
  86.0828333 110.5896957 101.7076646  85.7040916  94.9701161  93.6466474
  85.5216489  95.1873042  92.8207467  86.5666529  95.0840174  93.7025088
  85.8045506  95.0191059  93.5320961  85.3155348 106.8089083 101.0889462
  86.1544247 107.0412016 101.1363223  85.3467117 105.9393395 101.0196497
  85.4437066 106.7146030 101.0854106  91.3840635  91.9727572  96.6815498
  92.1126796  91.7943527  96.2353654  91.4735528  92.8145651  96.8922676
  91.5047297  92.0711450  96.6469015  95.3648936 102.9080959 100.5847792
  96.1206451 103.3412473 100.6236700  95.4711260 102.2585729 101.1582428
  95.4919107 102.8758443 100.6745817  81.3445196 103.4490249 105.5437189
  81.0783611 102.6329366 105.7028179  81.3583760 103.4943405 104.6732704
  81.3069918 103.3347154 105.4390671  98.3226590  93.7768064 103.5779623
  98.9652498  93.8466169 104.1641538  98.5749611  93.1097287 103.0759165
  98.4548722  93.6894413 103.5906902  85.2502943  98.2475334  92.1588947
  84.5361120  97.9613513  92.5711379  85.7346912  98.5871959  92.7995334
  85.2162306  98.2556983  92.3144582  86.0943803  96.9868627 108.1904197
  85.4015599  96.5165607 108.4364928  86.7104130  96.7606932 108.7645904
  86.0828332  96.8835759 108.3113349 101.5373453 103.4535156 100.2269832
 102.1989887 102.8925825 100.1265740 100.8964865 102.9587187 100.5522523
 101.5402321 103.2971565 100.2602172  92.4250261 106.7505288  92.5350755
  92.8401410 106.4190311  91.8435251  91.5942191 106.5174190  92.4070892
  92.3638270 106.6676543  92.4141603  81.7538610 104.2349029 102.8248933
  81.5714183 104.2095915 101.9721225  82.4888279 104.7047966 102.8637842
  81.8352674 104.3010391 102.7046852  97.8238284 104.4700539  99.9681821
  98.0593873 104.6145737  99.1408671  97.9727848 105.2342947 100.3613334
  97.8804087 104.6039593  99.9045425  99.6528741 103.3102204  97.8051424
  99.9836958 103.8429845  97.1991519 100.2261829 103.3641092  98.4613375
  99.7862420 103.3971773  97.8129206  94.8660630 101.1567107  98.4875005
  94.9607484 101.8956401  98.9414630  94.2419473 100.7284583  98.9209569
  94.7869660 101.2028428  98.6183152  81.7209520 101.1142529 102.9748000
  82.2983023 100.9778980 103.6140245  81.0223582 100.6578313 103.2293584
  81.7030542 101.0264795 103.1070289  95.1183651 103.0015847  91.7211957
  95.0363814 103.0718034  92.5866944  95.7563372 103.5645591  91.5295697
  95.2003489 103.0954818  91.8201906  88.4776822 102.7676585 101.1886483
  88.2196067 101.9348320 101.1617782  88.5325305 102.9934198 100.3478983
  88.4476600 102.6774356 101.0606620  93.5577872  94.8705036 101.2890576
  92.8534199  94.3814221 101.4474495  93.6062847  94.8827510 100.4179020
  93.4607924  94.7994684 101.1829915  87.4511534 100.3214347 101.6751378
  86.8761126 100.4806516 102.3115339  87.0747211  99.6849756 101.2119828
  87.3114347 100.2512160 101.7005936  91.1184823  98.7937697 106.5343756
  90.7299256  98.3691914 105.8795947  90.4539521  99.0419846 107.0420783
  90.9631751  98.7676418 106.5131624 100.7608092  98.5512701  99.3091586
 100.5044657  97.7392643  99.1189469 101.6037406  98.5590268  99.0821773
 100.8474118  98.4324699  99.2476403  77.1968353  99.9654422  99.6895818
  77.2828605  99.5886290 100.4709348  77.8244151  99.5914868  99.2115777
  77.3024904  99.8539904  99.7341296  94.9411185  92.4912325 104.0467740
  95.3221696  91.8090496 104.4335614  94.1374469  92.2021927 103.8643405
  94.8787646  92.3479374 104.0771796  92.2223761 103.0236301  94.7320563
  93.0364400 103.3151194  94.6203334  92.1582903 102.3696164  94.1578856
  92.3326500 102.9701496  94.6309400  88.0931670 106.4957819  99.8592875
  88.7305617 106.2569566 100.4044669  88.5186741 106.6994978  99.1246036
  88.2507836 106.4908829  99.8310032  82.7844312 108.7346155 103.7427179
  82.8248457 109.0061006 102.9146958  83.3438836 109.2588063 104.1584967
  82.8727658 108.8521910 103.6819067  88.7334485 101.7160108  94.1967764
  89.1179637 101.4967815  94.9484310  88.4846105 102.5423054  94.3268841
  88.7536557 101.8058255  94.3268841  90.4753142 106.9730241 101.5386661
  90.5492150 106.8105413 102.3928511  91.2922648 107.1620431 101.2947143
  90.6069500 106.9766984 101.6284687  84.2358898 107.3188104  98.5681105
  83.4097016 107.5649841  98.4415384  84.2970889 107.2400185  99.4343163
  84.1233065 107.3433053  98.6770049  86.4534922  93.3857045  99.5276545
  85.5857347  93.4579645  99.5934154  86.7410126  94.1879124  99.7164520
  86.3674670  93.5151192  99.5651312  95.5767811  93.5334905 107.8587867
  96.3221403  93.3444715 107.4451292  95.1605115  94.0593142 107.3001723
  95.6252785  93.5837050 107.7152440  89.0157727 109.9364984  96.2700135
  89.3056026 109.5453966  95.5459361  89.7461208 110.1181689  96.7105410
  89.1664611 109.9058798  96.2282942  86.9563643 111.9132367  99.3360284
  86.7363938 111.6229722 100.1286952  86.7358165 111.2547322  98.8078197
  86.8911237 111.7732075  99.3749193  85.8680590 104.0005683 101.6015986
  85.5793839 103.3743155 102.1361713  86.7363938 103.9425971 101.6680667
  85.9540842 103.8993228 101.6906941  96.6558488  99.1440467 101.9197968
  96.3123254  98.4230802 102.2705218  96.7551530  98.9354318 101.0776326
  96.6200531  99.0064670 101.8469648  89.1231599 113.2861757  98.1190977
  89.7755657 112.7538199  98.3482003  88.4257207 112.9330409  98.5058851
  89.1162317 113.1551280  98.2103145  86.0712863 105.6400934  97.5258351
  86.8258831 106.0213973  97.7393814  85.4783476 106.0912078  97.9805048
  86.0949577 105.7629762  97.6241230  97.1171517 105.6066171  97.4621956
  97.6829550 106.2659381  97.3780499  96.4699420 105.9515869  97.9338358
  97.1050273 105.7548112  97.5194713  87.3911090 106.8109496 102.8998467
  86.8691844 106.9509787 103.5850331  87.7785110 106.0520160 103.0900584
  87.3714791 106.7195020 103.0299543  84.3802274  96.8615304  96.9693421
  84.0927070  96.4916575  96.2325369  85.0672742  97.3310160  96.7077126
  84.4391171  96.8762274  96.8208497  93.5878095 108.5504955  96.8859035
  93.3464771 107.8172816  96.4786100  93.7679428 109.0991812  96.2325369
  93.5785719 108.5227346  96.7289258  88.8177416 103.8413515  98.2979958
  88.6220198 104.4488249  97.7040261  89.0411761 103.1481459  97.8171632
  88.8212057 103.8291040  98.1396038  87.2155946 100.7268253  98.4160826
  87.9378598 100.8909411  97.9564632  86.7363938 101.4477917  98.3100166
  87.2519676 100.8566482  98.3326440  95.1749453  97.0632051 103.7957511
  94.3360554  97.0893330 103.5595774  95.2453821  97.7102787 104.3762858
  95.0617847  97.1628177 103.8466628  93.6218732  93.9617428  98.5285127
  94.3245084  93.7625177  98.0505085  93.3562920  93.1893371  98.8353970
  93.6865364  93.8180394  98.5030568  99.0506977 102.2700038 101.0818753
  98.9640952 102.4255464 101.9353532  98.5957457 102.9138114 100.7078158
  98.9710234 102.3875793 101.1525859  81.9530469  97.6396517  97.8178702
  82.0546605  98.4422678  98.1459678  82.7486355  97.4383853  97.5201783
  82.0858374  97.7282416  97.8214058  88.3847288  95.2252714 107.5816007
  88.1930485  95.2407848 108.4315431  89.2345884  95.4216388 107.5582662
  88.4823010  95.2567065 107.7039302  82.7694201  97.7543695 105.5599824
  82.6279693  96.9027636 105.6844332  83.0534764  97.7972356 104.7362030
  82.7902047  97.6343445 105.4567448  92.9232793  99.5910785  99.7044312
  92.6767507  99.5106536 100.5381101  93.2517916  98.8064253  99.5106840
  92.9354037  99.4637051  99.7991835  98.3134215 105.6572398  94.2547593
  97.9341024 104.8709536  94.2476882  97.6500460 106.2059255  94.1119237
  98.1592690 105.6217222  94.2328390  91.2951515  95.4208223 107.7887831
  91.7524129  96.1532197 107.9160623  91.3707844  94.9974688 108.5475086
  91.3742485  95.4665461 107.9188907  83.5384506  95.6674043 108.8777274
  83.0026696  95.0554401 109.1938042  83.6002271  96.2422179 109.5310941
  83.4680139  95.6620970 109.0212701  95.7678841  88.5998098 101.6581674
  95.8862409  89.0574561 100.9248976  95.5941016  87.7943359 101.3717891
  95.7598012  88.5491870 101.5082607  91.1381123 109.2085917  98.0936419
  91.9031014 108.9395561  97.7719083  91.0359213 108.7235928  98.8106482
  91.2362618 109.0975482  98.1516247  89.1733893  97.4110327 104.6329655
  88.3829967  97.2301787 104.9546990  89.5694516  96.6337279 104.6159949
  89.1150769  97.2697788 104.6782203  93.6599784 106.2398101  90.0736368
  94.4272769 106.2998226  89.6642220  93.2131092 105.6678543  89.5892687
  93.7073211 106.1634677  89.9414079  94.5577579 105.0452757 102.3589101
  93.8822581 104.8137989 102.8602488  94.5669955 104.4373940 101.7331206
  94.4596084 104.9211682 102.3405253  96.5594314 107.9017889  94.5899279
  96.6414151 108.7084876  94.2660729  97.0444056 107.9213849  95.3140052
  96.6431471 108.0238552  94.6486177  90.3690817 102.5802725 103.2569356
  89.9453066 102.7807224 102.5208375  90.1935672 101.7331573 103.3693656
  90.2801698 102.4851507 103.1643047  85.6573262 103.0754777  98.6897329
  85.8137881 103.0101580  99.5453321  85.9973855 103.8503329  98.4776009
  85.7306497 103.1803975  98.7851923  92.1952406 102.4512660  97.5590692
  92.7367952 101.9483041  98.0229313  92.5098966 102.3977855  96.7480177
  92.3216804 102.3692081  97.5074504  90.3638856 107.8430012  94.8430720
  90.4331676 106.9844550  94.9823721  91.1427311 108.0601893  94.5149745
  90.4891706 107.7482876  94.8147878  94.7546344 110.2667713  99.0567214
  94.3626135 109.9634428  98.3390080  94.9099416 111.1036803  98.8672167
  94.7199934 110.3451550  98.9223711  82.2307523 100.2589727  99.0058096
  82.6106488 100.6774272  98.3418363  81.6562888 100.8403183  99.3126939
  82.2018848 100.4067586  98.9534837  94.9186019 106.8317702  98.9973244
  94.5600673 107.0032345  99.7737277  94.4324729 107.2930908  98.4401243
  94.7944715 106.9256673  99.0298513  92.7356405  90.4548901 102.6000335
  91.8649962  90.4287622 102.5533645  92.9896746  90.2826093 101.7826181
  92.6449965  90.4259044 102.4720472  89.7074384 102.5116867  91.5373478
  89.9966909 103.2881750  91.8117053  89.7946183 102.0005599  92.2387978
  89.7628640 102.5508786  91.6815976  89.7605545  92.4655129 104.0573806
  89.2444034  91.7735320 104.1825385  89.1999474  93.1325906 104.0036405
  89.6012058  92.4618387 104.0679872  91.8297778  93.0048089 105.8866658
  91.4429532  93.0297121 106.6680188  91.3430716  92.4389768 105.4341175
  91.7010287  92.9243840 105.9354562  91.4954920  89.8915075 108.1776918
  92.1248038  90.4275375 107.8997989  91.6640783  89.7992433 109.0290484
  91.6132715  89.9576437 108.2625446  85.8738325 101.8250132 103.6373591
  85.0326331 101.7254006 103.8452484  86.0828333 102.5945612 103.9887911
  85.7803017 101.9242175 103.7200905  83.3513892  99.4469669 101.4658341
  82.9570590  99.5212681 100.6908451  82.7954009  99.8327615 102.0166703
  83.2116704  99.5151444 101.4326001  94.9878839  92.4250963 101.1462220
  95.1928432  92.3573271 101.9919217  94.6605263  93.2309784 101.0783398
  94.9694087  92.5336903 101.2621875  89.6854990  99.7531531 102.8871188
  89.3818127  99.1987519 103.4881596  88.9834411  99.9323741 102.3999222
  89.5371200  99.6976314 102.9040894  88.7421087  97.0632051  97.4515890
  89.0180821  96.3450964  97.0393457  89.3419756  97.6616971  97.2436996
  88.8714351  97.0452422  97.3596651  98.2412526  92.9782727 100.6264986
  97.6286840  93.4653129 101.0118717  98.3376701  92.3026218 101.1702637
  98.1650424  92.9501036 100.7643844  92.2431607  94.7345568  95.7262485
  92.6975354  94.9056129  96.4510330  92.7171653  94.1213679  95.3260261
  92.3799927  94.6696454  95.7736247  85.7647133 104.2193894 105.0565223
  85.1735066 104.8603393 105.0268239  86.5268156 104.6431512 105.0296523
  85.7895393 104.3769733 105.0480371  86.1607756  95.3795892 105.7233241
  86.6209237  95.4534822 106.4608365  86.2063862  96.1777146 105.3733062
  86.2358311  95.5090039 105.7805998  89.5844627 101.4388103  96.8307492
  90.3286672 101.8262379  97.0690442  89.7305324 100.5945528  96.9947980
  89.7155212 101.3718576  96.8901462  91.5024203  93.2338362 101.8639354
  90.6560248  93.4061169 101.7380703  91.4995335  92.4287705 102.2005182
  91.3771353  93.1399391 101.8950481  92.5722503  97.0113576 102.7301412
  92.0982457  96.4855338 103.2406722  92.9440639  96.4643049 102.1616273
  92.5572392  96.8529573 102.7216559  82.9495533  99.0085083 108.0984957
  83.8121146  98.9080792 108.0122287  82.6187316  98.4279792 107.5370529
  83.0280730  98.9076709 108.0030363  94.5006003  97.9050131  95.7927165
  93.9729021  97.9878875  95.1032874  94.9601711  98.6468002  95.7891810
  94.4907853  98.0270793  95.6901860 100.8364421  98.8517409 102.0937451
 100.5974191  98.8113243 101.2558236 100.9998322  99.6988561 102.2203172
 100.8254724  98.9709494 101.9890933  86.3097319  97.8327532 104.7595375
  85.6850389  97.8445924 104.1521328  85.9742914  98.3087707 105.4086616
  86.1682811  97.9046049 104.7651944  86.4939068  96.1752650  90.8168061
  86.1451872  96.8272375  91.2799610  86.0135514  96.1609763  90.0891932
  86.3709312  96.2695704  90.7779152  83.0222995 105.8927992 106.1999140
  82.4922919 105.2020431 106.2494115  83.2948088 105.8838177 105.3711848
  82.9847717 105.7895124 106.0846556  94.0543085 106.4753694  94.9236822
  94.7777284 106.9411807  94.7801396  93.6143676 106.5427304  94.1734419
  94.0958778 106.5537531  94.7921604  85.5788065  99.4420680 106.9770244
  85.7381551  98.6864004 107.3821966  85.3980958  99.9911619 107.6310982
  85.5753424  99.4114493 107.1332950  93.5208368  91.6081915 107.5321033
  93.0248929  91.8045589 106.8412600  94.2777430  92.0074583 107.3609835
  93.5595192  91.6959649 107.4041170  90.7911247  95.2824261 104.1224344
  90.8153734  94.7484373 103.4337124  91.0422721  94.7741570 104.7849935
  90.8321166  95.1285165 104.1188989  78.3018837 102.5655756 103.5567488
  78.1962286 102.5202600 102.6919572  77.5519057 102.9109537 103.8381773
  78.1754440 102.6096664 103.4704818  87.0712570  94.0095079 103.5030088
  87.1110941  94.5104286 104.2164796  86.2462234  94.1005473 103.2336011
  86.9552095  94.0976896 103.5680627  88.4926933 100.5255589 105.8003987
  87.6618863 100.6929407 105.5939235  88.4378450 100.1491540 106.5852873
  88.3616348 100.4945320 105.8852515  86.3010716  94.0164482 111.4360398
  86.9263420  93.4726615 111.7089830  85.8461196  93.5359400 110.8668188
  86.3258977  93.8653963 111.3921992  86.8662977  98.8011181  96.3294105
  87.0065938  99.2983645  97.0322746  87.3645510  98.0997475  96.4708319
  86.9604058  98.7713159  96.4545684  86.8963199  99.6678292  93.6586682
  87.5308279 100.2638717  93.5936144  86.9788810  99.3681749  94.4732552
  87.0019750  99.7119200  93.7689768  88.4742182  95.5992267  93.6332124
  88.7958023  95.1195350  92.9791386  88.7369126  96.4091913  93.4422935
  88.5608207  95.6482165  93.5087616  93.8701337  94.9864461 105.9955603
  94.2956409  94.5336987 105.3839129  93.2558330  94.4324532 106.2720390
  93.8429982  94.8378437 105.9460628  83.4016187 101.8646132  96.9276228
  83.9108416 102.4610640  97.3087533  83.8750459 101.5972106  96.2452647
  83.5459563 101.9131948  96.8830751  94.3146935 110.5374399  95.0834883
  93.5976245 110.3635261  94.6182121  94.9653673 110.3026971  94.5510369
  94.3048786 110.4770192  94.9364101  92.3095560  91.4579561  99.4046180
  91.6663878  91.3077207  99.9731318  91.9694967  91.2121906  98.6395285
  92.1640637  91.3991683  99.3749195  96.8994906  99.4138988  98.8276189
  96.2286096  99.9568690  98.6989254  97.5934657  99.8833843  98.5857883
  96.9023774  99.5637259  98.7731716  97.0623034  95.8694871 101.7366562
  97.4150644  95.4424594 102.4112360  96.2037835  95.7845715 101.8667638
  96.9872478  95.7939612 101.8561572  85.7606719  98.5002391  99.7949408
  85.0418708  98.9166524 100.0622272  86.1319081  99.0656630  99.2441046
  85.7098651  98.6451672  99.7532215  91.5353293  97.5400391  95.1322788
  90.9418132  97.8617387  94.5807355  91.5728571  96.6941486  94.9243894
  91.4527682  97.4624719  95.0205559  98.4947094  90.9913283 102.6650874
  97.9877958  90.2842423 102.5972052  99.2914528  90.6606472 102.7951951
  98.5374333  90.8386435 102.6749869  94.4111110  97.4979895  98.5624538
  94.1824803  97.5212597  97.7202896  94.6709186  96.6737362  98.6819549
  94.4157298  97.3795975  98.4549736  87.4655872  96.0356442  99.8578734
  87.9413238  96.3973522  99.2228915  86.9644472  96.6912909 100.1378876
  87.4621231  96.1850630  99.8055475 100.6967234 105.5078210  95.6491739
 101.0800840 106.2569566  95.8789836  99.9011347 105.7544029  95.3903728
 100.6361016 105.6547904  95.6449312  80.4398117 100.6998809 106.0740490
  79.8924837 100.0299455 106.1921358  81.2290496 100.3328657 106.1383957
  80.4750301 100.5463796 106.1009190  89.5082525  98.1797641  93.2252118
  89.8881490  98.1977271  92.4403232  88.7675121  98.6251630  93.1042965
  89.4551363  98.2479416  93.0915686  97.1367816  96.4879833  98.8127696
  97.1362042  96.3328489  99.6711973  96.9323996  97.3342820  98.7569082
  97.1067594  96.5900453  98.9315636  79.1985087  99.9119617 103.2286513
  79.0206848  99.4596226 103.9541428  78.9104109 100.7145779 103.4124990
  79.1298040  99.9642175 103.3630016  94.8608668 101.1677334 102.4663903
  95.3562333 100.4500330 102.4267923  94.0508444 100.8648132 102.3518390
  94.8152561 101.0174981 102.4437629  90.3067279 105.0175148  94.6160908
  89.4978602 104.6941821  94.5694217  90.8142188 104.3108370  94.5489156
  90.2616946 104.8656464  94.5991202  80.9357557 102.4447341 100.3408272
  80.0703076 102.4333031 100.2291043  81.0356373 102.2577564 101.1879411
  80.8231724 102.4153402 100.4497216  90.4308581  92.4042757 108.4400284
  90.5636487  91.6073750 108.7681260  90.8153734  92.9309160 109.0198560
  90.5064910  92.3642674 108.5743787  93.5040936  89.3273083 105.0381377
  92.6986900  89.2170813 105.3549216  93.3747672  89.4285539 104.1811243
  93.3661069  89.3256753 104.9589418  96.9606897  95.4918575 105.6321074
  96.3769886  95.9927781 105.2198642  97.2811191  94.9848131 104.9985398
  96.9220072  95.4910410 105.4779582  89.5001696  94.4059170  95.9079749
  90.3217390  94.5757483  95.6661444  89.0371347  94.5606431  95.1846047
  89.5532858  94.4540903  95.7651393  88.0897028  92.4001932 106.6878178
  88.6341441  92.0593059 107.2782520  88.1433964  93.2587393 106.8299463
  88.1786147  92.4757191 106.7960051  83.9027587 106.1618348 103.5616986
  84.5072444 106.1214182 102.9330807  83.6954899 107.0089500 103.5921042
  83.9616484 106.2806350 103.4733102  79.1378869 105.1452965 103.4315909
  79.0403147 104.3349237 103.7405966  79.9207739 105.1244759 103.0462177
  79.2395006 105.0220056 103.4202772  98.3216435 108.0816150  96.9488361
  99.0762403 108.4494467  96.7105411  98.1443970 108.4555704  97.7167540
  98.4070913 108.1914338  97.0273249  96.6773500 110.4886469  93.6466474
  96.4949073 110.7058350  92.8207467  97.5399113 110.6025482  93.7025088
  96.7778089 110.5376367  93.5320961 102.3573219 107.4912880  96.6815498
 103.0859379 107.3128834  96.2353654 102.4468112 108.3330959  96.8922676
 102.4779881 107.5896758  96.6469015  96.2235527 113.7660641  92.1588947
  95.5093704 113.4798821  92.5711379  96.7079495 114.1057267  92.7995334
  96.1894890 113.7742291  92.3144582  95.3534858 112.3800612  96.9693421
  95.0659653 112.0101883  96.2325369  96.0405326 112.8495468  96.7077126
  95.4123755 112.3947582  96.8208497 100.6806968 118.0302175  91.5373478
 100.9699492 118.8067058  91.8117053 100.7678766 117.5190907  92.2387978
 100.7361224 118.0694094  91.6815976  97.4671652 111.6937958  90.8168061
  97.1184456 112.3457683  91.2799610  96.9868097 111.6795071  90.0891932
  97.3441896 111.7881012  90.7779152  97.8695783 115.1863600  93.6586682
  98.5040862 115.7824025  93.5936144  97.9521394 114.8867057  94.4732552
  97.9752334 115.2304508  93.7689768  99.4474766 111.1177575  93.6332124
  99.7690607 110.6380658  92.9791386  99.7101709 111.9277221  93.4422935
  99.5340791 111.1667473  93.5087616 100.4815109 113.6982949  93.2252118
 100.8614074 113.7162579  92.4403232  99.7407705 114.1436938  93.1042965
 100.4283947 113.7664724  93.0915686 100.4734280 109.9244478  95.9079749
 101.2949974 110.0942790  95.6661444 100.0103931 110.0791739  95.1846047
 100.5265442 109.9726211  95.7651393  44.0440332  -0.0884572  84.6762146
  44.0134336   0.7660065  84.8480416  44.6421680  -0.3889279  85.2348290
  44.1277490  -0.0068075  84.7836949  37.2440017  -1.0008921  89.4315077
  36.3877912  -0.8400422  89.4824194  37.2907670  -1.8716857  89.4520138
  37.1239128  -1.1058119  89.4421143  31.6281156   8.5353797  85.1952308
  30.8764056   8.1569336  84.9668353  32.0767168   8.5672231  84.4471119
  31.5830823   8.4839404  85.0509811  37.0806116   8.9579167  80.6237855
  36.7457485   9.6356088  80.1882078  37.5932987   8.5684478  80.0354727
  37.1071697   9.0003745  80.4724647  36.6210407  10.9093435  86.5648967
  37.0049787  11.4780334  86.0253742  36.5569549  10.1842946  86.0854783
  36.6683835  10.8868899  86.4142830  40.0891838   1.0583123  92.0746728
  40.6347798   1.7368210  92.1340698  40.0308714   0.9170584  91.2148310
  40.1607752   1.1375125  91.9558789  33.2065912   8.5472189  87.4615081
  33.3076275   7.7372543  87.7712209  32.6107658   8.4529136  86.8314759
  33.1338451   8.4137218  87.4141319  41.8656906   2.4867730  82.9480456
  41.7496432   3.2375417  83.3772594  42.6612793   2.2291684  83.1976543
  41.9661496   2.5602577  83.0484548  33.0466652  13.4649779  88.8629937
  33.6904108  13.9062943  89.2526095  33.3722908  12.6603205  88.7760196
  33.1898481  13.4114973  88.9075414  26.4030957   4.5692476  87.0867415
  26.1681141   3.7360128  86.9799683  26.5416597   4.8497142  86.2728616
  26.3886619   4.4875979  86.9509770  33.7487232   6.4761753  84.2349799
  34.0703073   7.0166961  83.6311107  34.3959328   5.9058525  84.3672088
  33.8913287   6.4720929  84.1656834  35.7988940  -1.5222252  84.3184185
  36.4969105  -1.3434124  84.8105649  36.1141272  -2.0451912  83.6954575
  35.9484277  -1.5728479  84.2986195  35.9876875   4.8648193  84.3063977
  36.4270511   4.2565294  84.7518750  35.8381538   4.4855567  83.5349442
  36.0298341   4.7186665  84.2583144  33.4548518   3.4592205  91.5082802
  34.0997521   2.9664648  91.1893751  33.6950295   3.6016992  92.3348881
  33.5859103   3.4069647  91.5832336  35.9934610   6.3047111  91.1589695
  36.2757852   5.5098517  90.9376451  36.7220770   6.7827699  91.1794756
  36.1424173   6.2581708  91.1292710  39.5886212   3.2175375  81.2594746
  39.5037507   4.0736341  81.4044315  40.0770595   2.9419699  81.9276905
  39.6475109   3.3032696  81.3796828  40.5204645  -0.1639831  82.7592481
  39.9916116   0.0519802  83.4189787  41.0429665   0.5296307  82.6793451
  40.5193098  -0.0296694  82.8448080  45.9752698   5.4106473  88.1325526
  45.1450401   5.6217117  88.2958942  45.9261950   4.5843528  87.8567809
  45.8459433   5.3196080  88.1162891  32.4104253   3.7323386  81.5599949
  31.8261468   4.2373417  81.9665813  32.0074348   3.5065773  80.8196541
  32.2643557   3.7731634  81.5104974  27.9648281   9.4478147  88.3623621
  27.4815860  10.1728636  88.3383204  28.7771600   9.7454277  88.4733778
  28.0139029   9.5980501  88.3750900  34.0362435   8.2410327  90.9673435
  33.5189377   7.8817743  90.3634743  34.7336827   7.7172502  90.9779501
  34.0628017   8.1108015  90.8803694  36.8681467  -0.0210962  80.0368870
  37.1077471   0.1867021  79.2244213  37.1897308  -0.8253454  80.1457814
  36.9518625  -0.1096861  79.9329423  30.8192479   9.9634323  88.5143901
  31.5213058   9.4486312  88.5716657  30.7389962  10.2908474  89.3190776
  30.9116239   9.9348549  88.6416693  45.4706656  -1.9423126  91.9275947
  44.6335077  -1.8720939  92.1623541  45.4394887  -1.9398631  91.0550249
  45.3424939  -1.9312899  91.8335495  30.1443254   6.1540675  88.0229509
  30.9832154   6.3863607  88.0703270  30.1755023   5.2844986  87.9536544
  30.2724972   6.0597621  88.0194153  30.7695957   6.5741550  92.3242814
  31.3094182   6.4312681  92.9946186  30.0865903   6.9738301  92.6926840
  30.7488111   6.6121221  92.4777236  40.1936842   2.2532551  87.5187838
  40.9494357   2.6864065  87.5576747  40.2999166   1.6037320  88.0922475
  40.3207013   2.2210034  87.6085864  43.2317013   6.0805828  88.2690241
  42.7952245   6.0842570  89.0249213  42.8979929   6.7611327  87.8369819
  43.1179633   6.1818284  88.3171074  43.1514496  -6.8780344  90.5119669
  43.7940404  -6.8082240  91.0981585  43.4037517  -7.5451122  90.0099211
  43.2836628  -6.9653996  90.5246949  37.9616480  10.0324263  93.2399847
  37.1631726   9.7923763  93.4973716  38.4102492  10.0838656  93.9866895
  37.9091091  10.0046654  93.3884772  46.3661359   2.7986748  87.1609879
  47.0277793   2.2377416  87.0605787  45.7252771   2.3038778  87.4862570
  46.3690227   2.6423157  87.1942219  37.2538167   6.0956879  79.4690802
  37.6689316   5.7641903  78.7775298  36.4230097   5.8625781  79.3410939
  37.1926176   6.0128135  79.3481649  26.5826516   3.5800620  89.7588980
  26.4002089   3.5547506  88.9061272  27.3176185   4.0499558  89.7977889
  26.6640580   3.6461982  89.6386898  42.6526190   3.8152130  86.9021867
  42.8881779   3.9597329  86.0748718  42.8015754   4.5794538  87.2953381
  42.7091993   3.9491184  86.8385471  44.4816647   2.6553796  84.7391471
  44.8124864   3.1881436  84.1331566  45.0549735   2.7092684  85.3953422
  44.6150326   2.7423365  84.7469253  39.6948536   0.5018699  85.4215051
  39.7895390   1.2407993  85.8754677  39.0707379   0.0736174  85.8549616
  39.6157566   0.5480019  85.5523199  39.9471557   2.3467438  78.6552003
  39.8651720   2.4169626  79.5206990  40.5851278   2.9097182  78.4635744
  40.0291395   2.4406410  78.7541953  33.3064728   2.1128176  88.1226530
  33.0483973   1.2799911  88.0957829  33.3613211   2.3385789  87.2819030
  33.2764506   2.0225948  87.9946666  38.3865779  -5.7843373  88.2230622
  37.6822105  -6.2734187  88.3814542  38.4350753  -5.7720898  87.3519067
  38.2895830  -5.8553725  88.1169962  32.2799441  -0.3334061  88.6091424
  31.7049032  -0.1741893  89.2455385  31.9035117  -0.9698652  88.1459875
  32.1402253  -0.4036248  88.6345983  45.5895998  -2.1035707  86.2431633
  45.3332563  -2.9155766  86.0529516  46.4325312  -2.0958140  86.0161820
  45.6762024  -2.2223710  86.1816450  37.0511667   2.3687893  81.6660610
  37.8652306   2.6602786  81.5543381  36.9870809   1.7147755  81.0918903
  37.1614406   2.3153088  81.5649447  43.2721158   5.0513889  96.0790185
  43.0359795   4.2201954  95.9602246  43.9164387   4.9999496  96.6645030
  43.3315828   4.9211577  96.1476079  32.9219576   5.8409410  86.7932922
  33.5593523   5.6021158  87.3384715  33.3474647   6.0446569  86.0586083
  33.0795742   5.8360420  86.7650079  27.6132218   8.0797747  90.6767226
  27.6536363   8.3512598  89.8487005  28.1726742   8.6039655  91.0925014
  27.7015564   8.1973502  90.6159114  33.5622391   1.0611700  81.1307811
  33.9467543   0.8419407  81.8824356  33.3134011   1.8874645  81.2608888
  33.5824463   1.1509846  81.2608888  44.2957578   4.8358338  92.1418480
  43.9903395   5.5686395  92.5031796  43.5763794   4.4296267  91.8611266
  44.1444920   4.8840071  92.1531617  35.3041048   6.3181833  88.4726708
  35.3780056   6.1557005  89.3268558  36.1210554   6.5072022  88.2287190
  35.4357406   6.3218575  88.5624734  49.9959370   1.4751338  91.4686824
  49.9283871   1.4947297  90.5989411  49.9815033   2.3181666  91.6942495
  49.9838127   1.6025073  91.3739301  29.0646804   6.6639696  85.5021152
  28.2384922   6.9101433  85.3755430  29.1258796   6.5851777  86.3683210
  28.9520971   6.6884645  85.6110096  33.8445633   9.2816576  83.2040182
  34.1343932   8.8905557  82.4799408  34.5749114   9.4633281  83.6445457
  33.9952518   9.2510390  83.1622989  47.7817988   0.2495725  89.7433419
  48.3325909  -0.3836206  89.9830511  47.7662103   0.7811117  90.4348923
  47.8603184   0.2344673  89.8812277  31.7851549  11.2583958  86.2700331
  31.5651844  10.9681313  87.0626998  31.5646071  10.5998913  85.7418244
  31.7199143  11.1183667  86.3089240  30.6968496   3.3457275  88.5356033
  30.4081745   2.7194746  89.0701760  31.5651844   3.2877562  88.6020713
  30.7828748   3.2444819  88.6246988  41.4846394  -1.5107942  88.8538015
  41.1411160  -2.2317607  89.2045265  41.5839436  -1.7194091  88.0116373
  41.4488437  -1.6483739  88.7809695  33.9519505  12.6313348  85.0531024
  34.6043563  12.0989791  85.2822050  33.2545113  12.2782001  85.4398898
  33.9450223  12.5002871  85.1443191  30.9000769   4.9852526  84.4598398
  31.6546737   5.3665565  84.6733861  30.3071382   5.4363670  84.9145095
  30.9237483   5.1081353  84.5581276  41.9459423   4.9517762  84.3962003
  42.5117456   5.6110972  84.3120546  41.2987326   5.2967460  84.8678405
  41.9338179   5.0999704  84.4534759  32.2198996   6.1561087  89.8338513
  31.6979750   6.2961379  90.5190378  32.6073016   5.3971752  90.0240631
  32.2002697   6.0646611  89.9639590  38.4166001   7.8956546  83.8199082
  38.1752677   7.1624407  83.4126147  38.5967334   8.4443403  83.1665416
  38.4073625   7.8678938  83.6629305  33.6465322   3.1865106  85.2320004
  33.4508104   3.7939841  84.6380307  33.8699667   2.4933050  84.7511678
  33.6499963   3.1742632  85.0736085  32.0443852   0.0719844  85.3500873
  32.7666504   0.2361002  84.8904679  31.5651844   0.7929509  85.2440213
  32.0807582   0.2018074  85.2666487  40.0037359  -3.5916357  90.7297558
  39.1648460  -3.5655078  90.4935821  40.0741727  -2.9445622  91.3102904
  39.8905753  -3.4920231  90.7806675  38.4506638  -6.6930980  85.4625174
  39.1532990  -6.8923232  84.9845132  38.1850826  -7.4655038  85.7694017
  38.5153270  -6.8368014  85.4370615  43.8794883   1.6151630  88.0158800
  43.7928858   1.7707056  88.8693578  43.4245363   2.2589705  87.6418205
  43.7998140   1.7327385  88.0865906  37.7520699  -1.0637623  86.6384359
  37.5055413  -1.1441872  87.4721148  38.0805822  -1.8484155  86.4446887
  37.7641943  -1.1911358  86.7331882  41.6468748   5.6445736  90.4271140
  41.5083107   6.3426782  90.9319883  40.8668746   5.4894393  90.0707322
  41.5111975   5.7245903  90.4497414  32.7845481   9.8621867  92.9168369
  32.9335045   9.3024783  92.2641773  33.5645484   9.9413869  93.3000888
  32.9219575   9.7907433  92.8765318  43.1422121   5.0023990  81.1887640
  42.7628930   4.2161128  81.1816929  42.4788366   5.5510847  81.0459284
  42.9880596   4.9668814  81.1668436  35.3098782  10.0336510  94.1952860
  35.2342453   9.3645321  94.7503648  35.2388641  10.7354298  94.7093526
  35.2879389  10.0381417  94.3529708  35.9669029   8.5537509  85.0276466
  36.7318920   8.2847153  84.7059130  35.8647119   8.0687519  85.7446529
  36.0650524   8.4427074  85.0856293  38.4887690   5.5849693  77.0076415
  39.2560675   5.6449818  76.5982267  38.0418999   5.0130134  76.5232734
  38.5361117   5.5086268  76.8754125  39.3865485   4.3904349  89.2929147
  38.7110487   4.1589581  89.7942534  39.3957861   3.7825532  88.6671252
  39.2883990   4.2663274  89.2745300  41.3882220   7.2469481  81.5239325
  41.4702057   8.0536467  81.2000776  41.8731962   7.2665440  82.2480099
  41.4719378   7.3690143  81.5826224  35.1978723   1.9254317  90.1909403
  34.7740972   2.1258816  89.4548422  35.0223578   1.0783165  90.3033703
  35.1089604   1.8303098  90.0983093  34.6990416  13.4404830  92.6530861
  35.1886347  12.7415619  92.4706525  34.1274649  13.1428700  93.2406918
  34.6874946  13.2931054  92.7131901  30.4861168   2.4206368  85.6237376
  30.6425787   2.3553171  86.4793368  30.8261761   3.1954921  85.4116055
  30.5594403   2.5255566  85.7191970  37.0240313   1.7964252  84.4930739
  37.5655858   1.2934633  84.9569360  37.3386872   1.7429447  83.6820224
  37.1504710   1.7143673  84.4414551  35.1926762   7.1881603  81.7770767
  35.2619583   6.3296142  81.9163767  35.9715217   7.4053484  81.4489792
  35.3179612   7.0934467  81.7487924  39.5834250   9.6119305  85.9907260
  39.1914042   9.3086020  85.2730127  39.7387322  10.4488395  85.8012214
  39.5487840   9.6903141  85.8563757  39.7473925   6.1769294  85.9313291
  39.3888579   6.3483936  86.7077323  39.2612635   6.6382499  85.3741289
  39.6232622   6.2708265  85.9638560  34.5362290   1.8568459  78.4713525
  34.8254815   2.6333342  78.7457100  34.6234089   1.3457190  79.1728025
  34.5916546   1.8960377  78.6156023  40.9078664   7.0673190  96.8780492
  41.5458384   6.5733385  96.5442948  40.2652756   6.9950590  96.2932719
  40.9072890   6.9832198  96.7422847  42.6335664  -1.0837664  91.4446407
  42.2063272  -1.1711316  90.6894507  41.9961717  -0.9759889  92.0301251
  42.4765271  -1.0805005  91.4191849  40.9632921   7.7592998  93.5185849
  41.7525299   7.4082063  93.6387930  41.1376518   8.5729386  93.2562482
  41.1053202   7.8278855  93.4973717  34.5142896  -0.9016877  89.8211235
  34.2106033  -1.4560889  90.4221643  33.8122317  -0.7224667  89.3339269
  34.3659106  -0.9572095  89.8380941  33.5708993  -3.5916357  84.3855937
  33.8468727  -4.3097445  83.9733504  34.1707662  -2.9931438  84.1777043
  33.7002258  -3.6095987  84.2936698  43.0700432  -7.6765681  87.5605032
  42.4574746  -7.1895279  87.9458764  43.1664607  -8.3522190  88.1042684
  42.9938330  -7.7047372  87.6983891  37.0719513  -5.9202840  82.6602532
  37.5263260  -5.7492280  83.3850376  37.5459559  -6.5334729  82.2600307
  37.2087834  -5.9851955  82.7076293  46.7125460   3.3951256  92.9882549
  46.7708584   3.8437904  93.7342525  46.0791928   3.8050068  92.5512629
  46.6276755   3.5224990  93.0335097  40.3524555   9.0154797  89.4237295
  40.1544244   9.5045612  88.7293506  39.7312266   9.2196039  90.0021428
  40.2312120   9.1171336  89.4060518  34.4132533   0.7839694  83.7647539
  35.1574578   1.1713971  84.0030489  34.5593230  -0.0602880  83.9288027
  34.5443119   0.7170167  83.8241509  43.6647140   1.4167543  91.0748239
  43.4245363   0.5773958  91.0790665  44.1439147   1.4967710  91.7989012
  43.6999324   1.3048943  91.1823041  39.3293909  -2.7498278  82.7267212
  38.8016928  -2.6669534  82.0372921  39.7889617  -2.0080406  82.7231857
  39.3195759  -2.6277615  82.6241907  45.6652327  -1.8031000  89.0277498
  45.4262097  -1.8435165  88.1898283  45.8286228  -0.9559847  89.1543219
  45.6542630  -1.6838915  88.9230980  42.2698357   2.5818950  94.9582543
  42.9932556   2.1291476  94.7793563  42.0048319   2.8623615  94.1754871
  42.3379630   2.5569918  94.8161258  38.8830991   5.8205286  81.8576869
  39.6065190   6.2863399  81.7141442  38.4431582   5.8878895  81.1074466
  38.9246684   5.8989122  81.7261651  38.0517146   2.6802828  93.1077558
  37.4374140   2.1360878  93.4026193  38.5684431   2.1667064  92.6283374
  38.0372809   2.5239237  93.0801787  37.2913444   3.7507098  90.8421857
  36.8641052   3.1256817  90.4087292  37.2838388   3.4682020  91.6680864
  37.2272585   3.6159879  90.9001684  31.6950883  -1.8537228  83.2634152
  31.8353844  -1.3564764  83.9662793  32.1933416  -2.5550933  83.4048365
  31.7891964  -1.8835249  83.3885731  31.7251105  -0.9870117  80.5926729
  32.3596185  -0.3909692  80.5276190  31.8076716  -1.2866659  81.4072599
  31.8307656  -0.9429209  80.7029815  44.7033671   1.5445361  93.4613093
  45.2951511   2.1842611  93.4931291  45.1392665   0.8468397  93.7505160
  44.8552102   1.5363711  93.5093925  36.5327061   5.9662733  94.0870987
  36.0252152   6.5198580  94.5311617  36.2353707   6.0271023  93.2689761
  36.4131946   6.0569044  94.0319443  28.2304093   1.2097724  83.8616275
  28.7396322   1.8062232  84.2427580  28.7038365   0.9423698  83.1792694
  28.3747469   1.2583539  83.8170797  39.1434841   9.8825991  82.0174930
  38.4264151   9.7086853  81.5522168  39.7941579   9.6478563  81.4850416
  39.1336692   9.8221783  81.8704148  41.7282812  -1.2409421  85.7616235
  41.0574002  -0.6979719  85.6329301  42.4222563  -0.7714565  85.5197930
  41.7311680  -1.0911150  85.7071763  35.7769546  10.8987291  90.9927994
  35.5535201  10.1406120  91.3612020  35.2879389  10.9285312  90.2708433
  35.6712995  10.7909516  90.9404735  41.8910940  -4.7853537  88.6706609
  42.2438550  -5.2123814  89.3452407  41.0325741  -4.8702694  88.8007685
  41.8160384  -4.8608797  88.7901619  30.5894625  -2.1546017  86.7289455
  29.8706614  -1.7381885  86.9962319  30.9606987  -1.5891779  86.1781093
  30.5386557  -2.0096736  86.6872262  34.4248003  11.1187749  88.4465078
  34.0108402  10.4561880  88.0568920  35.1095377  11.2665608  87.9260772
  34.4646375  11.0428407  88.3121575  37.7913297  10.2777835  89.1988695
  37.3929580  10.3880105  88.4309515  37.1764517  10.4859901  89.7815255
  37.6412186  10.3251403  89.1719994  36.3641199  -3.1148018  82.0662835
  35.7706038  -2.7931021  81.5147402  36.4016477  -3.9606922  81.8583941
  36.2815588  -3.1923689  81.9545606  39.2399016  -3.1568513  85.4964585
  39.0112709  -3.1335812  84.6542943  39.4997092  -3.9811046  85.6159595
  39.2445204  -3.2752433  85.3889782  45.5255140   4.8529801  82.5831785
  45.9088746   5.6021157  82.8129882  44.7299253   5.0995621  82.3243775
  45.4648922   4.9999495  82.5789359  34.3370431  -2.4750767  80.1592164
  34.7169396  -2.4571138  79.3743279  33.5963027  -2.0296778  80.0383012
  34.2839269  -2.4068992  80.0255733  41.9655722  -4.1668576  85.7467743
  41.9649948  -4.3219919  86.6052019  41.7611902  -3.3205589  85.6909129
  41.9355500  -4.0647955  85.8655683  39.6896574   0.5128926  89.4003950
  40.1850239  -0.2048079  89.3607970  38.8796350   0.2099724  89.2858437
  39.6440467   0.3626572  89.3777676  35.1355185   4.3626739  81.5500954
  34.3266508   4.0393413  81.5034264  35.6430094   3.6559961  81.4829203
  35.0904852   4.2108056  81.5331249  25.7645463   1.7898932  87.2748319
  24.8990982   1.7784623  87.1631090  25.8644279   1.6029155  88.1219458
  25.6519630   1.7604994  87.3837263  41.7548393   3.2632614  92.0881079
  42.1803464   2.7407035  91.5351504  41.3905313   3.8613451  91.5669702
  41.7634995   3.2742841  91.9290088  31.3902473  11.5596831  90.8478424
  31.7049032  12.3733219  90.8556206  31.7995886  11.1747050  91.5160583
  31.4970571  11.6225533  90.9482516  38.3426992   6.9766878  88.4182236
  38.8138170   7.6907140  88.5872221  38.6787171   6.3765628  88.9542106
  38.4622107   6.9938342  88.5214612  38.9800939   6.7684812  95.1809929
  38.4321885   6.1442696  94.9129994  39.4413967   6.9579084  94.4654008
  38.9668148   6.7043862  95.0360360  28.7315493   5.5069939  90.4957033
  29.3360350   5.4665774  89.8670853  28.5242805   6.3541091  90.5261088
  28.7904390   5.6257942  90.4073149  38.5459265   7.7735885  91.7119270
  39.3657639   7.6298851  91.9735565  38.2653343   8.3982084  92.2535708
  38.6256008   7.8446237  91.8307209  55.0172915  15.4300736  84.6762146
  54.9866920  16.2845373  84.8480416  55.6154264  15.1296029  85.2348290
  55.1010073  15.5117233  84.7836949  48.2172600  14.5176387  89.4315077
  47.3610496  14.6784886  89.4824194  48.2640254  13.6468451  89.4520138
  48.0971712  14.4127189  89.4421143  42.6013740  24.0539105  85.1952308
  41.8496639  23.6754644  84.9668353  43.0499752  24.0857539  84.4471119
  42.5563407  24.0024712  85.0509811  51.5266317  20.7862913  99.0375533
  52.2333084  20.2914944  99.1662467  51.7154252  21.2271994  98.3078191
  51.6594222  20.7781263  98.9484578  48.0538700  24.4764475  80.6237855
  47.7190068  25.1541396  80.1882078  48.5665570  24.0869786  80.0354727
  48.0804281  24.5189053  80.4724647  47.5942991  26.4278743  86.5648967
  47.9782370  26.9965642  86.0253742  47.5302132  25.7028254  86.0854783
  47.6416418  26.4054207  86.4142830  51.0624421  16.5768431  92.0746728
  51.6080381  17.2553518  92.1340698  51.0041297  16.4355892  91.2148310
  51.1340336  16.6560433  91.9558789  44.1798496  24.0657497  87.4615081
  44.2808859  23.2557851  87.7712209  43.5840241  23.9714444  86.8314759
  44.1071035  23.9322525  87.4141319  52.8389490  18.0053038  82.9480456
  52.7229016  18.7560724  83.3772594  53.6345377  17.7476992  83.1976543
  52.9394079  18.0787885  83.0484548  44.0199236  28.9835087  88.8629937
  44.6636691  29.4248251  89.2526095  44.3455491  28.1788513  88.7760196
  44.1631064  28.9300281  88.9075414  37.3763540  20.0877784  87.0867415
  37.1413725  19.2545436  86.9799683  37.5149181  20.3682450  86.2728616
  37.3619203  20.0061287  86.9509770  39.6753628  12.2563515  89.9851722
  39.0558659  11.6656162  89.8161737  39.5737491  12.8474950  89.3516045
  39.5691303  12.2567597  89.8656712  44.7219815  21.9947061  84.2349799
  45.0435656  22.5352269  83.6311107  45.3691912  21.4243833  84.3672088
  44.8645871  21.9906237  84.1656834  46.7721523  13.9963056  84.3184185
  47.4701688  14.1751184  84.8105649  47.0873856  13.4733396  83.6954575
  46.9216861  13.9456828  84.2986195  39.4022761  15.8015796  92.2295291
  39.2781458  16.3878242  92.8645110  40.0541045  15.3075992  92.5307566
  39.4796410  15.8154601  92.3681221  46.9609459  20.3833501  84.3063977
  47.4003094  19.7750602  84.7518750  46.8114122  20.0040875  83.5349442
  47.0030924  20.2371972  84.2583144  44.4281102  18.9777513  91.5082802
  45.0730104  18.4849956  91.1893751  44.6682879  19.1202300  92.3348881
  44.5591687  18.9254955  91.5832336  46.9667193  21.8232419  91.1589695
  47.2490436  21.0283825  90.9376451  47.6953354  22.3013007  91.1794756
  47.1156757  21.7767016  91.1292710  44.9448387   9.3655453  88.4005460
  44.6151717   9.8166597  87.7309159  44.2693389   9.2871616  88.9478466
  44.7958823   9.4206588  88.3828683  50.5618795  18.7360683  81.2594746
  50.4770090  19.5921649  81.4044315  51.0503179  18.4605007  81.9276905
  50.6207693  18.8218004  81.3796828  52.1524795   5.3540976  86.6455071
  51.8378236   6.0444454  87.0775493  51.6351736   5.2985758  85.9440571
  52.0289265   5.4475864  86.6052020  51.4937229  15.3545477  82.7592481
  50.9648700  15.5705110  83.4189787  52.0162249  16.0481615  82.6793451
  51.4925682  15.4888614  82.8448080  56.9485281  20.9291781  88.1325526
  56.1182985  21.1402425  88.2958942  56.8994534  20.1028836  87.8567809
  56.8192017  20.8381388  88.1162891  43.3836836  19.2508694  81.5599949
  42.7994052  19.7558725  81.9665813  42.9806932  19.0251081  80.8196541
  43.2376140  19.2916942  81.5104974  38.9380865  24.9663455  88.3623621
  38.4548443  25.6913944  88.3383204  39.7504183  25.2639585  88.4733778
  38.9871613  25.1165808  88.3750900  45.0095019  23.7595635  90.9673435
  44.4921961  23.4003050  90.3634743  45.7069410  23.2357810  90.9779501
  45.0360600  23.6293323  90.8803694  48.6658611  24.2090450  96.9289608
  48.7541957  24.0216590  97.7767819  49.0948324  23.5627879  96.5294455
  48.7420713  24.0853457  96.9961360  46.2329071  23.4921609  95.9107270
  45.6699906  23.0794219  96.4346932  46.9950094  23.4174515  96.3300414
  46.2623519  23.4199010  96.0500271  47.8414051  15.4974346  80.0368870
  48.0810054  15.7052329  79.2244213  48.1629892  14.6931854  80.1457814
  47.9251209  15.4088447  79.9329423  43.1504341   7.4267741  83.8828408
  43.9050309   7.7946058  83.6445458  42.9731876   7.8007296  84.6507587
  43.2358819   7.5365929  83.9613296  41.7925062  25.4819631  88.5143901
  42.4945642  24.9671620  88.5716657  41.7122545  25.8093782  89.3190776
  41.8848823  25.4533857  88.6416693  56.4439240  13.5762182  91.9275947
  55.6067661  13.6464369  92.1623541  56.4127471  13.5786677  91.0550249
  56.3157522  13.5872409  91.8335495  42.8403969  15.7195218  97.6424316
  43.0124473  15.6101112  98.4909597  43.3773326  16.3649623  97.4055508
  42.9448973  15.7987219  97.7329412  41.5061406   9.8338060  80.5806521
  41.3236979  10.0509941  79.7547513  42.3687019   9.9477073  80.6365135
  41.6065995   9.8827958  80.4661008  41.1175838  21.6725983  88.0229509
  41.9564737  21.9048915  88.0703270  41.1487607  20.8030294  87.9536544
  41.2457555  21.5782929  88.0194153  41.7428541  22.0926858  92.3242814
  42.2826766  21.9497989  92.9946186  41.0598487  22.4923609  92.6926840
  41.7220695  22.1306529  92.4777236  47.1861125   6.8364471  83.6155544
  47.9147285   6.6580426  83.1693701  47.2756018   7.6782551  83.8262723
  47.3067787   6.9348349  83.5809062  51.1669426  17.7717858  87.5187838
  51.9226941  18.2049373  87.5576747  51.2731750  17.1222628  88.0922475
  51.2939596  17.7395342  87.6085864  54.2049597  21.5991136  88.2690241
  53.7684829  21.6027878  89.0249213  53.8712512  22.2796635  87.8369819
  54.0912217  21.7003591  88.3171074  48.7778670  23.6399469  99.5933392
  49.5619087  23.7530316  99.9589134  48.5775265  22.8140606  99.7892078
  48.8644696  23.5346188  99.6767778  37.1465686  18.3127149  92.4777236
  36.8804101  17.4966265  92.6368226  37.1604250  18.3580304  91.6072751
  37.1090408  18.1984053  92.3730718  54.1247080   8.6404964  90.5119669
  54.7672988   8.7103068  91.0981585  54.3770100   7.9734186  90.0099211
  54.2569212   8.5531312  90.5246949  41.0523433  13.1112233  79.0928994
  40.3381610  12.8250413  79.5051426  41.5367401  13.4508859  79.7335381
  41.0182796  13.1193883  79.2484629  41.8964292  11.8505527  95.1244243
  41.2036089  11.3802507  95.3704975  42.5124619  11.6243831  95.6985950
  41.8848822  11.7472659  95.2453396  48.9349064  25.5509571  93.2399847
  48.1364309  25.3109071  93.4973716  49.3835075  25.6023963  93.9866895
  48.8823675  25.5231962  93.3884772  57.3393943  18.3172056  87.1609879
  58.0010377  17.7562724  87.0605787  56.6985355  17.8224086  87.4862570
  57.3422810  18.1608465  87.1942219  48.2270751  21.6142187  79.4690802
  48.6421899  21.2827211  78.7775298  47.3962680  21.3811089  79.3410939
  48.1658759  21.5313443  79.3481649  37.5559099  19.0985928  89.7588980
  37.3734673  19.0732814  88.9061272  38.2908768  19.5684866  89.7977889
  37.6373163  19.1647290  89.6386898  53.6258774  19.3337438  86.9021867
  53.8614363  19.4782637  86.0748718  53.7748337  20.0979846  87.2953381
  53.6824577  19.4676492  86.8385471  40.6204851  15.8170931  96.2671089
  41.3444823  15.8023962  96.7535983  40.7220988  16.5266286  95.7693057
  40.7423060  15.9195634  96.2649875  55.4549230  18.1739104  84.7391471
  55.7857447  18.7066744  84.1331566  56.0282318  18.2277992  85.3953422
  55.5882909  18.2608673  84.7469253  47.9949801  19.2970015 101.1320036
  47.2022781  19.6113527 101.3172655  48.1098728  19.5121484 100.2940820
  47.8945211  19.3753852 101.0358370  50.6681119  16.0204007  85.4215051
  50.7627974  16.7593301  85.8754677  50.0439963  15.5921482  85.8549616
  50.5890150  16.0665327  85.5523199  48.9233593  19.1990219  96.0705332
  49.4972455  18.5617463  96.2253896  48.8448397  19.1994302  95.2014990
  48.9966828  19.1055331  95.9651743  37.5230010  15.9779429  89.9088046
  38.1003512  15.8415879  90.5480292  36.8244071  15.5215213  90.1633631
  37.5051031  15.8901695  90.0410336  50.9204141  17.8652746  78.6552003
  50.8384303  17.9354934  79.5206990  51.5583861  18.4282490  78.4635744
  51.0023978  17.9591718  78.7541953  44.2797312  17.6313484  88.1226530
  44.0216556  16.7985219  88.0957829  44.3345795  17.8571097  87.2819030
  44.2497090  17.5411256  87.9946666  49.3598362   9.7341935  88.2230622
  48.6554689   9.2451121  88.3814542  49.4083336   9.7464409  87.3519067
  49.2628414   9.6631583  88.1169962  43.2532024  15.1851247  88.6091424
  42.6781615  15.3443415  89.2455385  42.8767700  14.5486656  88.1459875
  43.1134836  15.1149060  88.6345983  46.9205313  13.6574596  93.4683803
  46.5319745  13.2328814  92.8135994  46.2560011  13.9056746  93.9760830
  46.7652241  13.6313317  93.4471671  56.5628582  13.4149601  86.2431633
  56.3065147  12.6029542  86.0529516  57.4057896  13.4227168  86.0161820
  56.6494607  13.2961598  86.1816450  32.9988843  14.8291322  86.6235865
  33.0849095  14.4523190  87.4049395  33.6264640  14.4551767  86.1455823
  33.1045394  14.7176804  86.6681342  50.7431674   7.3549225  90.9807787
  51.1242186   6.6727396  91.3675661  49.9394959   7.0658827  90.7983452
  50.6808136   7.2116273  91.0111843  48.0244251  17.8873201  81.6660610
  48.8384890  18.1788093  81.5543381  47.9603392  17.2333063  81.0918903
  48.1346990  17.8338395  81.5649447  54.2453741  20.5699197  96.0790185
  54.0092379  19.7387262  95.9602246  54.8896970  20.5184804  96.6645030
  54.3048412  20.4396885  96.1476079  43.8952159  21.3594718  86.7932922
  44.5326106  21.1206466  87.3384715  44.3207231  21.5631877  86.0586083
  44.0528325  21.3545728  86.7650079  38.5864802  23.5983055  90.6767226
  38.6268947  23.8697906  89.8487005  39.1459326  24.1224963  91.0925014
  38.6748148  23.7158810  90.6159114  44.5354974  16.5797008  81.1307811
  44.9200127  16.3604715  81.8824356  44.2866595  17.4059953  81.2608888
  44.5557047  16.6695154  81.2608888  44.7023515   9.8603423 100.8470396
  44.3876956  10.6302986 100.5839958  44.3813447   9.2973679 100.2622622
  44.6082434   9.8913692 100.7211745  55.2690162  20.3543646  92.1418480
  54.9635979  21.0871702  92.5031796  54.5496377  19.9481575  91.8611266
  55.1177504  20.4025379  92.1531617  46.2773631  21.8367141  88.4726708
  46.3512639  21.6742313  89.3268558  47.0943138  22.0257330  88.2287190
  46.4089990  21.8403883  88.5624734  60.9691954  16.9936646  91.4686824
  60.9016454  17.0132605  90.5989411  60.9547616  17.8366973  91.6942495
  60.9570710  17.1210381  91.3739301  40.0379388  22.1825004  85.5021152
  39.2117506  22.4286741  85.3755430  40.0991379  22.1037084  86.3683210
  39.9253555  22.2069953  85.6110096  42.2555412   8.2493945  86.4616592
  41.3877837   8.3216544  86.5274201  42.5430616   9.0516024  86.6504567
  42.1695160   8.3788092  86.4991358  51.3788300   8.3971804  94.7927914
  52.1241892   8.2081614  94.3791339  50.9625605   8.9230042  94.2341770
  51.4273275   8.4473949  94.6492487  44.8178217  24.8001884  83.2040182
  45.1076515  24.4090865  82.4799408  45.5481698  24.9818589  83.6445457
  44.9685101  24.7695698  83.1622989  58.7550571  15.7681032  89.7433419
  59.3058493  15.1349102  89.9830511  58.7394687  16.2996425  90.4348923
  58.8335768  15.7529981  89.8812277  45.4072962  19.6019630  94.2893312
  44.9084656  20.3135397  94.3678201  46.2173186  19.9220296  94.2511474
  45.4529069  19.7546478  94.2949881  42.7584133  26.7769266  86.2700331
  42.5384428  26.4866621  87.0626998  42.5378655  26.1184221  85.7418244
  42.6931727  26.6368975  86.3089240  41.6701080  18.8642583  88.5356033
  41.3814328  18.2380054  89.0701760  42.5384428  18.8062870  88.6020713
  41.7561332  18.7630127  88.6246988  52.4578977  14.0077366  88.8538015
  52.1143743  13.2867701  89.2045265  52.5572020  13.7991217  88.0116373
  52.4221020  13.8701569  88.7809695  44.9252088  28.1498656  85.0531024
  45.5776146  27.6175098  85.2822050  44.2277697  27.7967309  85.4398898
  44.9182806  28.0188179  85.1443191  41.8733353  20.5037834  84.4598398
  42.6279321  20.8850873  84.6733861  41.2803966  20.9548977  84.9145095
  41.8970067  20.6266661  84.5581276  52.9192007  20.4703070  84.3962003
  53.4850039  21.1296280  84.3120546  52.2719910  20.8152768  84.8678405
  52.9070763  20.6185012  84.4534759  44.3340020  12.4600674  99.5855610
  43.5239796  12.7658454  99.4745453  44.8114707  13.1806257  99.7008194
  44.2843499  12.6115275  99.5862681  43.1931580  21.6746395  89.8338513
  42.6712333  21.8146687  90.5190378  43.5805600  20.9157059  90.0240631
  43.1735281  21.5831919  89.9639590  40.1822764  11.7252204  83.9033468
  39.8947559  11.3553474  83.1665415  40.8693232  12.1947059  83.6417173
  40.2411661  11.7399173  83.7548544  49.3898585  23.4141854  83.8199082
  49.1485261  22.6809715  83.4126147  49.5699918  23.9628711  83.1665416
  49.3806209  23.3864246  83.6629305  44.6197905  18.7050414  85.2320004
  44.4240688  19.3125149  84.6380307  44.8432251  18.0118358  84.7511678
  44.6232546  18.6927940  85.0736085  43.0176435  15.5905152  85.3500873
  43.7399087  15.7546310  84.8904679  42.5384428  16.3114817  85.2440213
  43.0540166  15.7203382  85.2666487  50.9769943  11.9268951  90.7297558
  50.1381044  11.9530230  90.4935821  51.0474310  12.5739686  91.3102904
  50.8638336  12.0265077  90.7806675  40.6684052  17.9963224  94.4555013
  41.1805149  18.2747478  93.8063772  40.3820395  18.7352519  94.8217826
  40.7018915  18.1465578  94.4144891  49.4239221   8.8254328  85.4625174
  50.1265574   8.6262076  84.9845132  49.1583410   8.0530270  85.7694017
  49.4885853   8.6817294  85.4370615  54.8527467  17.1336938  88.0158800
  54.7661441  17.2892364  88.8693578  54.3977947  17.7775013  87.6418205
  54.7730723  17.2512693  88.0865906  37.7550958  12.5033416  84.7518749
  37.8567095  13.3059578  85.0799725  38.5506845  12.3020752  84.4541830
  37.8878864  12.5919315  84.7554105  44.1867777  10.0889613  94.5156054
  43.9950974  10.1044748  95.3655478  45.0366373  10.2853287  94.4922709
  44.2843499  10.1203964  94.6379349  38.5714690  12.6180595  92.4939871
  38.4300182  11.7664535  92.6184379  38.8555254  12.6609255  91.6702077
  38.5922536  12.4980345  92.3907495  48.7253283  14.4547685  86.6384359
  48.4787997  14.3743436  87.4721148  49.0538406  13.6701153  86.4446887
  48.7374526  14.3273950  86.7331882  52.6201332  21.1631044  90.4271140
  52.4815691  21.8612090  90.9319883  51.8401329  21.0079701  90.0707322
  52.4844558  21.2431211  90.4497414  50.9579417  17.4627419  96.6793522
  50.9527455  16.5907236  96.6835948  51.6640411  17.6615589  96.2062978
  51.0624421  17.3631294  96.6100557  44.6850310  17.1904403  96.0507342
  44.8293686  17.7705612  95.4150452  45.0325959  17.5680700  96.7557197
  44.7577771  17.3325107  96.0606337  46.8570227  16.3894572  93.8332474
  46.1093541  16.5825586  93.4280752  47.0111753  15.5639791  93.5956595
  46.7692655  16.2959683  93.7377880  43.7578065  25.3807175  92.9168369
  43.9067629  24.8210091  92.2641773  44.5378067  25.4599177  93.3000888
  43.8952159  25.3092741  92.8765318  54.1154704  20.5209298  81.1887640
  53.7361513  19.7346436  81.1816929  53.4520950  21.0696155  81.0459284
  53.9613179  20.4854122  81.1668436  46.2831366  25.5521818  94.1952860
  46.2075037  24.8830629  94.7503648  46.2121225  26.2539606  94.7093526
  46.2611973  25.5566725  94.3529708  47.0972004  10.2845122  94.7227877
  47.5544619  11.0169097  94.8500670  47.1728333   9.8611588  95.4815133
  47.1762974  10.3302361  94.8528954  39.3404996  10.5310942  95.8117321
  38.8047185   9.9191300  96.1278088  39.4022760  11.1059078  96.4650988
  39.2700628  10.5257870  95.9552748  51.5699330   3.4634998  88.5921720
  51.6882898   3.9211461  87.8589023  51.3961506   2.6580259  88.3057938
  51.5618501   3.4128770  88.4422654  46.9401613  24.0722817  85.0276466
  47.7051504  23.8032461  84.7059130  46.8379703  23.5872827  85.7446529
  47.0383108  23.9612382  85.0856293  44.9754382  12.2747226  91.5669701
  44.1850457  12.0938686  91.8887037  45.3715005  11.4974179  91.5499996
  44.9171259  12.1334687  91.6122250  49.4620273  21.1035001  77.0076415
  50.2293258  21.1635126  76.5982267  49.0151582  20.5315442  76.5232734
  49.5093700  21.0271576  76.8754125  50.3598069  19.9089657  89.2929147
  49.6843070  19.6774889  89.7942534  50.3690445  19.3010839  88.6671252
  50.2616573  19.7848582  89.2745300  47.4892213  14.7507486  96.0493200
  47.4251354  15.6117442  95.9213337  47.6289400  14.4339479  95.2488752
  47.5007683  14.8307652  95.9121413  52.3614803  22.7654789  81.5239325
  52.4434641  23.5721775  81.2000776  52.8464545  22.7850748  82.2480099
  52.4451961  22.8875451  81.5826224  46.1711307  17.4439625  90.1909403
  45.7473556  17.6444124  89.4548422  45.9956162  16.5968473  90.3033703
  46.0822187  17.3488406  90.0983093  45.6723000  28.9590138  92.6530861
  46.1618930  28.2600927  92.4706525  45.1007232  28.6614008  93.2406918
  45.6607530  28.8116361  92.7131901  41.4593752  17.9391676  85.6237376
  41.6158371  17.8738479  86.4793368  41.7994345  18.7140229  85.4116055
  41.5326986  18.0440874  85.7191970  47.9972896  17.3149560  84.4930739
  48.5388442  16.8119941  84.9569360  48.3119455  17.2614755  83.6820224
  48.1237293  17.2328981  84.4414551  51.8690004  21.5252207 101.6057651
  52.6824869  21.2537356 101.7662784  51.7084970  21.2259747 100.8017847
  51.9659952  21.4407133 101.5103057  46.1659346  22.7066911  81.7770767
  46.2352166  21.8481450  81.9163767  46.9447801  22.9238792  81.4489792
  46.2912196  22.6119775  81.7487924  49.1462166  12.2085864  94.5453039
  49.3604135  11.5696779  93.9916393  48.5296065  12.6531688  94.1160901
  49.0867495  12.1796008  94.4003471  50.5566833  25.1304613  85.9907260
  50.1646625  24.8271328  85.2730127  50.7119906  25.9673703  85.8012214
  50.5220423  25.2088449  85.8563757  38.0328013  15.1226627  85.9398143
  38.4126978  15.5411172  85.2758410  37.4583378  15.7040082  86.2466986
  38.0039338  15.2704486  85.8874884  51.3101254  13.8174930  95.4836347
  50.4977935  13.5100820  95.5649519  51.7691188  13.3373930  96.0479059
  51.2581638  13.7011422  95.5790941  50.7206508  21.6954602  85.9313291
  50.3621163  21.8669244  86.7077323  50.2345219  22.1567807  85.3741289
  50.5965205  21.7893573  85.9638560  48.5376894   5.3185800  89.5340382
  47.6670452   5.2924521  89.4873692  48.7917235   5.1462992  88.7166228
  48.4470454   5.2895944  89.4060519  45.5094874  17.3753767  78.4713525
  45.7987398  18.1518649  78.7457100  45.5966672  16.8642498  79.1728025
  45.5649130  17.4145685  78.6156023  48.4054761  15.2235001 100.2665049
  48.8754392  15.8477117 100.6532923  48.4516641  14.5551977 100.8258264
  48.4822637  15.2169681 100.4065120  45.5626035   7.3292028  90.9913853
  45.0464523   6.6372220  91.1165432  45.0019964   7.9962806  90.9376451
  45.4032548   7.3255286  91.0019919  47.6318268   7.8684988  92.8206705
  47.2450021   7.8934020  93.6020235  47.1451205   7.3026667  92.3681222
  47.5030777   7.7880739  92.8694609  51.8811248  22.5858497  96.8780492
  52.5190968  22.0918693  96.5442948  51.2385339  22.5135898  96.2932719
  51.8805474  22.5017506  96.7422847  53.6068248  14.4347643  91.4446407
  53.1795856  14.3473992  90.6894507  52.9694301  14.5425419  92.0301251
  53.4497855  14.4380303  91.4191849  47.2975410   4.7551974  95.1116965
  47.9268528   5.2912274  94.8338036  47.4661273   4.6629333  95.9630531
  47.4153204   4.8213336  95.1965493  47.0989325   9.5423169  97.3843377
  47.9262754   9.2708318  97.4401991  47.1197171  10.3384010  97.7407195
  47.2242175   9.6202923  97.4458560  51.9365504  23.2778306  93.5185849
  52.7257882  22.9267370  93.6387930  52.1109102  24.0914694  93.2562482
  52.0785786  23.3464163  93.4973717  41.6758815  16.6887031  90.5713637
  40.8346821  16.5890906  90.7792531  41.8848822  17.4582512  90.9227958
  41.5823507  16.7879075  90.6540952  39.1534381  14.3106568  88.3998388
  38.7591079  14.3849580  87.6248498  38.5974498  14.6964515  88.9506750
  39.0137194  14.3788343  88.3666048  50.7899328   7.2887862  88.0802267
  50.9948922   7.2210170  88.9259264  50.4625752   8.0946684  88.0123444
  50.7714576   7.3973803  88.1961922  45.4875479  14.6168431  89.8211235
  45.1838617  14.0624419  90.4221643  44.7854900  14.7960641  89.3339269
  45.3391689  14.5613213  89.8380941  44.5441577  11.9268950  84.3855937
  44.8201311  11.2087863  83.9733504  45.1440246  12.5253870  84.1777043
  44.6734841  11.9089321  84.2936698  43.5493830  21.8318151  94.5283333
  43.4414185  21.8420214  95.3945391  43.7589612  22.6572932  94.3388286
  43.5643941  21.9559226  94.6287424  54.0433016   7.8419627  87.5605032
  53.4307330   8.3290029  87.9458764  54.1397191   7.1663118  88.1042684
  53.9670914   7.8137935  87.6983891  48.0452097   9.5982468  82.6602532
  48.4995844   9.7693028  83.3850376  48.5192143   8.9850579  82.2600307
  48.1820417   9.5333353  82.7076293  41.5667622  19.0830794  91.9905270
  40.9755556  19.7240292  91.9608285  42.3288646  19.5068411  91.9636570
  41.5915883  19.2406632  91.9820417  41.9628245  10.2432792  92.6573288
  42.4229727  10.3171721  93.3948412  42.0084352  11.0414046  92.3073109
  42.0378801  10.3726939  92.7146044  43.6111595  10.9099486  97.2245315
  43.2197160  10.2632834  97.6601093  43.7797458  11.5010922  97.8439570
  43.5782505  10.9013754  97.3808021  57.6858044  18.9136563  92.9882549
  57.7441168  19.3623212  93.7342525  57.0524512  19.3235376  92.5512629
  57.6009339  19.0410298  93.0335097  51.3257139  24.5340105  89.4237295
  51.1276827  25.0230920  88.7293506  50.7044850  24.7381347  90.0021428
  51.2044703  24.6356644  89.4060518  45.3865117  16.3025002  83.7647539
  46.1307162  16.6899279  84.0030489  45.5325813  15.4582428  83.9288027
  45.5175702  16.2355475  83.8241509  47.3044692   8.0975261  88.7979400
  46.4580738   8.2698069  88.6720750  47.3015825   7.2924605  89.1345229
  47.1791842   8.0036290  88.8290527  48.3742993  11.8750476  89.6641458
  47.9002947  11.3492238  90.1746769  48.7461129  11.3279948  89.0956320
  48.3592882  11.7166472  89.6556606  38.7516023  13.8721982  95.0325004
  39.6141636  13.7717691  94.9462334  38.4207806  13.2916692  94.4710576
  38.8301219  13.7713609  94.9370410  54.6379723  16.9352851  91.0748239
  54.3977946  16.0959266  91.0790665  55.1171731  17.0153018  91.7989012
  54.6731907  16.8234251  91.1823041  50.3026493  12.7687030  82.7267212
  49.7749511  12.8515774  82.0372921  50.7622201  13.5104902  82.7231857
  50.2928343  12.8907692  82.6241907  56.6384910  13.7154308  89.0277498
  56.3994680  13.6750143  88.1898283  56.8018812  14.5625460  89.1543219
  56.6275214  13.8346393  88.9230980  53.2430941  18.1004258  94.9582543
  53.9665139  17.6476784  94.7793563  52.9780903  18.3808923  94.1754871
  53.3112214  18.0755226  94.8161258  42.1117809  12.6964431  91.6935422
  41.4870879  12.7082823  91.0861375  41.7763404  13.1724606  92.3426662
  41.9703301  12.7682948  91.6991991  42.2959558  11.0389550  77.7508107
  41.9472362  11.6909275  78.2139657  41.8156003  11.0246663  77.0231978
  42.1729802  11.1332603  77.7119199  38.8243485  20.7564891  93.1339187
  38.2943409  20.0657330  93.1834161  39.0968578  20.7475077  92.3051895
  38.7868207  20.6532023  93.0186603  49.8563575  21.3390594  81.8576869
  50.5797774  21.8048707  81.7141442  49.4164166  21.4064203  81.1074466
  49.8979267  21.4174430  81.7261651  49.0249730  18.1988136  93.1077558
  48.4106723  17.6546186  93.4026193  49.5417015  17.6852372  92.6283374
  49.0105393  18.0424545  93.0801787  48.2646027  19.2692406  90.8421857
  47.8373635  18.6442125  90.4087292  48.2570972  18.9867328  91.6680864
  48.2005168  19.1345187  90.9001684  41.3808554  14.3057579  93.9110291
  41.5402041  13.5500903  94.3162013  41.2001448  14.8548519  94.5651028
  41.3773913  14.2751393  94.0672997  49.3228857   6.4718815  94.4661080
  48.8269419   6.6682489  93.7752647  50.0797919   6.8711483  94.2949882
  49.3615682   6.5596548  94.3381217  46.5931737  10.1461160  91.0564391
  46.6174224   9.6121273  90.3677171  46.8443211   9.6378469  91.7189981
  46.6341656   9.9922064  91.0529035  34.1039327  17.4292655  90.4907535
  33.9982776  17.3839500  89.6259619  33.3539547  17.7746436  90.7721820
  33.9774930  17.4733564  90.4044865  42.8733059   8.8731979  90.4370135
  42.9131431   9.3741185  91.1504843  42.0482724   8.9642372  90.1676058
  42.7572585   8.9613795  90.5020673  45.0562672  18.4392719  98.5390430
  44.2058303  18.5764433  98.6748075  45.2190800  17.7056497  98.9838131
  44.9546536  18.3506820  98.6246029  44.2947423  15.3892489  92.7344034
  43.4639352  15.5566307  92.5279282  44.2398940  15.0128439  93.5192919
  44.1636837  15.3582220  92.8192562  42.1031206   8.8801381  98.3700445
  42.7283909   8.3363514  98.6429877  41.6481686   8.3996299  97.8008235
  42.1279466   8.7290863  98.3262039  42.6683466  13.6648080  83.2634152
  42.8086427  14.1620544  83.9662793  43.1665999  12.9634375  83.4048365
  42.7624547  13.6350059  83.3885731  42.6983689  14.5315191  80.5926729
  43.3328768  15.1275616  80.5276190  42.7809300  14.2318649  81.4072599
  42.8040240  14.5756099  80.7029815  55.6766255  17.0630669  93.4613093
  56.2684095  17.7027919  93.4931291  56.1125249  16.3653705  93.7505160
  55.8284686  17.0549019  93.5093925  44.2762672  10.4629167  80.5672171
  44.5978513   9.9832249  79.9131433  44.5389615  11.2728813  80.3762982
  44.3628697  10.5119064  80.4427663  47.5059644  21.4848041  94.0870987
  46.9984735  22.0383888  94.5311617  47.2086291  21.5456331  93.2689761
  47.3864529  21.5754352  94.0319443  49.6721827   9.8501361  92.9295650
  50.0976898   9.3973887  92.3179176  49.0578820   9.2961431  93.2060437
  49.6450472   9.7015337  92.8800675  39.2036677  16.7283032  83.8616275
  39.7128906  17.3247539  84.2427580  39.6770949  16.4609006  83.1792694
  39.3480052  16.7768847  83.8170797  50.1167425  25.4011299  82.0174930
  49.3996734  25.2272161  81.5522168  50.7674162  25.1663871  81.4850416
  50.1069275  25.3407091  81.8704148  48.1116049   6.3216460  86.3386227
  47.4684367   6.1714107  86.9071365  47.7715456   6.0758806  85.5735331
  47.9661127   6.2628583  86.3089242  52.7015396  14.2775887  85.7616235
  52.0306586  14.8205589  85.6329301  53.3955146  14.7470742  85.5197930
  52.7044263  14.4274158  85.7071763  46.7502130  26.4172599  90.9927994
  46.5267784  25.6591428  91.3612020  46.2611973  26.4470620  90.2708433
  46.6445579  26.3094824  90.9404735  52.8643523  10.7331771  88.6706609
  53.2171133  10.3061494  89.3452407  52.0058325  10.6482614  88.8007685
  52.7892968  10.6576511  88.7901619  41.5627208  13.3639290  86.7289455
  40.8439198  13.7803423  86.9962319  41.9339571  13.9293529  86.1781093
  41.5119140  13.5088572  86.6872262  50.8626789  13.9967139  92.6191451
  50.8424717  13.8150435  93.4726230  50.9105990  14.8679158  92.5951034
  50.8661430  14.0983678  92.7414746  48.8073119  20.5854331  98.5439927
  48.7668974  19.9404008  97.9585083  49.6196437  20.5290949  98.8565339
  48.9216273  20.4813298  98.5036877  45.3980587  26.6373057  88.4465078
  44.9840985  25.9747187  88.0568920  46.0827961  26.7850916  87.9260772
  45.4378958  26.5613715  88.3121575  48.7645881  25.7963143  89.1988695
  48.3662164  25.9065413  88.4309515  48.1497100  26.0045209  89.7815255
  48.6144770  25.8436711  89.1719994  47.3373783  12.4037290  82.0662835
  46.7438622  12.7254287  81.5147402  47.3749060  11.5578386  81.8583941
  47.2548172  12.3261619  81.9545606  54.2967583   5.8550183  89.5990921
  53.7898448   5.1479322  89.5312099  55.0935017   5.5243371  89.7291998
  54.3394823   5.7023334  89.6089916  50.2131599  12.3616795  85.4964585
  49.9845292  12.3849496  84.6542943  50.4729676  11.5374262  85.6159595
  50.2177787  12.2432875  85.3889782  44.4950828  14.2151268  95.0989685
  43.9829731  13.6072451  95.4574716  44.3230324  14.9307860  95.5663661
  44.3940465  14.2314567  95.2205909  39.3416542  12.6588843  97.7492047
  39.1719133  13.3190218  97.2040253  38.8982492  12.8695404  98.4704536
  39.2515876  12.7874825  97.7753676  43.2676362  10.8993341  86.7918780
  43.7433728  11.2610421  86.1568962  42.7664961  11.5549809  87.0718923
  43.2641721  11.0487530  86.7395521  56.4987723  20.3715109  82.5831785
  56.8821329  21.1206465  82.8129882  55.7031837  20.6180929  82.3243775
  56.4381506  20.5184803  82.5789359  48.3719898  12.1375513  97.5391941
  48.9291328  11.9089322  96.9070406  48.0480963  12.8981178  97.2627153
  48.4066308  12.2159349  97.4048438  36.2418607  15.5635709  93.0080537
  35.6945326  14.8936354  93.1261405  37.0310985  15.1965557  93.0724004
  36.2770791  15.4100695  93.0349237  46.0903015  15.2243166  98.5043948
  46.8414342  15.5394843  98.8183502  46.2825592  15.0222337  97.6777869
  46.2294430  15.2410548  98.4287343  45.3103015  13.0434541  80.1592164
  45.6901980  13.0614170  79.3743279  44.5695611  13.4888530  80.0383012
  45.2571853  13.1116316  80.0255733  52.9388306  11.3516732  85.7467743
  52.9382532  11.1965389  86.6052019  52.7344486  12.1979719  85.6909129
  52.9088083  11.4537353  85.8655683  35.0005576  14.7756517  90.1626560
  34.8227338  14.3233126  90.8881475  34.7124599  15.5782678  90.3465037
  34.9318530  14.8279074  90.2970063  50.6629158  16.0314234  89.4003950
  51.1582823  15.3137229  89.3607970  49.8528933  15.7285032  89.2858437
  50.6173051  15.8811880  89.3777676  46.1087769  19.8812047  81.5500954
  45.2999092  19.5578721  81.5034264  46.6162678  19.1745269  81.4829203
  46.0637436  19.7293364  81.5331249  36.7378046  17.3084240  87.2748319
  35.8723566  17.2969931  87.1631090  36.8376862  17.1214463  88.1219458
  36.6252213  17.2790302  87.3837263  52.7280976  18.7817921  92.0881079
  53.1536048  18.2592343  91.5351504  52.3637896  19.3798759  91.5669702
  52.7367579  18.7928148  91.9290088  42.3635056  27.0782139  90.8478424
  42.6781615  27.8918527  90.8556206  42.7728470  26.6932358  91.5160583
  42.4703154  27.1410841  90.9482516  49.3159576  22.4952186  88.4182236
  49.7870754  23.2092448  88.5872221  49.6519754  21.8950936  88.9542106
  49.4354691  22.5123650  88.5214612  51.4036560  24.1053499 100.5974308
  51.5133526  23.3162060 100.9531055  51.7327457  24.0159435  99.7948646
  51.4688966  23.9759352 100.5316699  46.2329071   7.2679656  95.3740331
  46.3656976   6.4710650  95.7021307  46.6174224   7.7946059  95.9538607
  46.3085400   7.2279573  95.5083834  49.9533522  22.2870120  95.1809929
  49.4054468  21.6628003  94.9129994  50.4146551  22.4764392  94.4654008
  49.9400732  22.2229170  95.0360360  49.3061426   4.1909982  91.9721424
  48.5007390   4.0807712  92.2889263  49.1768161   4.2922438  91.1151290
  49.1681559   4.1893652  91.8929465  52.7627387  10.3555474  92.5661121
  52.1790375  10.8564681  92.1538689  53.0831681   9.8485031  91.9325444
  52.7240562  10.3547309  92.4119628  45.3022186   9.2696069  82.8419796
  46.1237880   9.4394382  82.6001491  44.8391837   9.4243330  82.1186094
  45.3553348   9.3177802  82.6991440  43.8917518   7.2638831  93.6218225
  44.4361931   6.9229958  94.2122566  43.9454453   8.1224293  93.7639509
  43.9806637   7.3394091  93.7300098  39.7048076  21.0255247  90.4957033
  40.3092934  20.9851082  89.8670853  39.4975389  21.8726399  90.5261088
  39.7636974  21.1443250  90.4073149  49.5191849  23.2921193  91.7119270
  50.3390222  23.1484159  91.9735565  49.2385926  23.9167391  92.2535708
  49.5988592  23.3631545  91.8307209  34.9399359  20.0089865  90.3655956
  34.8423637  19.1986136  90.6746012  35.7228228  19.9881658  89.9802224
  35.0415495  19.8856955  90.3542819  59.1905184  30.0361695  89.4315077
  58.3343079  30.1970194  89.4824194  59.2372837  29.1653759  89.4520138
  59.0704295  29.9312497  89.4421143  53.5746323  39.5724413  85.1952308
  52.8229223  39.1939951  84.9668353  54.0232335  39.6042847  84.4471119
  53.5295990  39.5210020  85.0509811  62.4998900  36.3048221  99.0375533
  63.2065668  35.8100252  99.1662467  62.6886836  36.7457302  98.3078191
  62.6326806  36.2966571  98.9484578  62.0357005  32.0953739  92.0746728
  62.5812965  32.7738826  92.1340698  61.9773881  31.9541200  91.2148310
  62.1072919  32.1745741  91.9558789  55.1531080  39.5842805  87.4615081
  55.2541443  38.7743159  87.7712209  54.5572825  39.4899752  86.8314759
  55.0803618  39.4507833  87.4141319  48.3496124  35.6063092  87.0867415
  48.1146308  34.7730744  86.9799683  48.4881765  35.8867758  86.2728616
  48.3351786  35.5246595  86.9509770  50.6486211  27.7748822  89.9851722
  50.0291243  27.1841470  89.8161737  50.5470075  28.3660258  89.3516045
  50.5423887  27.7752905  89.8656712  55.6952399  37.5132369  84.2349799
  56.0168240  38.0537577  83.6311107  56.3424495  36.9429141  84.3672088
  55.8378454  37.5091544  84.1656834  57.7454107  29.5148364  84.3184185
  58.4434272  29.6936492  84.8105649  58.0606440  28.9918704  83.6954575
  57.8949444  29.4642136  84.2986195  50.3755344  31.3201104  92.2295291
  50.2514041  31.9063550  92.8645110  51.0273629  30.8261300  92.5307566
  50.4528994  31.3339909  92.3681221  57.9342042  35.9018809  84.3063977
  58.3735678  35.2935910  84.7518750  57.7846705  35.5226183  83.5349442
  57.9763508  35.7557280  84.2583144  55.4013685  34.4962821  91.5082802
  56.0462688  34.0035264  91.1893751  55.6415462  34.6387608  92.3348881
  55.5324270  34.4440263  91.5832336  57.9399777  37.3417727  91.1589695
  58.2223020  36.5469133  90.9376451  58.6685937  37.8198314  91.1794756
  58.0889340  37.2952324  91.1292710  55.9180971  24.8840761  88.4005460
  55.5884301  25.3351904  87.7309159  55.2425972  24.8056924  88.9478466
  55.7691407  24.9391896  88.3828683  61.5351379  34.2545991  81.2594746
  61.4502674  35.1106957  81.4044315  62.0235762  33.9790315  81.9276905
  61.5940276  34.3403312  81.3796828  63.1257378  20.8726284  86.6455071
  62.8110819  21.5629762  87.0775493  62.6084320  20.8171066  85.9440571
  63.0021849  20.9661172  86.6052020  62.4669812  30.8730785  82.7592481
  61.9381284  31.0890418  83.4189787  62.9894832  31.5666923  82.6793451
  62.4658265  31.0073922  82.8448080  54.3569420  34.7694002  81.5599949
  53.7726635  35.2744033  81.9665813  53.9539515  34.5436388  80.8196541
  54.2108724  34.8102250  81.5104974  49.9113449  40.4848763  88.3623621
  49.4281027  41.2099252  88.3383204  50.7236767  40.7824893  88.4733778
  49.9604196  40.6351116  88.3750900  55.9827603  39.2780943  90.9673435
  55.4654544  38.9188358  90.3634743  56.6801994  38.7543118  90.9779501
  56.0093184  39.1478631  90.8803694  59.6391195  39.7275757  96.9289608
  59.7274540  39.5401898  97.7767819  60.0680907  39.0813187  96.5294455
  59.7153297  39.6038765  96.9961360  57.2061654  39.0106917  95.9107270
  56.6432489  38.5979527  96.4346932  57.9682678  38.9359823  96.3300414
  57.2356103  38.9384318  96.0500271  58.8146634  31.0159654  80.0368870
  59.0542638  31.2237637  79.2244213  59.1362475  30.2117162  80.1457814
  58.8983792  30.9273755  79.9329423  54.1236925  22.9453049  83.8828408
  54.8782893  23.3131366  83.6445458  53.9464459  23.3192604  84.6507587
  54.2091403  23.0551237  83.9613296  52.7657646  41.0004939  88.5143901
  53.4678225  40.4856928  88.5716657  52.6855129  41.3279090  89.3190776
  52.8581406  40.9719165  88.6416693  67.4171823  29.0947490  91.9275947
  66.5800244  29.1649677  92.1623541  67.3860054  29.0971985  91.0550249
  67.2890106  29.1057717  91.8335495  53.8136552  31.2380525  97.6424316
  53.9857056  31.1286420  98.4909597  54.3505910  31.8834931  97.4055508
  53.9181556  31.3172527  97.7329412  52.4793989  25.3523368  80.5806521
  52.2969563  25.5695249  79.7547513  53.3419602  25.4662381  80.6365135
  52.5798579  25.4013266  80.4661008  52.0908421  37.1911291  88.0229509
  52.9297321  37.4234223  88.0703270  52.1220190  36.3215602  87.9536544
  52.2190139  37.0968237  88.0194153  52.7161124  37.6112166  92.3242814
  53.2559349  37.4683297  92.9946186  52.0331071  38.0108917  92.6926840
  52.6953278  37.6491837  92.4777236  58.1593708  22.3549779  83.6155544
  58.8879869  22.1765734  83.1693701  58.2488601  23.1967859  83.8262723
  58.2800371  22.4533657  83.5809062  62.1402009  33.2903166  87.5187838
  62.8959524  33.7234681  87.5576747  62.2464334  32.6407936  88.0922475
  62.2672180  33.2580650  87.6085864  59.7511254  39.1584776  99.5933392
  60.5351671  39.2715624  99.9589134  59.5507848  38.3325914  99.7892078
  59.8377279  39.0531496  99.6767778  48.1198269  33.8312457  92.4777236
  47.8536685  33.0151573  92.6368226  48.1336833  33.8765612  91.6072751
  48.0822992  33.7169361  92.3730718  65.0979663  24.1590271  90.5119669
  65.7405572  24.2288376  91.0981585  65.3502684  23.4919494  90.0099211
  65.2301795  24.0716620  90.5246949  52.0256016  28.6297541  79.0928994
  51.3114193  28.3435720  79.5051426  52.5099985  28.9694167  79.7335381
  51.9915380  28.6379191  79.2484629  52.8696876  27.3690835  95.1244243
  52.1768672  26.8987815  95.3704975  53.4857203  27.1429139  95.6985950
  52.8581406  27.2657967  95.2453396  59.9081647  41.0694878  93.2399847
  59.1096893  40.8294379  93.4973716  60.3567659  41.1209271  93.9866895
  59.8556258  41.0417270  93.3884772  59.2003334  37.1327495  79.4690802
  59.6154483  36.8012519  78.7775298  58.3695264  36.8996397  79.3410939
  59.1391343  37.0498751  79.3481649  48.5291683  34.6171236  89.7588980
  48.3467256  34.5918122  88.9061272  49.2641352  35.0870174  89.7977889
  48.6105747  34.6832598  89.6386898  51.5937435  31.3356239  96.2671089
  52.3177407  31.3209269  96.7535983  51.6953571  32.0451594  95.7693057
  51.7155644  31.4380942  96.2649875  58.9682384  34.8155323 101.1320036
  58.1755365  35.1298835 101.3172655  59.0831311  35.0306792 100.2940820
  58.8677795  34.8939160 101.0358370  61.6413703  31.5389315  85.4215051
  61.7360557  32.2778609  85.8754677  61.0172547  31.1106790  85.8549616
  61.5622733  31.5850635  85.5523199  59.8966177  34.7175527  96.0705332
  60.4705039  34.0802771  96.2253896  59.8180981  34.7179610  95.2014990
  59.9699412  34.6240639  95.9651743  48.4962593  31.4964737  89.9088046
  49.0736096  31.3601187  90.5480292  47.7976655  31.0400521  90.1633631
  48.4783615  31.4087003  90.0410336  55.2529895  33.1498792  88.1226530
  54.9949140  32.3170527  88.0957829  55.3078378  33.3756405  87.2819030
  55.2229673  33.0596564  87.9946666  60.3330946  25.2527243  88.2230622
  59.6287272  24.7636428  88.3814542  60.3815920  25.2649717  87.3519067
  60.2360997  25.1816891  88.1169962  54.2264608  30.7036555  88.6091424
  53.6514199  30.8628723  89.2455385  53.8500284  30.0671964  88.1459875
  54.0867420  30.6334368  88.6345983  57.8937896  29.1759904  93.4683803
  57.5052329  28.7514122  92.8135994  57.2292595  29.4242054  93.9760830
  57.7384824  29.1498625  93.4471671  67.5361165  28.9334909  86.2431633
  67.2797730  28.1214850  86.0529516  68.3790479  28.9412476  86.0161820
  67.6227191  28.8146906  86.1816450  43.9721427  30.3476630  86.6235865
  44.0581678  29.9708498  87.4049395  44.5997224  29.9737075  86.1455823
  44.0777978  30.2362112  86.6681342  61.7164258  22.8734533  90.9807787
  62.0974770  22.1912704  91.3675661  60.9127542  22.5844135  90.7983452
  61.6540720  22.7301581  91.0111843  58.9976835  33.4058509  81.6660610
  59.8117473  33.6973401  81.5543381  58.9335976  32.7518371  81.0918903
  59.1079574  33.3523703  81.5649447  65.2186325  36.0884505  96.0790185
  64.9824962  35.2572570  95.9602246  65.8629554  36.0370112  96.6645030
  65.2780995  35.9582193  96.1476079  54.8684743  36.8780026  86.7932922
  55.5058690  36.6391774  87.3384715  55.2939814  37.0817185  86.0586083
  55.0260909  36.8731036  86.7650079  49.5597385  39.1168363  90.6767226
  49.6001530  39.3883214  89.8487005  50.1191909  39.6410271  91.0925014
  49.6480731  39.2344118  90.6159114  55.5087558  32.0982316  81.1307811
  55.8932711  31.8790023  81.8824356  55.2599178  32.9245261  81.2608888
  55.5289630  32.1880462  81.2608888  55.6756098  25.3788731 100.8470396
  55.3609539  26.1488294 100.5839958  55.3546031  24.8158987 100.2622622
  55.5815017  25.4099000 100.7211745  66.2422745  35.8728954  92.1418480
  65.9368562  36.6057010  92.5031796  65.5228961  35.4666883  91.8611266
  66.0910088  35.9210687  92.1531617  57.2506215  37.3552449  88.4726708
  57.3245223  37.1927621  89.3268558  58.0675721  37.5442638  88.2287190
  57.3822573  37.3589191  88.5624734  71.9424537  32.5121954  91.4686824
  71.8749038  32.5317913  90.5989411  71.9280200  33.3552281  91.6942495
  71.9303294  32.6395689  91.3739301  51.0111971  37.7010312  85.5021152
  50.1850089  37.9472049  85.3755430  51.0723963  37.6222392  86.3683210
  50.8986138  37.7255261  85.6110096  53.2287995  23.7679253  86.4616592
  52.3610421  23.8401852  86.5274201  53.5163200  24.5701331  86.6504567
  53.1427743  23.8973400  86.4991358  62.3520884  23.9157112  94.7927914
  63.0974476  23.7266922  94.3791339  61.9358189  24.4415350  94.2341770
  62.4005858  23.9659257  94.6492487  69.7283155  31.2866340  89.7433419
  70.2791076  30.6534409  89.9830511  69.7127270  31.8181733  90.4348923
  69.8068351  31.2715289  89.8812277  56.3805546  35.1204938  94.2893312
  55.8817239  35.8320705  94.3678201  57.1905770  35.4405604  94.2511474
  56.4261652  35.2731786  94.2949881  53.7316716  42.2954574  86.2700331
  53.5117011  42.0051929  87.0626998  53.5111238  41.6369529  85.7418244
  53.6664310  42.1554283  86.3089240  52.6433663  34.3827891  88.5356033
  52.3546912  33.7565362  89.0701760  53.5117011  34.3248178  88.6020713
  52.7293915  34.2815435  88.6246988  63.4311561  29.5262674  88.8538015
  63.0876327  28.8053009  89.2045265  63.5304604  29.3176525  88.0116373
  63.3953604  29.3886877  88.7809695  52.8465937  36.0223142  84.4598398
  53.6011905  36.4036181  84.6733861  52.2536549  36.4734285  84.9145095
  52.8702650  36.1451969  84.5581276  55.3072604  27.9785982  99.5855610
  54.4972379  28.2843762  99.4745453  55.7847290  28.6991564  99.7008194
  55.2576082  28.1300583  99.5862681  54.1664163  37.1931703  89.8338513
  53.6444917  37.3331995  90.5190378  54.5538184  36.4342367  90.0240631
  54.1467864  37.1017227  89.9639590  51.1555347  27.2437512  83.9033468
  50.8680143  26.8738782  83.1665415  51.8425816  27.7132367  83.6417173
  51.2144245  27.2584481  83.7548544  60.3631168  38.9327162  83.8199082
  60.1217844  38.1995023  83.4126147  60.5432501  39.4814019  83.1665416
  60.3538792  38.9049553  83.6629305  55.5930489  34.2235722  85.2320004
  55.3973272  34.8310457  84.6380307  55.8164834  33.5303666  84.7511678
  55.5965130  34.2113248  85.0736085  53.9909019  31.1090460  85.3500873
  54.7131671  31.2731618  84.8904679  53.5117012  31.8300125  85.2440213
  54.0272750  31.2388690  85.2666487  61.9502526  27.4454259  90.7297558
  61.1113627  27.4715538  90.4935821  62.0206894  28.0924994  91.3102904
  61.8370920  27.5450385  90.7806675  51.6416636  33.5148532  94.4555013
  52.1537733  33.7932786  93.8063772  51.3552978  34.2537827  94.8217826
  51.6751499  33.6650886  94.4144891  60.3971805  24.3439636  85.4625174
  61.0998158  24.1447384  84.9845132  60.1315993  23.5715578  85.7694017
  60.4618437  24.2002602  85.4370615  48.7283542  28.0218724  84.7518749
  48.8299678  28.8244886  85.0799725  49.5239429  27.8206060  84.4541830
  48.8611448  28.1104623  84.7554105  55.1600361  25.6074921  94.5156054
  54.9683558  25.6230055  95.3655478  56.0098957  25.8038595  94.4922709
  55.2576083  25.6389272  94.6379349  49.5447274  28.1365903  92.4939871
  49.4032766  27.2849843  92.6184379  49.8287837  28.1794563  91.6702077
  49.5655120  28.0165653  92.3907495  59.6985866  29.9732993  86.6384359
  59.4520581  29.8928744  87.4721148  60.0270989  29.1886461  86.4446887
  59.7107110  29.8459258  86.7331882  61.9312000  32.9812727  96.6793522
  61.9260039  32.1092544  96.6835948  62.6372994  33.1800897  96.2062978
  62.0357004  32.8816602  96.6100557  55.6582894  32.7089711  96.0507342
  55.8026269  33.2890919  95.4150452  56.0058542  33.0866008  96.7557197
  55.7310355  32.8510415  96.0606337  57.8302811  31.9079880  93.8332474
  57.0826125  32.1010894  93.4280752  57.9844336  31.0825099  93.5956595
  57.7425239  31.8144991  93.7377880  54.7310649  40.8992483  92.9168369
  54.8800212  40.3395399  92.2641773  55.5110651  40.9784485  93.3000888
  54.8684742  40.8278049  92.8765318  57.2563949  41.0707126  94.1952860
  57.1807620  40.4015937  94.7503648  57.1853808  41.7724914  94.7093526
  57.2344556  41.0752033  94.3529708  58.0704588  25.8030430  94.7227877
  58.5277202  26.5354405  94.8500670  58.1460917  25.3796896  95.4815133
  58.1495558  25.8487668  94.8528954  50.3137579  26.0496250  95.8117321
  49.7779769  25.4376608  96.1278088  50.3755344  26.6244386  96.4650988
  50.2433212  26.0443178  95.9552748  62.5431914  18.9820306  88.5921720
  62.6615482  19.4396769  87.8589023  62.3694090  18.1765567  88.3057938
  62.5351085  18.9314078  88.4422654  55.9486966  27.7932534  91.5669701
  55.1583041  27.6123994  91.8887037  56.3447589  27.0159487  91.5499996
  55.8903842  27.6519995  91.6122250  60.4352857  36.6220309  77.0076415
  61.2025842  36.6820434  76.5982267  59.9884166  36.0500750  76.5232734
  60.4826284  36.5456884  76.8754125  61.3330652  35.4274964  89.2929147
  60.6575654  35.1960197  89.7942534  61.3423028  34.8196147  88.6671252
  61.2349157  35.3033890  89.2745300  58.4624796  30.2692793  96.0493200
  58.3983937  31.1302750  95.9213337  58.6021984  29.9524787  95.2488752
  58.4740266  30.3492960  95.9121413  57.1443890  32.9624933  90.1909403
  56.7206139  33.1629432  89.4548422  56.9688745  32.1153781  90.3033703
  57.0554771  32.8673714  90.0983093  52.4326335  33.4576984  85.6237376
  52.5890954  33.3923787  86.4793368  52.7726928  34.2325537  85.4116055
  52.5059570  33.5626182  85.7191970  58.9705480  32.8334868  84.4930739
  59.5121025  32.3305249  84.9569360  59.2852039  32.7800062  83.6820224
  59.0969877  32.7514289  84.4414551  62.8422587  37.0437515 101.6057651
  63.6557452  36.7722664 101.7662784  62.6817553  36.7445055 100.8017847
  62.9392536  36.9592441 101.5103057  57.1391929  38.2252219  81.7770767
  57.2084750  37.3666758  81.9163767  57.9180385  38.4424100  81.4489792
  57.2644779  38.1305083  81.7487924  60.1194749  27.7271172  94.5453039
  60.3336719  27.0882087  93.9916393  59.5028648  28.1716996  94.1160901
  60.0600078  27.6981316  94.4003471  49.0060597  30.6411935  85.9398143
  49.3859561  31.0596480  85.2758410  48.4315961  31.2225390  86.2466986
  48.9771921  30.7889793  85.8874884  62.2833837  29.3360237  95.4836347
  61.4710519  29.0286128  95.5649519  62.7423772  28.8559238  96.0479059
  62.2314222  29.2196730  95.5790941  59.5109478  20.8371108  89.5340382
  58.6403036  20.8109829  89.4873692  59.7649819  20.6648300  88.7166228
  59.4203038  20.8081252  89.4060519  56.4827457  32.8939075  78.4713525
  56.7719982  33.6703957  78.7457100  56.5699256  32.3827806  79.1728025
  56.5381713  32.9330993  78.6156023  59.3787345  30.7420309 100.2665049
  59.8486976  31.3662425 100.6532923  59.4249225  30.0737284 100.8258264
  59.4555220  30.7354989 100.4065120  56.5358618  22.8477336  90.9913853
  56.0197107  22.1557528  91.1165432  55.9752547  23.5148113  90.9376451
  56.3765131  22.8440594  91.0019919  58.6050852  23.3870296  92.8206705
  58.2182605  23.4119328  93.6020235  58.1183789  22.8211975  92.3681222
  58.4763361  23.3066047  92.8694609  62.8543831  38.1043805  96.8780492
  63.4923552  37.6104001  96.5442948  62.2117923  38.0321206  96.2932719
  62.8538058  38.0202814  96.7422847  64.5800831  29.9532951  91.4446407
  64.1528439  29.8659300  90.6894507  63.9426884  30.0610727  92.0301251
  64.4230438  29.9565611  91.4191849  58.2707993  20.2737282  95.1116965
  58.9001111  20.8097582  94.8338036  58.4393856  20.1814641  95.9630531
  58.3885788  20.3398644  95.1965493  58.0721908  25.0608477  97.3843377
  58.8995338  24.7893626  97.4401991  58.0929754  25.8569318  97.7407195
  58.1974758  25.1388231  97.4458560  62.9098088  38.7963614  93.5185849
  63.6990466  38.4452678  93.6387930  63.0841686  39.6100002  93.2562482
  63.0518369  38.8649471  93.4973717  52.6491398  32.2072339  90.5713637
  51.8079405  32.1076214  90.7792531  52.8581406  32.9767820  90.9227958
  52.5556091  32.3064383  90.6540952  50.1266965  29.8291876  88.3998388
  49.7323663  29.9034888  87.6248498  49.5707082  30.2149823  88.9506750
  49.9869777  29.8973651  88.3666048  61.7631912  22.8073170  88.0802267
  61.9681505  22.7395478  88.9259264  61.4358336  23.6131992  88.0123444
  61.7447160  22.9159111  88.1961922  56.4608063  30.1353739  89.8211235
  56.1571200  29.5809727  90.4221643  55.7587484  30.3145949  89.3339269
  56.3124273  30.0798521  89.8380941  55.5174160  27.4454258  84.3855937
  55.7933894  26.7273171  83.9733504  56.1172829  28.0439178  84.1777043
  55.6467425  27.4274629  84.2936698  54.5226414  37.3503459  94.5283333
  54.4146769  37.3605521  95.3945391  54.7322195  38.1758240  94.3388286
  54.5376525  37.4744534  94.6287424  65.0165600  23.3604935  87.5605032
  64.4039913  23.8475337  87.9458764  65.1129774  22.6848426  88.1042684
  64.9403497  23.3323243  87.6983891  59.0184681  25.1167776  82.6602532
  59.4728427  25.2878336  83.3850376  59.4924726  24.5035886  82.2600307
  59.1553001  25.0518661  82.7076293  52.5400206  34.6016102  91.9905270
  51.9488139  35.2425600  91.9608285  53.3021230  35.0253719  91.9636570
  52.5648467  34.7591940  91.9820417  52.9360829  25.7618099  92.6573288
  53.3962310  25.8357029  93.3948412  52.9816936  26.5599354  92.3073109
  53.0111384  25.8912247  92.7146044  54.5844179  26.4284794  97.2245315
  54.1929744  25.7818141  97.6601093  54.7530041  27.0196230  97.8439570
  54.5515089  26.4199062  97.3808021  62.2989722  40.0525413  89.4237295
  62.1009411  40.5416228  88.7293506  61.6777433  40.2566655  90.0021428
  62.1777287  40.1541952  89.4060518  56.3597701  31.8210310  83.7647539
  57.1039746  32.2084586  84.0030489  56.5058397  30.9767736  83.9288027
  56.4908286  31.7540783  83.8241509  58.2777276  23.6160569  88.7979400
  57.4313321  23.7883377  88.6720750  58.2748408  22.8109913  89.1345229
  58.1524426  23.5221598  88.8290527  59.3475576  27.3935783  89.6641458
  58.8735531  26.8677545  90.1746769  59.7193712  26.8465256  89.0956320
  59.3325465  27.2351780  89.6556606  49.7248607  29.3907290  95.0325004
  50.5874220  29.2902999  94.9462334  49.3940390  28.8101999  94.4710576
  49.8033803  29.2898917  94.9370410  65.6112307  32.4538159  91.0748239
  65.3710530  31.6144574  91.0790665  66.0904314  32.5338326  91.7989012
  65.6464491  32.3419559  91.1823041  61.2759076  28.2872338  82.7267212
  60.7482095  28.3701082  82.0372921  61.7354784  29.0290209  82.7231857
  61.2660927  28.4093000  82.6241907  67.6117494  29.2339616  89.0277498
  67.3727264  29.1935450  88.1898283  67.7751395  30.0810768  89.1543219
  67.6007797  29.3531701  88.9230980  64.2163524  33.6189566  94.9582543
  64.9397723  33.1662092  94.7793563  63.9513486  33.8994231  94.1754871
  64.2844797  33.5940534  94.8161258  53.0850393  28.2149739  91.6935422
  52.4603463  28.2268131  91.0861375  52.7495987  28.6909914  92.3426662
  52.9435884  28.2868256  91.6991991  53.2692141  26.5574858  77.7508107
  52.9204946  27.2094583  78.2139657  52.7888587  26.5431971  77.0231978
  53.1462385  26.6517911  77.7119199  49.7976068  36.2750199  93.1339187
  49.2675993  35.5842638  93.1834161  50.0701161  36.2660385  92.3051895
  49.7600790  36.1717331  93.0186603  60.8296159  36.8575902  81.8576869
  61.5530357  37.3234015  81.7141442  60.3896750  36.9249511  81.1074466
  60.8711851  36.9359738  81.7261651  59.9982314  33.7173444  93.1077558
  59.3839307  33.1731494  93.4026193  60.5149599  33.2037680  92.6283374
  59.9837976  33.5609853  93.0801787  59.2378611  34.7877714  90.8421857
  58.8106219  34.1627433  90.4087292  59.2303555  34.5052636  91.6680864
  59.1737752  34.6530495  90.9001684  52.3541138  29.8242887  93.9110291
  52.5134625  29.0686211  94.3162013  52.1734032  30.3733826  94.5651028
  52.3506497  29.7936701  94.0672997  60.2961441  21.9904123  94.4661080
  59.8002002  22.1867797  93.7752647  61.0530503  22.3896791  94.2949882
  60.3348266  22.0781856  94.3381217  57.5664321  25.6646468  91.0564391
  57.5906808  25.1306581  90.3677171  57.8175794  25.1563777  91.7189981
  57.6074239  25.5107372  91.0529035  45.0771910  32.9477963  90.4907535
  44.9715359  32.9024808  89.6259619  44.3272130  33.2931744  90.7721820
  44.9507513  32.9918872  90.4044865  53.8465643  24.3917287  90.4370135
  53.8864014  24.8926493  91.1504843  53.0215307  24.4827680  90.1676058
  53.7305169  24.4799103  90.5020673  56.0295256  33.9578027  98.5390430
  55.1790886  34.0949741  98.6748075  56.1923383  33.2241805  98.9838131
  55.9279119  33.8692128  98.6246029  55.2680006  30.9077796  92.7344034
  54.4371936  31.0751614  92.5279282  55.2131523  30.5313747  93.5192919
  55.1369421  30.8767528  92.8192562  53.0763789  24.3986689  98.3700445
  53.7016493  23.8548822  98.6429877  52.6214269  23.9181607  97.8008235
  53.1012050  24.2476171  98.3262039  53.6416050  29.1833388  83.2634152
  53.7819011  29.6805852  83.9662793  54.1398583  28.4819682  83.4048365
  53.7357131  29.1535367  83.3885731  53.6716272  30.0500499  80.5926729
  54.3061352  30.6460924  80.5276190  53.7541883  29.7503957  81.4072599
  53.7772823  30.0941407  80.7029815  55.2495255  25.9814474  80.5672171
  55.5711096  25.5017557  79.9131433  55.5122199  26.7914121  80.3762982
  55.3361281  26.0304372  80.4427663  58.4792228  37.0033349  94.0870987
  57.9717319  37.5569196  94.5311617  58.1818874  37.0641639  93.2689761
  58.3597113  37.0939660  94.0319443  60.6454410  25.3686668  92.9295650
  61.0709482  24.9159195  92.3179176  60.0311403  24.8146739  93.2060437
  60.6183056  25.2200645  92.8800675  50.1769260  32.2468340  83.8616275
  50.6861490  32.8432847  84.2427580  50.6503533  31.9794313  83.1792694
  50.3212636  32.2954155  83.8170797  59.0848633  21.8401768  86.3386227
  58.4416951  21.6899415  86.9071365  58.7448040  21.5944113  85.5735331
  58.9393710  21.7813891  86.3089242  63.6747979  29.7961195  85.7616235
  63.0039169  30.3390897  85.6329301  64.3687730  30.2656050  85.5197930
  63.6776847  29.9459466  85.7071763  57.7234713  41.9357907  90.9927994
  57.5000368  41.1776736  91.3612020  57.2344557  41.9655928  90.2708433
  57.6178162  41.8280132  90.9404735  63.8376107  26.2517079  88.6706609
  64.1903717  25.8246802  89.3452407  62.9790908  26.1667922  88.8007685
  63.7625552  26.1761819  88.7901619  52.5359792  28.8824598  86.7289455
  51.8171781  29.2988731  86.9962319  52.9072154  29.4478837  86.1781093
  52.4851724  29.0273880  86.6872262  61.8359373  29.5152447  92.6191451
  61.8157300  29.3335742  93.4726230  61.8838573  30.3864466  92.5951034
  61.8394014  29.6168986  92.7414746  59.7805703  36.1039639  98.5439927
  59.7401557  35.4589316  97.9585083  60.5929021  36.0476257  98.8565339
  59.8948856  35.9998606  98.5036877  56.3713170  42.1558365  88.4465078
  55.9573569  41.4932495  88.0568920  57.0560544  42.3036224  87.9260772
  56.4111542  42.0799023  88.3121575  59.7378464  41.3148450  89.1988695
  59.3394748  41.4250721  88.4309515  59.1229684  41.5230517  89.7815255
  59.5877354  41.3622018  89.1719994  58.3106366  27.9222598  82.0662835
  57.7171206  28.2439595  81.5147402  58.3481644  27.0763694  81.8583941
  58.2280755  27.8446927  81.9545606  65.2700167  21.3735491  89.5990921
  64.7631032  20.6664630  89.5312099  66.0667601  21.0428679  89.7291998
  65.3127406  21.2208642  89.6089916  61.1864183  27.8802103  85.4964585
  60.9577876  27.9034804  84.6542943  61.4462259  27.0559570  85.6159595
  61.1910371  27.7618183  85.3889782  55.4683411  29.7336576  95.0989685
  54.9562314  29.1257759  95.4574716  55.2962907  30.4493168  95.5663661
  55.3673048  29.7499875  95.2205909  50.3149126  28.1774151  97.7492047
  50.1451716  28.8375526  97.2040253  49.8715076  28.3880712  98.4704536
  50.2248460  28.3060133  97.7753676  54.2408945  26.4178649  86.7918780
  54.7166312  26.7795729  86.1568962  53.7397545  27.0735117  87.0718923
  54.2374304  26.5672838  86.7395521  59.3452482  27.6560820  97.5391941
  59.9023912  27.4274630  96.9070406  59.0213547  28.4166486  97.2627153
  59.3798892  27.7344657  97.4048438  47.2151191  31.0821017  93.0080537
  46.6677910  30.4121662  93.1261405  48.0043569  30.7150865  93.0724004
  47.2503374  30.9286003  93.0349237  57.0635599  30.7428474  98.5043948
  57.8146926  31.0580151  98.8183502  57.2558175  30.5407645  97.6777869
  57.2027013  30.7595856  98.4287343  56.2835599  28.5619849  80.1592164
  56.6634563  28.5799478  79.3743279  55.5428195  29.0073838  80.0383012
  56.2304436  28.6301624  80.0255733  63.9120889  26.8702040  85.7467743
  63.9115116  26.7150697  86.6052019  63.7077069  27.7165027  85.6909129
  63.8820667  26.9722661  85.8655683  45.9738160  30.2941825  90.1626560
  45.7959921  29.8418433  90.8881475  45.6857182  31.0967986  90.3465037
  45.9051113  30.3464382  90.2970063  61.6361741  31.5499542  89.4003950
  62.1315406  30.8322537  89.3607970  60.8261517  31.2470340  89.2858437
  61.5905634  31.3997188  89.3777676  57.0820353  35.3997355  81.5500954
  56.2731675  35.0764029  81.5034264  57.5895262  34.6930577  81.4829203
  57.0370019  35.2478671  81.5331249  47.7110630  32.8269548  87.2748319
  46.8456149  32.8155239  87.1631090  47.8109446  32.6399771  88.1219458
  47.5984797  32.7975609  87.3837263  63.7013560  34.3003229  92.0881079
  64.1268632  33.7777651  91.5351504  63.3370480  34.8984067  91.5669702
  63.7100163  34.3113456  91.9290088  53.3367640  42.5967447  90.8478424
  53.6514199  43.4103835  90.8556206  53.7461053  42.2117666  91.5160583
  53.4435738  42.6596149  90.9482516  60.2892159  38.0137494  88.4182236
  60.7603338  38.7277756  88.5872221  60.6252338  37.4136244  88.9542106
  60.4087274  38.0308958  88.5214612  57.2061654  22.7864964  95.3740331
  57.3389560  21.9895958  95.7021307  57.5906807  23.3131367  95.9538607
  57.2817983  22.7464881  95.5083834  60.9266106  37.8055428  95.1809929
  60.3787052  37.1813311  94.9129994  61.3879135  37.9949700  94.4654008
  60.9133315  37.7414478  95.0360360  60.2794010  19.7095290  91.9721424
  59.4739973  19.5993020  92.2889263  60.1500745  19.8107746  91.1151290
  60.1414142  19.7078960  91.8929465  63.7359970  25.8740782  92.5661121
  63.1522959  26.3749989  92.1538689  64.0564264  25.3670338  91.9325444
  63.6973145  25.8732617  92.4119628  56.2754769  24.7881377  82.8419796
  57.0970464  24.9579690  82.6001491  55.8124420  24.9428638  82.1186094
  56.3285932  24.8363110  82.6991440  54.8650101  22.7824139  93.6218225
  55.4094514  22.4415266  94.2122566  54.9187037  23.6409601  93.7639509
  54.9539221  22.8579399  93.7300098  50.6780660  36.5440555  90.4957033
  51.2825517  36.5036389  89.8670853  50.4707972  37.3911707  90.5261088
  50.7369557  36.6628558  90.4073149  60.4924432  38.8106500  91.7119270
  61.3122806  38.6669467  91.9735565  60.2118510  39.4352699  92.2535708
  60.5721175  38.8816853  91.8307209  45.9131942  35.5275173  90.3655956
  45.8156220  34.7171444  90.6746012  46.6960812  35.5066966  89.9802224
  46.0148079  35.4042263  90.3542819  61.2870163  41.5681558  95.8117321
  60.7512352  40.9561916  96.1278088  61.3487928  42.1429694  96.4650988
  61.2165795  41.5628486  95.9552748  63.9093412  41.2803407  92.6573288
  64.3694894  41.3542337  93.3948412  63.9549519  42.0784661  92.3073109
  63.9843968  41.4097554  92.7146044  60.6981190  44.9092598  95.0325004
  61.5606803  44.8088307  94.9462334  60.3672973  44.3287307  94.4710576
  60.7766387  44.8084225  94.9370410  64.0496373  39.9171997  98.3700445
  64.6749076  39.3734130  98.6429877  63.5946853  39.4366915  97.8008235
  64.0744634  39.7661479  98.3262039  61.2881710  43.6959459  97.7492047
  61.1184300  44.3560834  97.2040253  60.8447660  43.9066020  98.4704536
  61.1981043  43.8245441  97.7753676  73.3501728  55.1424115 100.5974308
  73.4598693  54.3532676 100.9531055  73.6792624  55.0530051  99.7948646
  73.4154133  55.0129968 100.5316699  65.8382685  38.3009447  93.6218225
  66.3827098  37.9600574  94.2122566  65.8919620  39.1594909  93.7639509
  65.9271804  38.3764707  93.7300098  75.5211491  70.6095029  85.1952308
  74.7694390  70.2310567  84.9668353  75.9697502  70.6413463  84.4471119
  75.4761157  70.5580636  85.0509811  84.4464067  67.3418837  99.0375533
  85.1530835  66.8470867  99.1662467  84.6352003  67.7827918  98.3078191
  84.5791973  67.3337187  98.9484578  80.5140742  72.9834667  86.5648967
  80.8980121  73.5521566  86.0253742  80.4499883  72.2584178  86.0854783
  80.5614169  72.9610131  86.4142830  77.0996247  70.6213421  87.4615081
  77.2006610  69.8113775  87.7712209  76.5037992  70.5270368  86.8314759
  77.0268785  70.4878449  87.4141319  76.9396986  75.5391010  88.8629937
  77.5834442  75.9804174  89.2526095  77.2653242  74.7344437  88.7760196
  77.0828815  75.4856205  88.9075414  70.2961291  66.6433708  87.0867415
  70.0611475  65.8101360  86.9799683  70.4346932  66.9238373  86.2728616
  70.2816954  66.5617211  86.9509770  77.6417566  68.5502985  84.2349799
  77.9633407  69.0908192  83.6311107  78.2889663  67.9799757  84.3672088
  77.7843621  68.5462160  84.1656834  79.6919274  60.5518980  84.3184185
  80.3899439  60.7307108  84.8105649  80.0071607  60.0289319  83.6954575
  79.8414611  60.5012752  84.2986195  72.3220512  62.3571720  92.2295291
  72.1979208  62.9434166  92.8645110  72.9738796  61.8631916  92.5307566
  72.3994161  62.3710524  92.3681221  79.8807210  66.9389425  84.3063977
  80.3200845  66.3306526  84.7518750  79.7311872  66.5596798  83.5349442
  79.9228675  66.7927896  84.2583144  77.3478853  65.5333437  91.5082802
  77.9927855  65.0405880  91.1893751  77.5880630  65.6758224  92.3348881
  77.4789438  65.4810879  91.5832336  79.8864944  68.3788343  91.1589695
  80.1688187  67.5839749  90.9376451  80.6151104  68.8568930  91.1794756
  80.0354508  68.3322940  91.1292710  76.3034587  65.8064617  81.5599949
  75.7191802  66.3114649  81.9665813  75.9004682  65.5807004  80.8196541
  76.1573891  65.8472866  81.5104974  71.8578616  71.5219379  88.3623621
  71.3746194  72.2469868  88.3383204  72.6701934  71.8195509  88.4733778
  71.9069363  71.6721732  88.3750900  77.9292770  70.3151559  90.9673435
  77.4119711  69.9558974  90.3634743  78.6267161  69.7913734  90.9779501
  77.9558351  70.1849247  90.8803694  81.5856362  70.7646373  96.9289608
  81.6739708  70.5772514  97.7767819  82.0146074  70.1183803  96.5294455
  81.6618464  70.6409381  96.9961360  79.1526822  70.0477533  95.9107270
  78.5897656  69.6350143  96.4346932  79.9147845  69.9730439  96.3300414
  79.1821270  69.9754934  96.0500271  74.7122813  72.0375554  88.5143901
  75.4143392  71.5227543  88.5716657  74.6320296  72.3649706  89.3190776
  74.8046573  72.0089781  88.6416693  74.0373588  68.2281906  88.0229509
  74.8762488  68.4604839  88.0703270  74.0685358  67.3586218  87.9536544
  74.1655306  68.1338853  88.0194153  74.6626291  68.6482782  92.3242814
  75.2024516  68.5053913  92.9946186  73.9796238  69.0479532  92.6926840
  74.6418445  68.6862453  92.4777236  84.0867176  64.3273782  87.5187838
  84.8424691  64.7605297  87.5576747  84.1929501  63.6778552  88.0922475
  84.2137347  64.2951266  87.6085864  87.1247347  68.1547059  88.2690241
  86.6882579  68.1583802  89.0249213  86.7910263  68.8352558  87.8369819
  87.0109967  68.2559515  88.3171074  81.6976421  70.1955392  99.5933392
  82.4816838  70.3086240  99.9589134  81.4973016  69.3696529  99.7892078
  81.7842446  70.0902112  99.6767778  70.0663436  64.8683072  92.4777236
  69.8001852  64.0522189  92.6368226  70.0802001  64.9136228  91.6072751
  70.0288159  64.7539977  92.3730718  81.8546814  72.1065494  93.2399847
  81.0562060  71.8664994  93.4973716  82.3032826  72.1579887  93.9866895
  81.8021426  72.0787886  93.3884772  70.4756850  65.6541852  89.7588980
  70.2932423  65.6288738  88.9061272  71.2106519  66.1240790  89.7977889
  70.5570914  65.7203214  89.6386898  80.9147551  65.8525939 101.1320036
  80.1220532  66.1669451 101.3172655  81.0296478  66.0677408 100.2940820
  80.8142962  65.9309776 101.0358370  81.8431344  65.7546143  96.0705332
  82.4170206  65.1173387  96.2253896  81.7646148  65.7550225  95.2014990
  81.9164579  65.6611254  95.9651743  70.4427760  62.5335352  89.9088046
  71.0201263  62.3971803  90.5480292  69.7441822  62.0771137  90.1633631
  70.4248782  62.4457619  90.0410336  77.1995063  64.1869408  88.1226530
  76.9414307  63.3541143  88.0957829  77.2543545  64.4127021  87.2819030
  77.1694841  64.0967179  87.9946666  76.8149910  67.9150642  86.7932922
  77.4523857  67.6762389  87.3384715  77.2404982  68.1187801  86.0586083
  76.9726076  67.9101652  86.7650079  71.5062552  70.1538978  90.6767226
  71.5466698  70.4253830  89.8487005  72.0657076  70.6780887  91.0925014
  71.5945898  70.2714734  90.6159114  77.6221265  56.4159347 100.8470396
  77.3074706  57.1858910 100.5839958  77.3011198  55.8529603 100.2622622
  77.5280184  56.4469616 100.7211745  79.1971382  68.3923065  88.4726708
  79.2710390  68.2298236  89.3268558  80.0140888  68.5813254  88.2287190
  79.3287741  68.3959807  88.5624734  72.9577139  68.7380927  85.5021152
  72.1315256  68.9842665  85.3755430  73.0189130  68.6593008  86.3683210
  72.8451306  68.7625876  85.6110096  84.2986051  54.9527728  94.7927914
  85.0439643  54.7637538  94.3791339  83.8823356  55.4785966  94.2341770
  84.3471025  55.0029873  94.6492487  77.7375968  71.3557808  83.2040182
  78.0274266  70.9646789  82.4799408  78.4679448  71.5374513  83.6445457
  77.8882852  71.3251621  83.1622989  78.3270713  66.1575554  94.2893312
  77.8282406  66.8691321  94.3678201  79.1370937  66.4776220  94.2511474
  78.3726820  66.3102402  94.2949881  75.6781883  73.3325190  86.2700331
  75.4582179  73.0422545  87.0626998  75.4576405  72.6740145  85.7418244
  75.6129477  73.1924898  86.3089240  74.5898830  65.4198507  88.5356033
  74.3012079  64.7935978  89.0701760  75.4582178  65.3618794  88.6020713
  74.6759082  65.3186051  88.6246988  77.8449839  74.7054580  85.0531024
  78.4973897  74.1731022  85.2822050  77.1475448  74.3523232  85.4398898
  77.8380557  74.5744103  85.1443191  74.7931104  67.0593758  84.4598398
  75.5477072  67.4406797  84.6733861  74.2001716  67.5104901  84.9145095
  74.8167817  67.1822585  84.5581276  77.2537771  59.0156598  99.5855610
  76.4437547  59.3214378  99.4745453  77.7312458  59.7362180  99.7008194
  77.2041250  59.1671199  99.5862681  76.1129330  68.2302319  89.8338513
  75.5910084  68.3702611  90.5190378  76.5003351  67.4712983  90.0240631
  76.0933031  68.1387843  89.9639590  77.5395656  65.2606338  85.2320004
  77.3438439  65.8681073  84.6380307  77.7630002  64.5674282  84.7511678
  77.5430297  65.2483863  85.0736085  75.9374186  62.1461076  85.3500873
  76.6596838  62.3102234  84.8904679  75.4582179  62.8670741  85.2440213
  75.9737917  62.2759305  85.2666487  73.5881803  64.5519148  94.4555013
  74.1002900  64.8303402  93.8063772  73.3018145  65.2908442  94.8217826
  73.6216666  64.7021502  94.4144891  83.8777167  64.0183343  96.6793522
  83.8725206  63.1463160  96.6835948  84.5838161  64.2171512  96.2062978
  83.9822171  63.9187217  96.6100557  77.6048061  63.7460327  96.0507342
  77.7491437  64.3261535  95.4150452  77.9523709  64.1236624  96.7557197
  77.6775522  63.8881031  96.0606337  76.6775816  71.9363099  92.9168369
  76.8265380  71.3766015  92.2641773  77.4575818  72.0155101  93.3000888
  76.8149909  71.8648664  92.8765318  79.2029116  72.1077742  94.1952860
  79.1272788  71.4386552  94.7503648  79.1318976  72.8095530  94.7093526
  79.1809723  72.1122649  94.3529708  80.0169755  56.8401046  94.7227877
  80.4742369  57.5725021  94.8500670  80.0926084  56.4167512  95.4815133
  80.0960725  56.8858284  94.8528954  79.8599363  70.6278741  85.0276466
  80.6249254  70.3588384  84.7059130  79.7577453  70.1428751  85.7446529
  79.9580859  70.5168305  85.0856293  83.2795819  66.4645580  89.2929147
  82.6040821  66.2330813  89.7942534  83.2888195  65.8566763  88.6671252
  83.1814324  66.3404506  89.2745300  80.4089963  61.3063409  96.0493200
  80.3449105  62.1673366  95.9213337  80.5487151  60.9895403  95.2488752
  80.4205433  61.3863576  95.9121413  78.5920751  75.5146062  92.6530861
  79.0816681  74.8156851  92.4706525  78.0204983  75.2169932  93.2406918
  78.5805281  75.3672285  92.7131901  74.3791502  64.4947600  85.6237376
  74.5356121  64.4294403  86.4793368  74.7192095  65.2696153  85.4116055
  74.4524737  64.5996798  85.7191970  84.7887754  68.0808131 101.6057651
  85.6022620  67.8093280 101.7662784  84.6282721  67.7815671 100.8017847
  84.8857703  67.9963057 101.5103057  79.0857097  69.2622835  81.7770767
  79.1549917  68.4037374  81.9163767  79.8645552  69.4794716  81.4489792
  79.2109947  69.1675699  81.7487924  83.4764584  71.6860536  85.9907260
  83.0844376  71.3827252  85.2730127  83.6317656  72.5229626  85.8012214
  83.4418174  71.7644373  85.8563757  83.6404259  68.2510525  85.9313291
  83.2818914  68.4225168  86.7077323  83.1542970  68.7123731  85.3741289
  83.5162956  68.3449496  85.9638560  81.3252512  61.7790925 100.2665049
  81.7952143  62.4033041 100.6532923  81.3714392  61.1107900 100.8258264
  81.4020388  61.7725605 100.4065120  84.8008998  69.1414421  96.8780492
  85.4388719  68.6474617  96.5442948  84.1583090  69.0691822  96.2932719
  84.8003225  69.0573430  96.7422847  80.0187075  56.0979092  97.3843377
  80.8460505  55.8264241  97.4401991  80.0394921  56.8939934  97.7407195
  80.1439925  56.1758847  97.4458560  74.5956565  63.2442955  90.5713637
  73.7544572  63.1446829  90.7792531  74.8046573  64.0138436  90.9227958
  74.5021258  63.3434999  90.6540952  76.4691581  68.3874075  94.5283333
  76.3611936  68.3976137  95.3945391  76.6787363  69.2128856  94.3388286
  76.4841692  68.5115150  94.6287424  74.4865373  65.6386718  91.9905270
  73.8953306  66.2796216  91.9608285  75.2486397  66.0624335  91.9636570
  74.5113634  65.7962556  91.9820417  84.2454889  71.0896029  89.4237295
  84.0474578  71.5786844  88.7293506  83.6242600  71.2937271  90.0021428
  84.1242454  71.1912567  89.4060518  78.3062868  62.8580926  83.7647539
  79.0504913  63.2455202  84.0030489  78.4523564  62.0138351  83.9288027
  78.4373453  62.7911399  83.8241509  71.7441235  67.3120815  93.1339187
  71.2141160  66.6213254  93.1834161  72.0166329  67.3031000  92.3051895
  71.7065958  67.2087947  93.0186603  81.9447481  64.7544060  93.1077558
  81.3304474  64.2102110  93.4026193  82.4614766  64.2408296  92.6283374
  81.9303143  64.5980469  93.0801787  81.1843778  65.8248330  90.8421857
  80.7571386  65.1998048  90.4087292  81.1768722  65.5423252  91.6680864
  81.1202919  65.6901110  90.9001684  82.2426608  53.0274738  94.4661080
  81.7467169  53.2238413  93.7752647  82.9995670  53.4267407  94.2949882
  82.2813433  53.1152472  94.3381217  67.0237077  63.9848579  90.4907535
  66.9180527  63.9395424  89.6259619  66.2737297  64.3302360  90.7721820
  66.8972680  64.0289487  90.4044865  77.9760423  64.9948643  98.5390430
  77.1256053  65.1320357  98.6748075  78.1388551  64.2612421  98.9838131
  77.8744286  64.9062744  98.6246029  80.4257395  68.0403965  94.0870987
  79.9182486  68.5939812  94.5311617  80.1284041  68.1012255  93.2689761
  80.3062280  68.1310276  94.0319443  83.0365175  71.9567222  82.0174930
  82.3194485  71.7828085  81.5522168  83.6871913  71.7219795  81.4850416
  83.0267026  71.8963015  81.8704148  79.6699880  72.9728523  90.9927994
  79.4465535  72.2147352  91.3612020  79.1809724  73.0026544  90.2708433
  79.5643329  72.8650747  90.9404735  81.7270870  67.1410255  98.5439927
  81.6866725  66.4959932  97.9585083  82.5394188  67.0846873  98.8565339
  81.8414023  67.0369222  98.5036877  78.3178337  73.1928981  88.4465078
  77.9038736  72.5303111  88.0568920  79.0025712  73.3406840  87.9260772
  78.3576709  73.1169639  88.3121575  81.6843631  72.3519066  89.1988695
  81.2859915  72.4621337  88.4309515  81.0694851  72.5601133  89.7815255
  81.5342521  72.3992634  89.1719994  87.2165334  52.4106106  89.5990921
  86.7096199  51.7035246  89.5312099  88.0132768  52.0799295  89.7291998
  87.2592573  52.2579258  89.6089916  81.2917649  58.6931436  97.5391941
  81.8489079  58.4645246  96.9070406  80.9678714  59.4537102  97.2627153
  81.3264059  58.7715273  97.4048438  69.1616358  62.1191633  93.0080537
  68.6143077  61.4492278  93.1261405  69.9508736  61.7521480  93.0724004
  69.1968541  61.9656619  93.0349237  79.0100766  61.7799090  98.5043948
  79.7612093  62.0950766  98.8183502  79.2023343  61.5778261  97.6777869
  79.1492180  61.7966471  98.4287343  83.5826908  62.5870158  89.4003950
  84.0780574  61.8693153  89.3607970  82.7726684  62.2840955  89.2858437
  83.5370802  62.4367804  89.3777676  75.2832807  73.6338063  90.8478424
  75.5979366  74.4474451  90.8556206  75.6926220  73.2488281  91.5160583
  75.3900905  73.6966765  90.9482516  82.2357327  69.0508109  88.4182236
  82.7068505  69.7648372  88.5872221  82.5717505  68.4506860  88.9542106
  82.3552442  69.0679574  88.5214612  84.3234311  70.6609423 100.5974308
  84.4331277  69.8717983 100.9531055  84.6525208  70.5715359  99.7948646
  84.3886717  70.5315276 100.5316699  79.1526822  53.8235580  95.3740331
  79.2854727  53.0266573  95.7021307  79.5371974  54.3501983  95.9538607
  79.2283150  53.7835497  95.5083834  82.8731273  68.8426044  95.1809929
  82.3252219  68.2183927  94.9129994  83.3344302  69.0320316  94.4654008
  82.8598482  68.7785094  95.0360360  72.6245827  67.5811171  90.4957033
  73.2290684  67.5407005  89.8670853  72.4173140  68.4282323  90.5261088
  72.6834724  67.6999174  90.4073149  82.4389599  69.8477116  91.7119270
  83.2587973  69.7040082  91.9735565  82.1583677  70.4723315  92.2535708
  82.5186343  69.9187468  91.8307209  67.8597109  66.5645789  90.3655956
  67.7621387  65.7542060  90.6746012  68.6425979  66.5437582  89.9802224
  67.9613246  66.4412879  90.3542819  98.9103250  77.5041968  84.6762146
  98.8797254  78.3586605  84.8480416  99.5084598  77.2037261  85.2348290
  98.9940407  77.5858465  84.7836949  86.4944074  86.1280337  85.1952308
  85.7426974  85.7495875  84.9668353  86.9430086  86.1598771  84.4471119
  86.4493741  86.0765944  85.0509811  95.4196651  82.8604145  99.0375533
  96.1263418  82.3656175  99.1662467  95.6084586  83.3013226  98.3078191
  95.5524557  82.8522495  98.9484578  91.9469034  86.5505706  80.6237855
  91.6120403  87.2282628  80.1882078  92.4595904  86.1611018  80.0354727
  91.9734615  86.5930285  80.4724647  91.4873325  88.5019975  86.5648967
  91.8712705  89.0706874  86.0253742  91.4232467  87.7769485  86.0854783
  91.5346753  88.4795439  86.4142830  94.9554755  78.6509663  92.0746728
  95.5010716  79.3294750  92.1340698  94.8971632  78.5097124  91.2148310
  95.0270670  78.7301665  91.9558789  88.0728830  86.1398729  87.4615081
  88.1739193  85.3299083  87.7712209  87.4770576  86.0455675  86.8314759
  88.0001369  86.0063757  87.4141319  96.7319824  80.0794270  82.9480456
  96.6159350  80.8301956  83.3772594  97.5275711  79.8218223  83.1976543
  96.8324414  80.1529117  83.0484548  87.9129570  91.0576318  88.8629937
  88.5567025  91.4989482  89.2526095  88.2385825  90.2529744  88.7760196
  88.0561399  91.0041513  88.9075414  81.2693875  82.1619016  87.0867415
  81.0344059  81.3286668  86.9799683  81.4079515  82.4423681  86.2728616
  81.2549537  82.0802519  86.9509770  83.5683962  74.3304746  89.9851722
  82.9488994  73.7397393  89.8161737  83.4667826  74.9216181  89.3516045
  83.4621638  74.3308829  89.8656712  88.6150150  84.0688293  84.2349799
  88.9365991  84.6093500  83.6311107  89.2622246  83.4985064  84.3672088
  88.7576205  84.0647468  84.1656834  83.2953095  77.8757028  92.2295291
  83.1711792  78.4619473  92.8645110  83.9471380  77.3817224  92.5307566
  83.3726744  77.8895832  92.3681221  90.8539793  82.4574733  84.3063977
  91.2933429  81.8491834  84.7518750  90.7044456  82.0782106  83.5349442
  90.8961259  82.3113204  84.2583144  88.3211436  81.0518745  91.5082802
  88.9660439  80.5591188  91.1893751  88.5613213  81.1943532  92.3348881
  88.4522021  80.9996187  91.5832336  90.8597527  83.8973651  91.1589695
  91.1420770  83.1025057  90.9376451  91.5883688  84.3754238  91.1794756
  91.0087091  83.8508248  91.1292710  94.4549130  80.8101914  81.2594746
  94.3700425  81.6662881  81.4044315  94.9433513  80.5346238  81.9276905
  94.5138027  80.8959236  81.3796828  95.3867563  77.4286709  82.7592481
  94.8579034  77.6446342  83.4189787  95.9092583  78.1222847  82.6793451
  95.3856016  77.5629845  82.8448080 100.8415616  83.0033013  88.1325526
 100.0113319  83.2143657  88.2958942 100.7924868  82.1770068  87.8567809
 100.7122351  82.9122619  88.1162891  87.2767171  81.3249925  81.5599949
  86.6924386  81.8299957  81.9665813  86.8737266  81.0992312  80.8196541
  87.1306474  81.3658174  81.5104974  82.8311199  87.0404686  88.3623621
  82.3478778  87.7655176  88.3383204  83.6434518  87.3380816  88.4733778
  82.8801947  87.1907040  88.3750900  88.9025353  85.8336867  90.9673435
  88.3852295  85.4744282  90.3634743  89.5999745  85.3099042  90.9779501
  88.9290934  85.7034555  90.8803694  92.5588945  86.2831681  96.9289608
  92.6472291  86.0957822  97.7767819  92.9878658  85.6369111  96.5294455
  92.6351048  86.1594689  96.9961360  90.1259405  85.5662841  95.9107270
  89.5630240  85.1535451  96.4346932  90.8880429  85.4915747  96.3300414
  90.1553854  85.4940242  96.0500271  91.7344385  77.5715577  80.0368870
  91.9740389  77.7793561  79.2244213  92.0560226  76.7673086  80.1457814
  91.8181543  77.4829679  79.9329423  87.0434675  69.5008973  83.8828408
  87.7980643  69.8687290  83.6445458  86.8662210  69.8748527  84.6507587
  87.1289154  69.6107161  83.9613296  85.6855397  87.5560862  88.5143901
  86.3875976  87.0412851  88.5716657  85.6052880  87.8835014  89.3190776
  85.7779157  87.5275089  88.6416693 100.3369574  75.6503414  91.9275947
  99.4997995  75.7205601  92.1623541 100.3057805  75.6527908  91.0550249
 100.2087856  75.6613641  91.8335495  86.7334303  77.7936449  97.6424316
  86.9054807  77.6842344  98.4909597  87.2703661  78.4390855  97.4055508
  86.8379307  77.8728451  97.7329412  85.3991740  71.9079292  80.5806521
  85.2167313  72.1251173  79.7547513  86.2617353  72.0218305  80.6365135
  85.4996329  71.9569190  80.4661008  85.0106172  83.7467214  88.0229509
  85.8495071  83.9790147  88.0703270  85.0417941  82.8771526  87.9536544
  85.1387890  83.6524161  88.0194153  85.6358875  84.1668090  92.3242814
  86.1757100  84.0239221  92.9946186  84.9528821  84.5664840  92.6926840
  85.6151029  84.2047760  92.4777236  95.0599760  79.8459090  87.5187838
  95.8157275  80.2790605  87.5576747  95.1662084  79.1963860  88.0922475
  95.1869930  79.8136574  87.6085864  98.0979931  83.6732367  88.2690241
  97.6615163  83.6769110  89.0249213  97.7642846  84.3537866  87.8369819
  97.9842551  83.7744823  88.3171074  92.6709005  85.7140700  99.5933392
  93.4549421  85.8271548  99.9589134  92.4705599  84.8881837  99.7892078
  92.7575030  85.6087420  99.6767778  81.0396020  80.3868380  92.4777236
  80.7734435  79.5707497  92.6368226  81.0534584  80.4321536  91.6072751
  81.0020742  80.2725285  92.3730718  98.0177414  70.7146195  90.5119669
  98.6603322  70.7844300  91.0981585  98.2700435  70.0475418  90.0099211
  98.1499546  70.6272544  90.5246949  84.9453767  75.1853465  79.0928994
  84.2311944  74.8991644  79.5051426  85.4297736  75.5250091  79.7335381
  84.9113130  75.1935114  79.2484629  85.7894626  73.9246759  95.1244243
  85.0966423  73.4543738  95.3704975  86.4054954  73.6985063  95.6985950
  85.7779156  73.8213890  95.2453396  92.8279398  87.6250802  93.2399847
  92.0294644  87.3850302  93.4973716  93.2765409  87.6765195  93.9866895
  92.7754009  87.5973193  93.3884772 101.2324277  80.3913287  87.1609879
 101.8940711  79.8303956  87.0605787 100.5915689  79.8965318  87.4862570
 101.2353145  80.2349696  87.1942219  92.1201085  83.6883419  79.4690802
  92.5352233  83.3568443  78.7775298  91.2893015  83.4552321  79.3410939
  92.0589094  83.6054675  79.3481649  81.4489434  81.1727160  89.7588980
  81.2665007  81.1474046  88.9061272  82.1839103  81.6426098  89.7977889
  81.5303498  81.2388522  89.6386898  97.5189108  81.4078670  86.9021867
  97.7544697  81.5523869  86.0748718  97.6678672  82.1721078  87.2953381
  97.5754911  81.5417724  86.8385471  84.5135185  77.8912163  96.2671089
  85.2375158  77.8765193  96.7535983  84.6151322  78.6007518  95.7693057
  84.6353394  77.9936866  96.2649875  99.3479565  80.2480336  84.7391471
  99.6787782  80.7807976  84.1331566  99.9212653  80.3019223  85.3953422
  99.4813244  80.3349904  84.7469253  91.8880135  81.3711247 101.1320036
  91.0953116  81.6854759 101.3172655  92.0029062  81.5862716 100.2940820
  91.7875545  81.4495084 101.0358370  94.5611454  78.0945238  85.4215051
  94.6558308  78.8334532  85.8754677  93.9370297  77.6662714  85.8549616
  94.4820484  78.1406559  85.5523199  92.8163928  81.2731451  96.0705332
  93.3902789  80.6358695  96.2253896  92.7378731  81.2735533  95.2014990
  92.8897162  81.1796562  95.9651743  81.4160344  78.0520660  89.9088046
  81.9933847  77.9157111  90.5480292  80.7174406  77.5956445  90.1633631
  81.3981365  77.9642927  90.0410336  94.8134475  79.9393978  78.6552003
  94.7314638  80.0096165  79.5206990  95.4514196  80.5023722  78.4635744
  94.8954312  80.0332949  78.7541953  88.1727646  79.7054716  88.1226530
  87.9146891  78.8726451  88.0957829  88.2276129  79.9312329  87.2819030
  88.1427424  79.6152487  87.9946666  87.1462358  77.2592479  88.6091424
  86.5711950  77.4184647  89.2455385  86.7698035  76.6227888  88.1459875
  87.0065171  77.1890291  88.6345983  90.8135647  75.7315828  93.4683803
  90.4250080  75.3070046  92.8135994  90.1490345  75.9797977  93.9760830
  90.6582575  75.7054549  93.4471671 100.4558916  75.4890833  86.2431633
 100.1995481  74.6770774  86.0529516 101.2988230  75.4968400  86.0161820
 100.5424942  75.3702830  86.1816450  76.8919177  76.9032553  86.6235865
  76.9779429  76.5264422  87.4049395  77.5194975  76.5292999  86.1455823
  76.9975728  76.7918035  86.6681342  94.6362009  69.4290457  90.9807787
  95.0172520  68.7468628  91.3675661  93.8325293  69.1400059  90.7983452
  94.5738470  69.2857505  91.0111843  91.9174585  79.9614432  81.6660610
  92.7315224  80.2529325  81.5543381  91.8533727  79.3074295  81.0918903
  92.0277324  79.9079627  81.5649447  98.1384075  82.6440429  96.0790185
  97.9022713  81.8128493  95.9602246  98.7827304  82.5926036  96.6645030
  98.1978746  82.5138117  96.1476079  87.7882494  83.4335950  86.7932922
  88.4256440  83.1947697  87.3384715  88.2137565  83.6373109  86.0586083
  87.9458660  83.4286960  86.7650079  82.4795136  85.6724286  90.6767226
  82.5199281  85.9439137  89.8487005  83.0389660  86.1966194  91.0925014
  82.5678482  85.7900041  90.6159114  88.4285309  78.6538240  81.1307811
  88.8130461  78.4345946  81.8824356  88.1796929  79.4801185  81.2608888
  88.4487381  78.7436386  81.2608888  88.5953849  71.9344655 100.8470396
  88.2807290  72.7044218 100.5839958  88.2743782  71.3714911 100.2622622
  88.5012768  71.9654924 100.7211745  99.1620496  82.4284877  92.1418480
  98.8566313  83.1612934  92.5031796  98.4426712  82.0222807  91.8611266
  99.0107838  82.4766610  92.1531617  90.1703966  83.9108372  88.4726708
  90.2442974  83.7483544  89.3268558  90.9873472  84.0998562  88.2287190
  90.3020324  83.9145115  88.5624734 104.8622288  79.0677878  91.4686824
 104.7946788  79.0873837  90.5989411 104.8477951  79.9108205  91.6942495
 104.8501045  79.1951613  91.3739301  83.9309722  84.2566235  85.5021152
  83.1047840  84.5027972  85.3755430  83.9921713  84.1778316  86.3683210
  83.8183889  84.2811184  85.6110096  86.1485746  70.3235176  86.4616592
  85.2808171  70.3957776  86.5274201  86.4360950  71.1257255  86.6504567
  86.0625494  70.4529323  86.4991358  95.2718635  70.4713036  94.7927914
  96.0172227  70.2822846  94.3791339  94.8555939  70.9971274  94.2341770
  95.3203609  70.5215181  94.6492487  88.7108551  86.8743116  83.2040182
  89.0006850  86.4832097  82.4799408  89.4412032  87.0559820  83.6445457
  88.8615435  86.8436929  83.1622989 102.6480906  77.8422264  89.7433419
 103.1988827  77.2090333  89.9830511 102.6325021  78.3737657  90.4348923
 102.7266102  77.8271212  89.8812277  89.3003296  81.6760861  94.2893312
  88.8014990  82.3876629  94.3678201  90.1103521  81.9961528  94.2511474
  89.3459403  81.8287710  94.2949881  86.6514467  88.8510498  86.2700331
  86.4314762  88.5607853  87.0626998  86.4308989  88.1925453  85.7418244
  86.5862061  88.7110206  86.3089240  85.5631414  80.9383814  88.5356033
  85.2744663  80.3121286  89.0701760  86.4314762  80.8804102  88.6020713
  85.6491666  80.8371359  88.6246988  96.3509312  76.0818598  88.8538015
  96.0074078  75.3608933  89.2045265  96.4502354  75.8732449  88.0116373
  96.3151355  75.9442801  88.7809695  88.8182423  90.2239888  85.0531024
  89.4706481  89.6916330  85.2822050  88.1208031  89.8708540  85.4398898
  88.8113140  90.0929411  85.1443191  85.7663687  82.5779066  84.4598398
  86.5209655  82.9592105  84.6733861  85.1734300  83.0290209  84.9145095
  85.7900401  82.7007893  84.5581276  96.8122341  82.5444302  84.3962003
  97.3780374  83.2037512  84.3120546  96.1650244  82.8894000  84.8678405
  96.8001097  82.6926243  84.4534759  88.2270354  74.5341906  99.5855610
  87.4170130  74.8399686  99.4745453  88.7045041  75.2547488  99.7008194
  88.1773833  74.6856507  99.5862681  87.0861914  83.7487627  89.8338513
  86.5642667  83.8887919  90.5190378  87.4735934  82.9898291  90.0240631
  87.0665615  83.6573151  89.9639590  84.0753098  73.7993436  83.9033468
  83.7877894  73.4294706  83.1665415  84.7623566  74.2688291  83.6417173
  84.1341995  73.8140405  83.7548544  93.2828919  85.4883086  83.8199082
  93.0415595  84.7550947  83.4126147  93.4630252  86.0369943  83.1665416
  93.2736543  85.4605477  83.6629305  88.5128240  80.7791646  85.2320004
  88.3171022  81.3866380  84.6380307  88.7362585  80.0859590  84.7511678
  88.5162881  80.7669171  85.0736085  86.9106770  77.6646384  85.3500873
  87.6329422  77.8287542  84.8904679  86.4314762  78.3856049  85.2440213
  86.9470500  77.7944613  85.2666487  84.5614386  80.0704456  94.4555013
  85.0735483  80.3488710  93.8063772  84.2750729  80.8093750  94.8217826
  84.5949249  80.2206810  94.4144891  98.7457801  79.2078169  88.0158800
  98.6591776  79.3633595  88.8693578  98.2908281  79.8516245  87.6418205
  98.6661058  79.3253924  88.0865906  81.6481293  74.5774648  84.7518749
  81.7497429  75.3800809  85.0799725  82.4437179  74.3761984  84.4541830
  81.7809198  74.6660547  84.7554105  82.4645025  74.6921826  92.4939871
  82.3230517  73.8405767  92.6184379  82.7485588  74.7350487  91.6702077
  82.4852871  74.5721576  92.3907495  96.5131666  83.2372276  90.4271140
  96.3746025  83.9353322  90.9319883  95.7331664  83.0820932  90.0707322
  96.3774893  83.3172442  90.4497414  94.8509751  79.5368651  96.6793522
  94.8457790  78.6648468  96.6835948  95.5570745  79.7356820  96.2062978
  94.9554755  79.4372525  96.6100557  88.5780644  79.2645635  96.0507342
  88.7224020  79.8446843  95.4150452  88.9256293  79.6421932  96.7557197
  88.6508106  79.4066339  96.0606337  90.7500562  78.4635803  93.8332474
  90.0023876  78.6566818  93.4280752  90.9042087  77.6381023  93.5956595
  90.6622989  78.3700915  93.7377880  87.6508399  87.4548407  92.9168369
  87.7997963  86.8951323  92.2641773  88.4308401  87.5340409  93.3000888
  87.7882493  87.3833972  92.8765318  98.0085039  82.5950530  81.1887640
  97.6291847  81.8087668  81.1816929  97.3451284  83.1437387  81.0459284
  97.8543514  82.5595354  81.1668436  90.1761700  87.6263050  94.1952860
  90.1005371  86.9571860  94.7503648  90.1051559  88.3280838  94.7093526
  90.1542307  87.6307957  94.3529708  83.2335330  72.6052174  95.8117321
  82.6977519  71.9932532  96.1278088  83.2953095  73.1800310  96.4650988
  83.1630963  72.5999102  95.9552748  90.8331947  86.1464049  85.0276466
  91.5981838  85.8773692  84.7059130  90.7310037  85.6614059  85.7446529
  90.9313442  86.0353613  85.0856293  93.3550607  83.1776232  77.0076415
  94.1223593  83.2376357  76.5982267  92.9081916  82.6056674  76.5232734
  93.4024035  83.1012808  76.8754125  94.2528403  81.9830888  89.2929147
  93.5773405  81.7516120  89.7942534  94.2620779  81.3752071  88.6671252
  94.1546908  81.8589813  89.2745300  91.3822547  76.8248717  96.0493200
  91.3181688  77.6858674  95.9213337  91.5219735  76.5080710  95.2488752
  91.3938017  76.9048884  95.9121413  96.2545138  84.8396021  81.5239325
  96.3364975  85.6463007  81.2000776  96.7394880  84.8591980  82.2480099
  96.3382295  84.9616683  81.5826224  90.0641641  79.5180857  90.1909403
  89.6403890  79.7185356  89.4548422  89.8886496  78.6709705  90.3033703
  89.9752521  79.4229638  90.0983093  89.5653334  91.0331370  92.6530861
  90.0549265  90.3342159  92.4706525  88.9937567  90.7355240  93.2406918
  89.5537864  90.8857593  92.7131901  85.3524086  80.0132908  85.6237376
  85.5088705  79.9479711  86.4793368  85.6924679  80.7881461  85.4116055
  85.4257321  80.1182106  85.7191970  91.8903230  79.3890792  84.4930739
  92.4318776  78.8861173  84.9569360  92.2049789  79.3355986  83.6820224
  92.0167627  79.3070213  84.4414551  95.7620338  83.5993439 101.6057651
  96.5755203  83.3278588 101.7662784  95.6015304  83.3000979 100.8017847
  95.8590286  83.5148365 101.5103057  90.0589680  84.7808143  81.7770767
  90.1282500  83.9222682  81.9163767  90.8378135  84.9980024  81.4489792
  90.1842530  84.6861007  81.7487924  93.0392500  74.2827096  94.5453039
  93.2534469  73.6438010  93.9916393  92.4226399  74.7272920  94.1160901
  92.9797829  74.2537240  94.4003471  94.4497168  87.2045844  85.9907260
  94.0576959  86.9012560  85.2730127  94.6050240  88.0414934  85.8012214
  94.4150758  87.2829681  85.8563757  81.9258347  77.1967858  85.9398143
  82.3057312  77.6152403  85.2758410  81.3513712  77.7781314  86.2466986
  81.8969672  77.3445717  85.8874884  95.2031588  75.8916161  95.4836347
  94.3908270  75.5842052  95.5649519  95.6621522  75.4115161  96.0479059
  95.1511973  75.7752654  95.5790941  94.6136842  83.7695833  85.9313291
  94.2551497  83.9410476  86.7077323  94.1275553  84.2309039  85.3741289
  94.4895539  83.8634804  85.9638560  89.4025208  79.4494999  78.4713525
  89.6917733  80.2259881  78.7457100  89.4897007  78.9383730  79.1728025
  89.4579464  79.4886917  78.6156023  92.2985095  77.2976233 100.2665049
  92.7684726  77.9218349 100.6532923  92.3446975  76.6293208 100.8258264
  92.3752971  77.2910913 100.4065120  95.7741582  84.6599729  96.8780492
  96.4121302  84.1659925  96.5442948  95.1315673  84.5877130  96.2932719
  95.7735808  84.5758738  96.7422847  97.4998582  76.5088875  91.4446407
  97.0726190  76.4215224  90.6894507  96.8624635  76.6166651  92.0301251
  97.3428189  76.5121535  91.4191849  90.9919659  71.6164400  97.3843377
  91.8193088  71.3449549  97.4401991  91.0127505  72.4125242  97.7407195
  91.1172509  71.6944155  97.4458560  95.8295838  85.3519537  93.5185849
  96.6188217  85.0008602  93.6387930  96.0039436  86.1655926  93.2562482
  95.9716120  85.4205395  93.4973717  85.5689149  78.7628263  90.5713637
  84.7277155  78.6632137  90.7792531  85.7779157  79.5323744  90.9227958
  85.4753841  78.8620307  90.6540952  83.0464716  76.3847800  88.3998388
  82.6521414  76.4590812  87.6248498  82.4904833  76.7705747  88.9506750
  82.9067528  76.4529575  88.3666048  87.4424165  83.9059383  94.5283333
  87.3344520  83.9161445  95.3945391  87.6519946  84.7314164  94.3388286
  87.4574276  84.0300458  94.6287424  97.9363350  69.9160858  87.5605032
  97.3237664  70.4031261  87.9458764  98.0327525  69.2404349  88.1042684
  97.8601248  69.8879167  87.6983891  85.4597957  81.1572026  91.9905270
  84.8685890  81.7981524  91.9608285  86.2218980  81.5809643  91.9636570
  85.4846217  81.3147864  91.9820417  87.5041929  72.9840718  97.2245315
  87.1127494  72.3374065  97.6601093  87.6727792  73.5752153  97.8439570
  87.4712840  72.9754986  97.3808021 101.5788378  80.9877795  92.9882549
 101.6371502  81.4364444  93.7342525 100.9454846  81.3976608  92.5512629
 101.4939673  81.1151530  93.0335097  95.2187473  86.6081337  89.4237295
  95.0207162  87.0972152  88.7293506  94.5975184  86.8122579  90.0021428
  95.0975037  86.7097875  89.4060518  89.2795451  78.3766234  83.7647539
  90.0237496  78.7640510  84.0030489  89.4256147  77.5323659  83.9288027
  89.4106036  78.3096707  83.8241509  82.6446357  75.9463214  95.0325004
  83.5071970  75.8458923  94.9462334  82.3138140  75.3657923  94.4710576
  82.7231554  75.8454841  94.9370410  98.5310058  79.0094083  91.0748239
  98.2908281  78.1700498  91.0790665  99.0102065  79.0894250  91.7989012
  98.5662241  78.8975483  91.1823041 100.5315245  75.7895540  89.0277498
 100.2925015  75.7491374  88.1898283 100.6949146  76.6366692  89.1543219
 100.5205548  75.9087625  88.9230980  97.1361275  80.1745489  94.9582543
  97.8595474  79.7218016  94.7793563  96.8711237  80.4550155  94.1754871
  97.2042548  80.1496458  94.8161258  86.0048143  74.7705663  91.6935422
  85.3801213  74.7824055  91.0861375  85.6693738  75.2465838  92.3426662
  85.8633635  74.8424180  91.6991991  86.1889892  73.1130781  77.7508107
  85.8402696  73.7650507  78.2139657  85.7086338  73.0987894  77.0231978
  86.0660136  73.2073835  77.7119199  82.7173819  82.8306123  93.1339187
  82.1873743  82.1398562  93.1834161  82.9898912  82.8216308  92.3051895
  82.6798541  82.7273255  93.0186603  93.7493909  83.4131825  81.8576869
  94.4728108  83.8789938  81.7141442  93.3094500  83.4805435  81.1074466
  93.7909602  83.4915662  81.7261651  92.9180064  80.2729368  93.1077558
  92.3037057  79.7287418  93.4026193  93.4347349  79.7593604  92.6283374
  92.9035727  80.1165777  93.0801787  92.1576362  81.3433638  90.8421857
  91.7303970  80.7183356  90.4087292  92.1501306  81.0608560  91.6680864
  92.0935503  81.2086418  90.9001684  85.2738889  76.3798811  93.9110291
  85.4332375  75.6242135  94.3162013  85.0931782  76.9289750  94.5651028
  85.2704248  76.3492625  94.0672997  77.9969661  79.5033887  90.4907535
  77.8913110  79.4580732  89.6259619  77.2469881  79.8487668  90.7721820
  77.8705264  79.5474795  90.4044865  88.9493006  80.5133950  98.5390430
  88.0988637  80.6505665  98.6748075  89.1121134  79.7797729  98.9838131
  88.8476870  80.4248052  98.6246029  88.1877757  77.4633720  92.7344034
  87.3569687  77.6307538  92.5279282  88.1329274  77.0869671  93.5192919
  88.0567172  77.4323452  92.8192562  85.9961540  70.9542613  98.3700445
  86.6214243  70.4104746  98.6429877  85.5412020  70.4737531  97.8008235
  86.0209801  70.8032095  98.3262039  86.5613801  75.7389312  83.2634152
  86.7016762  76.2361776  83.9662793  87.0596333  75.0375606  83.4048365
  86.6554882  75.7091291  83.3885731  86.5914023  76.6056423  80.5926729
  87.2259103  77.2016848  80.5276190  86.6739634  76.3059880  81.4072599
  86.6970574  76.6497331  80.7029815  99.5696589  79.1371900  93.4613093
 100.1614429  79.7769151  93.4931291 100.0055583  78.4394937  93.7505160
  99.7215020  79.1290251  93.5093925  88.1693006  72.5370398  80.5672171
  88.4908847  72.0573481  79.9131433  88.4319950  73.3470044  80.3762982
  88.2559031  72.5860296  80.4427663  91.3989979  83.5589273  94.0870987
  90.8915070  84.1125119  94.5311617  91.1016625  83.6197563  93.2689761
  91.2794864  83.6495584  94.0319443  83.0967011  78.8024264  83.8616275
  83.6059240  79.3988771  84.2427580  83.5701283  78.5350237  83.1792694
  83.2410387  78.8510079  83.8170797  94.0097759  87.4752530  82.0174930
  93.2927069  87.3013393  81.5522168  94.6604497  87.2405103  81.4850416
  93.9999609  87.4148323  81.8704148  96.5945730  76.3517119  85.7616235
  95.9236920  76.8946821  85.6329301  97.2885480  76.8211974  85.5197930
  96.5974598  76.5015390  85.7071763  90.6432464  88.4913831  90.9927994
  90.4198118  87.7332660  91.3612020  90.1542307  88.5211852  90.2708433
  90.5375913  88.3836055  90.9404735  85.4557543  75.4380522  86.7289455
  84.7369532  75.8544655  86.9962319  85.8269905  76.0034761  86.1781093
  85.4049474  75.5829804  86.6872262  92.7003453  82.6595563  98.5439927
  92.6599308  82.0145240  97.9585083  93.5126772  82.6032180  98.8565339
  92.8146607  82.5554530  98.5036877  89.2910921  88.7114289  88.4465078
  88.8771320  88.0488419  88.0568920  89.9758295  88.8592148  87.9260772
  89.3309293  88.6354947  88.3121575  92.6576215  87.8704374  89.1988695
  92.2592498  87.9806645  88.4309515  92.0427435  88.0786441  89.7815255
  92.5075104  87.9177942  89.1719994  98.1897918  67.9291414  89.5990921
  97.6828782  67.2220554  89.5312099  98.9865351  67.5984603  89.7291998
  98.2325157  67.7764566  89.6089916  88.3881162  76.2892500  95.0989685
  87.8760065  75.6813683  95.4574716  88.2160658  77.0049092  95.5663661
  88.2870799  76.3055799  95.2205909  83.2346877  74.7330075  97.7492047
  83.0649467  75.3931450  97.2040253  82.7912827  74.9436636  98.4704536
  83.1446210  74.8616057  97.7753676 100.3918058  82.4456341  82.5831785
 100.7751663  83.1947697  82.8129882  99.5962171  82.6922161  82.3243775
 100.3311840  82.5926035  82.5789359  92.2650232  74.2116744  97.5391941
  92.8221663  73.9830554  96.9070406  91.9411297  74.9722410  97.2627153
  92.2996643  74.2900581  97.4048438  80.1348941  77.6376940  93.0080537
  79.5875661  76.9677586  93.1261405  80.9241319  77.2706788  93.0724004
  80.1701125  77.4841927  93.0349237  89.9833350  77.2984398  98.5043948
  90.7344677  77.6136074  98.8183502  90.1755926  77.0963568  97.6777869
  90.1224764  77.3151779  98.4287343  89.2033349  75.1175773  80.1592164
  89.5832314  75.1355402  79.3743279  88.4625945  75.5629761  80.0383012
  89.1502187  75.1857547  80.0255733  78.8935911  76.8497748  90.1626560
  78.7157672  76.3974357  90.8881475  78.6054933  77.6523910  90.3465037
  78.8248864  76.9020306  90.2970063  94.5559492  78.1055466  89.4003950
  95.0513157  77.3878461  89.3607970  93.7459268  77.8026263  89.2858437
  94.5103385  77.9553112  89.3777676  90.0018103  81.9553279  81.5500954
  89.1929426  81.6319952  81.5034264  90.5093012  81.2486501  81.4829203
  89.9567770  81.8034595  81.5331249  80.6308381  79.3825472  87.2748319
  79.7653900  79.3711163  87.1631090  80.7307197  79.1955695  88.1219458
  80.5182548  79.3531533  87.3837263  96.6211311  80.8559153  92.0881079
  97.0466382  80.3333575  91.5351504  96.2568231  81.4539991  91.5669702
  96.6297913  80.8669380  91.9290088  86.2565391  89.1523371  90.8478424
  86.5711950  89.9659759  90.8556206  86.6658804  88.7673589  91.5160583
  86.3633489  89.2152073  90.9482516  93.2089910  84.5693417  88.4182236
  93.6801088  85.2833680  88.5872221  93.5450089  83.9692168  88.9542106
  93.3285025  84.5864882  88.5214612  95.2966895  86.1794731 100.5974308
  95.4063860  85.3903291 100.9531055  95.6257791  86.0900667  99.7948646
  95.3619301  86.0500584 100.5316699  93.8463857  84.3611352  95.1809929
  93.2984802  83.7369235  94.9129994  94.3076885  84.5505624  94.4654008
  93.8331066  84.2970402  95.0360360  96.6557721  72.4296706  92.5661121
  96.0720710  72.9305913  92.1538689  96.9762015  71.9226262  91.9325444
  96.6170896  72.4288541  92.4119628  83.5978411  83.0996479  90.4957033
  84.2023268  83.0592313  89.8670853  83.3905723  83.9467631  90.5261088
  83.6567308  83.2184482  90.4073149  93.4122183  85.3662424  91.7119270
  94.2320557  85.2225390  91.9735565  93.1316260  85.9908623  92.2535708
  93.4918926  85.4372776  91.8307209  78.8329693  82.0831097  90.3655956
  78.7353971  81.2727368  90.6746012  79.6158563  82.0622890  89.9802224
  78.9345829  81.9598187  90.3542819 109.8835833  93.0227276  84.6762146
 109.8529838  93.8771913  84.8480416 110.4817182  92.7222569  85.2348290
 109.9672991  93.1043773  84.7836949 103.0835518  92.1102927  89.4315077
 102.2273414  92.2711425  89.4824194 103.1303172  91.2394991  89.4520138
 102.9634629  92.0053729  89.4421143  97.4676658 101.6465645  85.1952308
  96.7159557 101.2681183  84.9668353  97.9162669 101.6784078  84.4471119
  97.4226325 101.5951252  85.0509811 106.3929235  98.3789453  99.0375533
 107.0996002  97.8841483  99.1662467 106.5817170  98.8198534  98.3078191
 106.5257140  98.3707803  98.9484578 102.9201618 102.0691014  80.6237855
 102.5852986 102.7467936  80.1882078 103.4328488 101.6796326  80.0354727
 102.9467199 102.1115593  80.4724647 102.4605909 104.0205283  86.5648967
 102.8445288 104.5892182  86.0253742 102.3965050 103.2954793  86.0854783
 102.5079336 103.9980746  86.4142830 105.9287339  94.1694971  92.0746728
 106.4743299  94.8480058  92.1340698 105.8704215  94.0282432  91.2148310
 106.0003253  94.2486973  91.9558789  99.0461414 101.6584037  87.4615081
  99.1471777 100.8484391  87.7712209  98.4503159 101.5640983  86.8314759
  98.9733953 101.5249065  87.4141319 107.7052408  95.5979578  82.9480456
 107.5891934  96.3487264  83.3772594 108.5008294  95.3403531  83.1976543
 107.8056997  95.6714425  83.0484548  98.8862154 106.5761626  88.8629937
  99.5299609 107.0174790  89.2526095  99.2118409 105.7715052  88.7760196
  99.0293982 106.5226821  88.9075414  92.2426458  97.6804324  87.0867415
  92.0076643  96.8471976  86.9799683  92.3812099  97.9608989  86.2728616
  92.2282121  97.5987827  86.9509770  94.5416546  89.8490054  89.9851722
  93.9221577  89.2582701  89.8161737  94.4400409  90.4401489  89.3516045
  94.4354221  89.8494137  89.8656712  99.5882733  99.5873601  84.2349799
  99.9098574 100.1278808  83.6311107 100.2354830  99.0170372  84.3672088
  99.7308788  99.5832776  84.1656834 101.6384441  91.5889596  84.3184185
 102.3364606  91.7677724  84.8105649 101.9536774  91.0659935  83.6954575
 101.7879778  91.5383368  84.2986195  94.2685679  93.3942336  92.2295291
  94.1444376  93.9804781  92.8645110  94.9203963  92.9002532  92.5307566
  94.3459328  93.4081140  92.3681221 101.8272377  97.9760041  84.3063977
 102.2666012  97.3677142  84.7518750 101.6777040  97.5967414  83.5349442
 101.8693842  97.8298512  84.2583144  99.2944020  96.5704053  91.5082802
  99.9393022  96.0776496  91.1893751  99.5345797  96.7128839  92.3348881
  99.4254605  96.5181495  91.5832336 101.8330111  99.4158959  91.1589695
 102.1153354  98.6210364  90.9376451 102.5616271  99.8939546  91.1794756
 101.9819675  99.3693556  91.1292710  99.8111305  86.9581993  88.4005460
  99.4814635  87.4093136  87.7309159  99.1356307  86.8798156  88.9478466
  99.6621741  87.0133128  88.3828683 105.4281713  96.3287222  81.2594746
 105.3433008  97.1848189  81.4044315 105.9166096  96.0531546  81.9276905
 105.4870611  96.4144544  81.3796828 107.0187713  82.9467516  86.6455071
 106.7041154  83.6370994  87.0775493 106.5014654  82.8912298  85.9440571
 106.8952183  83.0402404  86.6052020 106.3600146  92.9472016  82.7592481
 105.8311618  93.1631650  83.4189787 106.8825166  93.6408155  82.6793451
 106.3588599  93.0815153  82.8448080 111.8148199  98.5218321  88.1325526
 110.9845902  98.7328965  88.2958942 111.7657452  97.6955375  87.8567809
 111.6854935  98.4307927  88.1162891  98.2499754  96.8435233  81.5599949
  97.6656969  97.3485265  81.9665813  97.8469849  96.6177620  80.8196541
  98.1039058  96.8843482  81.5104974  93.8043783 102.5589994  88.3623621
  93.3211361 103.2840484  88.3383204  94.6167101 102.8566124  88.4733778
  93.8534531 102.7092348  88.3750900  99.8757937 101.3522175  90.9673435
  99.3584879 100.9929590  90.3634743 100.5732328 100.8284350  90.9779501
  99.9023518 101.2219863  90.8803694 103.5321529 101.8016989  96.9289608
 103.6204875 101.6143130  97.7767819 103.9611241 101.1554419  96.5294455
 103.6083631 101.6779997  96.9961360 101.0991989 101.0848149  95.9107270
 100.5362823 100.6720759  96.4346932 101.8613012 101.0101055  96.3300414
 101.1286437 101.0125550  96.0500271 102.7076969  93.0900885  80.0368870
 102.9472972  93.2978869  79.2244213 103.0292810  92.2858394  80.1457814
 102.7914127  93.0014987  79.9329423  98.0167259  85.0194281  83.8828408
  98.7713227  85.3872598  83.6445458  97.8394794  85.3933835  84.6507587
  98.1021737  85.1292469  83.9613296  96.6587980 103.0746170  88.5143901
  97.3608559 102.5598159  88.5716657  96.5785463 103.4020322  89.3190776
  96.7511741 103.0460396  88.6416693 111.3102158  91.1688722  91.9275947
 110.4730579  91.2390909  92.1623541 111.2790389  91.1713216  91.0550249
 111.1820440  91.1798949  91.8335495  97.7066887  93.3121757  97.6424316
  97.8787390  93.2027652  98.4909597  98.2436244  93.9576163  97.4055508
  97.8111891  93.3913759  97.7329412  96.3724324  87.4264600  80.5806521
  96.1899897  87.6436481  79.7547513  97.2349937  87.5403613  80.6365135
  96.4728913  87.4754498  80.4661008  95.9838756  99.2652522  88.0229509
  96.8227655  99.4975455  88.0703270  96.0150525  98.3956834  87.9536544
  96.1120473  99.1709469  88.0194153  96.6091459  99.6853397  92.3242814
  97.1489684  99.5424528  92.9946186  95.9261405 100.0850148  92.6926840
  96.5883612  99.7233068  92.4777236 102.0524043  84.4291011  83.6155544
 102.7810203  84.2506966  83.1693701 102.1418936  85.2709090  83.8262723
 102.1730705  84.5274889  83.5809062 106.0332343  95.3644398  87.5187838
 106.7889858  95.7975912  87.5576747 106.1394668  94.7149168  88.0922475
 106.1602514  95.3321882  87.6085864 109.0712515  99.1917675  88.2690241
 108.6347746  99.1954418  89.0249213 108.7375430  99.8723174  87.8369819
 108.9575135  99.2930131  88.3171074 103.6441588 101.2326008  99.5933392
 104.4282005 101.3456856  99.9589134 103.4438183 100.4067145  99.7892078
 103.7307614 101.1272728  99.6767778  92.0128604  95.9053688  92.4777236
  91.7467019  95.0892805  92.6368226  92.0267168  95.9506844  91.6072751
  91.9753326  95.7910593  92.3730718 108.9909997  86.2331503  90.5119669
 109.6335906  86.3029608  91.0981585 109.2433018  85.5660726  90.0099211
 109.1232130  86.1457852  90.5246949  95.9186351  90.7038773  79.0928994
  95.2044528  90.4176952  79.5051426  96.4030319  91.0435398  79.7335381
  95.8845714  90.7120422  79.2484629  96.7627210  89.4432067  95.1244243
  96.0699007  88.9729046  95.3704975  97.3787537  89.2170371  95.6985950
  96.7511740  89.3399198  95.2453396 103.8011982 103.1436110  93.2399847
 103.0027227 102.9035610  93.4973716 104.2497993 103.1950503  93.9866895
 103.7486593 103.1158501  93.3884772 112.2056861  95.9098595  87.1609879
 112.8673295  95.3489264  87.0605787 111.5648273  95.4150626  87.4862570
 112.2085728  95.7535004  87.1942219 103.0933669  99.2068727  79.4690802
 103.5084817  98.8753750  78.7775298 102.2625598  98.9737629  79.3410939
 103.0321677  99.1239983  79.3481649  92.4222017  96.6912468  89.7588980
  92.2397591  96.6659354  88.9061272  93.1571686  97.1611405  89.7977889
  92.5036081  96.7573830  89.6386898 108.4921691  96.9263978  86.9021867
 108.7277281  97.0709177  86.0748718 108.6411255  97.6906386  87.2953381
 108.5487495  97.0603032  86.8385471  95.4867769  93.4097471  96.2671089
  96.2107741  93.3950501  96.7535983  95.5883905  94.1192826  95.7693057
  95.6085978  93.5122174  96.2649875 110.3212148  95.7665644  84.7391471
 110.6520365  96.2993284  84.1331566 110.8945236  95.8204531  85.3953422
 110.4545827  95.8535212  84.7469253 102.8612718  96.8896555 101.1320036
 102.0685699  97.2040067 101.3172655 102.9761646  97.1048024 100.2940820
 102.7608129  96.9680392 101.0358370 105.5344037  93.6130546  85.4215051
 105.6290892  94.3519840  85.8754677 104.9102881  93.1848022  85.8549616
 105.4553067  93.6591867  85.5523199 103.7896511  96.7916759  96.0705332
 104.3635373  96.1544003  96.2253896 103.7111315  96.7920841  95.2014990
 103.8629746  96.6981870  95.9651743  92.3892928  93.5705968  89.9088046
  92.9666430  93.4342419  90.5480292  91.6906989  93.1141752  90.1633631
  92.3713949  93.4828235  90.0410336 105.7867059  95.4579286  78.6552003
 105.7047221  95.5281473  79.5206990 106.4246779  96.0209030  78.4635744
 105.8686896  95.5518257  78.7541953  99.1460230  95.2240024  88.1226530
  98.8879474  94.3911759  88.0957829  99.2008713  95.4497637  87.2819030
  99.1160008  95.1337795  87.9946666 104.2261280  87.3268475  88.2230622
 103.5217607  86.8377660  88.3814542 104.2746254  87.3390949  87.3519067
 104.1291332  87.2558123  88.1169962  98.1194942  92.7777786  88.6091424
  97.5444533  92.9369955  89.2455385  97.7430618  92.1413196  88.1459875
  97.9797754  92.7075599  88.6345983 101.7868231  91.2501136  93.4683803
 101.3982663  90.8255353  92.8135994 101.1222929  91.4983285  93.9760830
 101.6315158  91.2239857  93.4471671 111.4291500  91.0076140  86.2431633
 111.1728065  90.1956082  86.0529516 112.2720814  91.0153708  86.0161820
 111.5157525  90.8888138  86.1816450  87.8651761  92.4217861  86.6235865
  87.9512013  92.0449730  87.4049395  88.4927558  92.0478307  86.1455823
  87.9708312  92.3103343  86.6681342 105.6094592  84.9475765  90.9807787
 105.9905104  84.2653936  91.3675661 104.8057876  84.6585367  90.7983452
 105.5471054  84.8042813  91.0111843 102.8907169  95.4799740  81.6660610
 103.7047808  95.7714633  81.5543381 102.8266310  94.8259603  81.0918903
 103.0009908  95.4264935  81.5649447 109.1116659  98.1625736  96.0790185
 108.8755296  97.3313801  95.9602246 109.7559888  98.1111344  96.6645030
 109.1711330  98.0323424  96.1476079  98.7615077  98.9521258  86.7932922
  99.3989024  98.7133005  87.3384715  99.1870149  99.1558417  86.0586083
  98.9191243  98.9472268  86.7650079  93.4527720 101.1909594  90.6767226
  93.4931865 101.4624445  89.8487005  94.0122244 101.7151502  91.0925014
  93.5411065 101.3085349  90.6159114  99.4017892  94.1723548  81.1307811
  99.7863045  93.9531254  81.8824356  99.1529512  94.9986493  81.2608888
  99.4219965  94.2621694  81.2608888  99.5686433  87.4529963 100.8470396
  99.2539874  88.2229525 100.5839958  99.2476365  86.8900219 100.2622622
  99.4745352  87.4840231 100.7211745 110.1353080  97.9470185  92.1418480
 109.8298897  98.6798242  92.5031796 109.4159295  97.5408115  91.8611266
 109.9840422  97.9951918  92.1531617 101.1436549  99.4293680  88.4726708
 101.2175557  99.2668852  89.3268558 101.9606055  99.6183870  88.2287190
 101.2752908  99.4330423  88.5624734 115.8354872  94.5863186  91.4686824
 115.7679372  94.6059145  90.5989411 115.8210534  95.4293513  91.6942495
 115.8233628  94.7136921  91.3739301  94.9042306  99.7751543  85.5021152
  94.0780423 100.0213280  85.3755430  94.9654297  99.6963624  86.3683210
  94.7916473  99.7996492  85.6110096  97.1218330  85.8420484  86.4616592
  96.2540755  85.9143084  86.5274201  97.4093534  86.6442563  86.6504567
  97.0358078  85.9714631  86.4991358 106.2451218  85.9898344  94.7927914
 106.9904810  85.8008154  94.3791339 105.8288523  86.5156582  94.2341770
 106.2936193  86.0400489  94.6492487  99.6841135 102.3928423  83.2040182
  99.9739433 102.0017405  82.4799408 100.4144616 102.5745128  83.6445457
  99.8348019 102.3622237  83.1622989 113.6213489  93.3607572  89.7433419
 114.1721411  92.7275641  89.9830511 113.6057605  93.8922965  90.4348923
 113.6998685  93.3456520  89.8812277 100.2735880  97.1946169  94.2893312
  99.7747574  97.9061937  94.3678201 101.0836104  97.5146836  94.2511474
 100.3191987  97.3473018  94.2949881  97.6247050 104.3695806  86.2700331
  97.4047346 104.0793161  87.0626998  97.4041572 103.7110761  85.7418244
  97.5594645 104.2295514  86.3089240  96.5363998  96.4569122  88.5356033
  96.2477246  95.8306594  89.0701760  97.4047346  96.3989410  88.6020713
  96.6224249  96.3556667  88.6246988 107.3241895  91.6003906  88.8538015
 106.9806661  90.8794241  89.2045265 107.4234938  91.3917757  88.0116373
 107.2883938  91.4628109  88.7809695  99.7915006 105.7425196  85.0531024
 100.4439064 105.2101638  85.2822050  99.0940615 105.3893848  85.4398898
  99.7845724 105.6114719  85.1443191  96.7396271  98.0964373  84.4598398
  97.4942239  98.4777413  84.6733861  96.1466884  98.5475517  84.9145095
  96.7632985  98.2193201  84.5581276 107.7854924  98.0629610  84.3962003
 108.3512957  98.7222820  84.3120546 107.1382828  98.4079308  84.8678405
 107.7733681  98.2111551  84.4534759  99.2002938  90.0527214  99.5855610
  98.3902714  90.3584993  99.4745453  99.6777625  90.7732796  99.7008194
  99.1506417  90.2041815  99.5862681  98.0594498  99.2672935  89.8338513
  97.5375251  99.4073226  90.5190378  98.4468518  98.5083599  90.0240631
  98.0398198  99.1758459  89.9639590  95.0485682  89.3178744  83.9033468
  94.7610477  88.9480014  83.1665415  95.7356150  89.7873599  83.6417173
  95.1074579  89.3325713  83.7548544 104.2561503 101.0068394  83.8199082
 104.0148178 100.2736255  83.4126147 104.4362835 101.5555251  83.1665416
 104.2469127 100.9790785  83.6629305  99.4860823  96.2976954  85.2320004
  99.2903606  96.9051688  84.6380307  99.7095169  95.6044898  84.7511678
  99.4895464  96.2854479  85.0736085  97.8839353  93.1831692  85.3500873
  98.6062005  93.3472850  84.8904679  97.4047346  93.9041357  85.2440213
  97.9203084  93.3129921  85.2666487 105.8432861  89.5195491  90.7297558
 105.0043961  89.5456769  90.4935821 105.9137228  90.1666226  91.3102904
 105.7301254  89.6191616  90.7806675  95.5346970  95.5889764  94.4555013
  96.0468067  95.8674017  93.8063772  95.2483312  96.3279058  94.8217826
  95.5681833  95.7392118  94.4144891 104.2902139  86.4180868  85.4625174
 104.9928492  86.2188616  84.9845132 104.0246328  85.6456810  85.7694017
 104.3548771  86.2743834  85.4370615 109.7190385  94.7263477  88.0158800
 109.6324359  94.8818903  88.8693578 109.2640865  95.3701553  87.6418205
 109.6393641  94.8439232  88.0865906  92.6213876  90.0959956  84.7518749
  92.7230013  90.8986117  85.0799725  93.4169763  89.8947292  84.4541830
  92.7541782  90.1845855  84.7554105  99.0530695  87.6816153  94.5156054
  98.8613892  87.6971287  95.3655478  99.9029291  87.8779827  94.4922709
  99.1506417  87.7130504  94.6379349  93.4377608  90.2107134  92.4939871
  93.2963100  89.3591075  92.6184379  93.7218172  90.2535795  91.6702077
  93.4585454  90.0906884  92.3907495 103.5916201  92.0474224  86.6384359
 103.3450915  91.9669975  87.4721148 103.9201324  91.2627692  86.4446887
 103.6037444  91.9200490  86.7331882 107.4864249  98.7557584  90.4271140
 107.3478609  99.4538630  90.9319883 106.7064247  98.6006240  90.0707322
 107.3507476  98.8357750  90.4497414 105.8242335  95.0553959  96.6793522
 105.8190373  94.1833776  96.6835948 106.5303328  95.2542128  96.2062978
 105.9287339  94.9557833  96.6100557  99.5513228  94.7830943  96.0507342
  99.6956604  95.3632151  95.4150452  99.8988876  95.1607240  96.7557197
  99.6240689  94.9251647  96.0606337 101.7233145  93.9821111  93.8332474
 100.9756459  94.1752126  93.4280752 101.8774671  93.1566331  93.5956595
 101.6355573  93.8886223  93.7377880  98.6240983 102.9733715  92.9168369
  98.7730547 102.4136631  92.2641773  99.4040985 103.0525717  93.3000888
  98.7615077 102.9019280  92.8765318 108.9817622  98.1135838  81.1887640
 108.6024431  97.3272975  81.1816929 108.3183868  98.6622695  81.0459284
 108.8276097  98.0780662  81.1668436 101.1494284 103.1448358  94.1952860
 101.0737955 102.4757168  94.7503648 101.0784143 103.8466146  94.7093526
 101.1274890 103.1493265  94.3529708 101.9634922  87.8771662  94.7227877
 102.4207536  88.6095636  94.8500670 102.0391251  87.4538127  95.4815133
 102.0425892  87.9228900  94.8528954  94.2067914  88.1237482  95.8117321
  93.6710103  87.5117840  96.1278088  94.2685678  88.6985618  96.4650988
  94.1363546  88.1184410  95.9552748 106.4362248  81.0561537  88.5921720
 106.5545816  81.5138001  87.8589023 106.2624424  80.2506799  88.3057938
 106.4281419  81.0055309  88.4422654 101.8064531 101.6649357  85.0276466
 102.5714422 101.3959000  84.7059130 101.7042620 101.1799367  85.7446529
 101.9046026 101.5538921  85.0856293  99.8417300  89.8673766  91.5669701
  99.0513375  89.6865226  91.8887037 100.2377923  89.0900719  91.5499996
  99.7834176  89.7261227  91.6122250 104.3283191  98.6961540  77.0076415
 105.0956176  98.7561665  76.5982267 103.8814500  98.1241982  76.5232734
 104.3756618  98.6198116  76.8754125 105.2260987  97.5016196  89.2929147
 104.5505988  97.2701428  89.7942534 105.2353363  96.8937379  88.6671252
 105.1279491  97.3775121  89.2745300 102.3555131  92.3434025  96.0493200
 102.2914272  93.2043982  95.9213337 102.4952318  92.0266018  95.2488752
 102.3670601  92.4234192  95.9121413 107.2277721 100.3581329  81.5239325
 107.3097559 101.1648315  81.2000776 107.7127463 100.3777288  82.2480099
 107.3114879 100.4801991  81.5826224 101.0374224  95.0366164  90.1909403
 100.6136474  95.2370664  89.4548422 100.8619080  94.1895012  90.3033703
 100.9485105  94.9414946  90.0983093 100.5385918 106.5516677  92.6530861
 101.0281848 105.8527467  92.4706525  99.9670150 106.2540547  93.2406918
 100.5270448 106.4042901  92.7131901  96.3256669  95.5318216  85.6237376
  96.4821289  95.4665019  86.4793368  96.6657262  96.3066768  85.4116055
  96.3989904  95.6367414  85.7191970 102.8635814  94.9076100  84.4930739
 103.4051359  94.4046481  84.9569360 103.1782373  94.8541294  83.6820224
 102.9900211  94.8255520  84.4414551 101.0322264 100.2993451  81.7770767
 101.1015084  99.4407990  81.9163767 101.8110719 100.5165332  81.4489792
 101.1575114 100.2046315  81.7487924 104.0125083  89.8012404  94.5453039
 104.2267053  89.1623318  93.9916393 103.3958983  90.2458228  94.1160901
 103.9530413  89.7722548  94.4003471 105.4229751 102.7231152  85.9907260
 105.0309543 102.4197867  85.2730127 105.5782824 103.5600242  85.8012214
 105.3883341 102.8014989  85.8563757  92.8990931  92.7153166  85.9398143
  93.2789896  93.1337711  85.2758410  92.3246296  93.2966622  86.2466986
  92.8702256  92.8631025  85.8874884 106.1764171  91.4101469  95.4836347
 105.3640853  91.1027360  95.5649519 106.6354106  90.9300469  96.0479059
 106.1244556  91.2937962  95.5790941 105.5869426  99.2881141  85.9313291
 105.2284081  99.4595784  86.7077323 105.1008137  99.7494347  85.3741289
 105.4628123  99.3820112  85.9638560 103.4039812  82.9112340  89.5340382
 102.5333370  82.8851061  89.4873692 103.6580153  82.7389532  88.7166228
 103.3133372  82.8822483  89.4060519 100.3757791  94.9680307  78.4713525
 100.6650316  95.7445189  78.7457100 100.4629590  94.4569038  79.1728025
 100.4312048  95.0072225  78.6156023 103.2717679  92.8161541 100.2665049
 103.7417310  93.4403657 100.6532923 103.3179559  92.1478516 100.8258264
 103.3485555  92.8096221 100.4065120 100.4288953  84.9218568  90.9913853
  99.9127441  84.2298760  91.1165432  99.8682881  85.5889345  90.9376451
 100.2695466  84.9181826  91.0019919 102.4981186  85.4611528  92.8206705
 102.1112939  85.4860560  93.6020235 102.0114123  84.8953207  92.3681222
 102.3693695  85.3807279  92.8694609 106.7474165 100.1785037  96.8780492
 107.3853886  99.6845233  96.5442948 106.1048257 100.1062438  96.2932719
 106.7468392 100.0944046  96.7422847 108.4731165  92.0274183  91.4446407
 108.0458774  91.9400532  90.6894507 107.8357218  92.1351959  92.0301251
 108.3160773  92.0306843  91.4191849 102.1638328  82.3478514  95.1116965
 102.7931446  82.8838814  94.8338036 102.3324190  82.2555873  95.9630531
 102.2816122  82.4139876  95.1965493 101.9652243  87.1349708  97.3843377
 102.7925672  86.8634857  97.4401991 101.9860089  87.9310550  97.7407195
 102.0905093  87.2129463  97.4458560 106.8028422 100.8704845  93.5185849
 107.5920800 100.5193910  93.6387930 106.9772020 101.6841234  93.2562482
 106.9448704 100.9390703  93.4973717  96.5421732  94.2813571  90.5713637
  95.7009739  94.1817445  90.7792531  96.7511740  95.0509051  90.9227958
  96.4486425  94.3805614  90.6540952  94.0197299  91.9033108  88.3998388
  93.6253997  91.9776120  87.6248498  93.4637416  92.2891054  88.9506750
  93.8800112  91.9714883  88.3666048 105.6562246  84.8814402  88.0802267
 105.8611840  84.8136710  88.9259264 105.3288670  85.6873223  88.0123444
 105.6377494  84.9900343  88.1961922 100.3538397  92.2094970  89.8211235
 100.0501535  91.6550959  90.4221643  99.6517818  92.3887180  89.3339269
 100.2054607  92.1539753  89.8380941  99.4104494  89.5195490  84.3855937
  99.6864229  88.8014403  83.9733504 100.0103164  90.1180410  84.1777043
  99.5397759  89.5015861  84.2936698  98.4156748  99.4244691  94.5283333
  98.3077103  99.4346753  95.3945391  98.6252530 100.2499471  94.3388286
  98.4306859  99.5485766  94.6287424 108.9095934  85.4346166  87.5605032
 108.2970247  85.9216569  87.9458764 109.0060109  84.7589657  88.1042684
 108.8333832  85.4064475  87.6983891 102.9115015  87.1909008  82.6602532
 103.3658761  87.3619568  83.3850376 103.3855061  86.5777118  82.2600307
 103.0483335  87.1259893  82.7076293  96.4330540  96.6757333  91.9905270
  95.8418474  97.3166832  91.9608285  97.1951564  97.0994951  91.9636570
  96.4578801  96.8333172  91.9820417  96.8291163  87.8359331  92.6573288
  97.2892645  87.9098261  93.3948412  96.8747270  88.6340585  92.3073109
  96.9041718  87.9653478  92.7146044  98.4774513  88.5026026  97.2245315
  98.0860078  87.8559373  97.6601093  98.6460376  89.0937461  97.8439570
  98.4445423  88.4940294  97.3808021 112.5520962  96.5063103  92.9882549
 112.6104086  96.9549752  93.7342525 111.9187429  96.9161916  92.5512629
 112.4672257  96.6336838  93.0335097 106.1920057 102.1266645  89.4237295
 105.9939745 102.6157460  88.7293506 105.5707768 102.3307887  90.0021428
 106.0707621 102.2283183  89.4060518 100.2528035  93.8951542  83.7647539
 100.9970080  94.2825818  84.0030489 100.3988731  93.0508967  83.9288027
 100.3838620  93.8282015  83.8241509 102.1707610  85.6901801  88.7979400
 101.3243655  85.8624609  88.6720750 102.1678743  84.8851145  89.1345229
 102.0454760  85.5962830  88.8290527 103.2405911  89.4677015  89.6641458
 102.7665865  88.9418777  90.1746769 103.6124047  88.9206488  89.0956320
 103.2255800  89.3093012  89.6556606  93.6178941  91.4648522  95.0325004
  94.4804554  91.3644231  94.9462334  93.2870724  90.8843231  94.4710576
  93.6964137  91.3640149  94.9370410 109.5042641  94.5279391  91.0748239
 109.2640864  93.6885806  91.0790665 109.9834648  94.6079558  91.7989012
 109.5394825  94.4160791  91.1823041 105.1689410  90.3613570  82.7267212
 104.6412429  90.4442314  82.0372921 105.6285119  91.1031441  82.7231857
 105.1591261  90.4834232  82.6241907 111.5047828  91.3080848  89.0277498
 111.2657598  91.2676682  88.1898283 111.6681730  92.1552000  89.1543219
 111.4938132  91.4272933  88.9230980 108.1093858  95.6930797  94.9582543
 108.8328057  95.2403324  94.7793563 107.8443821  95.9735463  94.1754871
 108.1775132  95.6681766  94.8161258  96.9780727  90.2890971  91.6935422
  96.3533797  90.3009363  91.0861375  96.6426322  90.7651146  92.3426662
  96.8366219  90.3609488  91.6991991  97.1622476  88.6316089  77.7508107
  96.8135280  89.2835815  78.2139657  96.6818921  88.6173202  77.0231978
  97.0392719  88.7259143  77.7119199  93.6906402  98.3491431  93.1339187
  93.1606327  97.6583870  93.1834161  93.9631496  98.3401616  92.3051895
  93.6531125  98.2458563  93.0186603 104.7226493  98.9317133  81.8576869
 105.4460692  99.3975246  81.7141442 104.2827084  98.9990743  81.1074466
 104.7642185  99.0100970  81.7261651 103.8912648  95.7914676  93.1077558
 103.2769641  95.2472726  93.4026193 104.4079933  95.2778912  92.6283374
 103.8768310  95.6351085  93.0801787 103.1308945  96.8618946  90.8421857
 102.7036553  96.2368664  90.4087292 103.1233890  96.5793867  91.6680864
 103.0668086  96.7271726  90.9001684  96.2471472  91.8984119  93.9110291
  96.4064959  91.1427443  94.3162013  96.0664366  92.4475058  94.5651028
  96.2436831  91.8677932  94.0672997 104.1891775  84.0645354  94.4661080
 103.6932336  84.2609028  93.7752647 104.9460837  84.4638022  94.2949882
 104.2278600  84.1523088  94.3381217 101.4594655  87.7387700  91.0564391
 101.4837142  87.2047812  90.3677171 101.7106128  87.2305009  91.7189981
 101.5004574  87.5848604  91.0529035  88.9702245  95.0219195  90.4907535
  88.8645694  94.9766039  89.6259619  88.2202465  95.3672976  90.7721820
  88.8437848  95.0660103  90.4044865  97.7395977  86.4658518  90.4370135
  97.7794349  86.9667725  91.1504843  96.9145642  86.5568912  90.1676058
  97.6235503  86.5540335  90.5020673  99.9225590  96.0319258  98.5390430
  99.0721220  96.1690973  98.6748075 100.0853718  95.2983037  98.9838131
  99.8209453  95.9433360  98.6246029  99.1610340  92.9819028  92.7344034
  98.3302270  93.1492846  92.5279282  99.1061858  92.6054979  93.5192919
  99.0299755  92.9508759  92.8192562  96.9694124  86.4727921  98.3700445
  97.5946827  85.9290054  98.6429877  96.5144604  85.9922839  97.8008235
  96.9942384  86.3217402  98.3262039  97.5346384  91.2574620  83.2634152
  97.6749345  91.7547084  83.9662793  98.0328917  90.5560914  83.4048365
  97.6287465  91.2276599  83.3885731  97.5646607  92.1241731  80.5926729
  98.1991686  92.7202156  80.5276190  97.6472217  91.8245188  81.4072599
  97.6703158  92.1682639  80.7029815 110.5429172  94.6557208  93.4613093
 111.1347013  95.2954459  93.4931291 110.9788167  93.9580245  93.7505160
 110.6947604  94.6475558  93.5093925  99.1425590  88.0555706  80.5672171
  99.4641431  87.5758789  79.9131433  99.4052533  88.8655352  80.3762982
  99.2291615  88.1045604  80.4427663 102.3722562  99.0774581  94.0870987
 101.8647653  99.6310427  94.5311617 102.0749208  99.1382870  93.2689761
 102.2527447  99.1680892  94.0319443 104.5384744  87.4427900  92.9295650
 104.9639816  86.9900427  92.3179176 103.9241738  86.8887971  93.2060437
 104.5113390  87.2941876  92.8800675  94.0699595  94.3209572  83.8616275
  94.5791824  94.9174079  84.2427580  94.5433867  94.0535545  83.1792694
  94.2142970  94.3695387  83.8170797 104.9830343 102.9937838  82.0174930
 104.2659652 102.8198700  81.5522168 105.6337080 102.7590411  81.4850416
 104.9732193 102.9333631  81.8704148 102.9778967  83.9143000  86.3386227
 102.3347285  83.7640646  86.9071365 102.6378374  83.6685345  85.5735331
 102.8324045  83.8555122  86.3089242 107.5678314  91.8702427  85.7616235
 106.8969504  92.4132129  85.6329301 108.2618064  92.3397282  85.5197930
 107.5707181  92.0200698  85.7071763 101.6165048 104.0099139  90.9927994
 101.3930702 103.2517968  91.3612020 101.1274891 104.0397160  90.2708433
 101.5108497 103.9021363  90.9404735 107.7306441  88.3258310  88.6706609
 108.0834051  87.8988033  89.3452407 106.8721243  88.2409154  88.8007685
 107.6555886  88.2503051  88.7901619  96.4290126  90.9565830  86.7289455
  95.7102115  91.3729963  86.9962319  96.8002489  91.5220069  86.1781093
  96.3782058  91.1015112  86.6872262 105.7289707  91.5893679  92.6191451
 105.7087634  91.4076974  93.4726230 105.7768908  92.4605698  92.5951034
 105.7324348  91.6910217  92.7414746 103.6736037  98.1780871  98.5439927
 103.6331892  97.5330548  97.9585083 104.4859355  98.1217488  98.8565339
 103.7879190  98.0739838  98.5036877 100.2643504 104.2299597  88.4465078
  99.8503903 103.5673727  88.0568920 100.9490879 104.3777456  87.9260772
 100.3041876 104.1540255  88.3121575 103.6308799 103.3889682  89.1988695
 103.2325082 103.4991952  88.4309515 103.0160018 103.5971748  89.7815255
 103.4807688 103.4363250  89.1719994 102.2036701  89.9963830  82.0662835
 101.6101540  90.3180826  81.5147402 102.2411978  89.1504925  81.8583941
 102.1211090  89.9188158  81.9545606 109.1630501  83.4476722  89.5990921
 108.6561366  82.7405862  89.5312099 109.9597935  83.1169911  89.7291998
 109.2057741  83.2949874  89.6089916 105.0794517  89.9543334  85.4964585
 104.8508210  89.9776036  84.6542943 105.3392593  89.1300802  85.6159595
 105.0840705  89.8359414  85.3889782  99.3613746  91.8077808  95.0989685
  98.8492649  91.1998990  95.4574716  99.1893242  92.5234400  95.5663661
  99.2603383  91.8241107  95.2205909  94.2079460  90.2515383  97.7492047
  94.0382051  90.9116758  97.2040253  93.7645410  90.4621944  98.4704536
  94.1178794  90.3801365  97.7753676  98.1339280  88.4919881  86.7918780
  98.6096646  88.8536961  86.1568962  97.6327879  89.1476348  87.0718923
  98.1304639  88.6414070  86.7395521 111.3650641  97.9641649  82.5831785
 111.7484247  98.7133005  82.8129882 110.5694755  98.2107469  82.3243775
 111.3044424  98.1111343  82.5789359 103.2382816  89.7302052  97.5391941
 103.7954246  89.5015862  96.9070406 102.9143881  90.4907718  97.2627153
 103.2729226  89.8085889  97.4048438  91.1081525  93.1562248  93.0080537
  90.5608244  92.4862894  93.1261405  91.8973903  92.7892096  93.0724004
  91.1433709  93.0027235  93.0349237 100.9565933  92.8169705  98.5043948
 101.7077260  93.1321382  98.8183502 101.1488510  92.6148876  97.6777869
 101.0957347  92.8337087  98.4287343 100.1765933  90.6361081  80.1592164
 100.5564898  90.6540710  79.3743279  99.4358529  91.0815069  80.0383012
 100.1234771  90.7042855  80.0255733 107.8051223  88.9443272  85.7467743
 107.8045450  88.7891928  86.6052019 107.6007403  89.7906259  85.6909129
 107.7751001  89.0463893  85.8655683  89.8668494  92.3683056  90.1626560
  89.6890255  91.9159665  90.8881475  89.5787516  93.1709218  90.3465037
  89.7981448  92.4205614  90.2970063 105.5292075  93.6240774  89.4003950
 106.0245741  92.9063769  89.3607970 104.7191851  93.3211571  89.2858437
 105.4835969  93.4738420  89.3777676 100.9750687  97.4738587  81.5500954
 100.1662010  97.1505260  81.5034264 101.4825596  96.7671809  81.4829203
 100.9300354  97.3219903  81.5331249  91.6040964  94.9010780  87.2748319
  90.7386484  94.8896470  87.1631090  91.7039780  94.7141003  88.1219458
  91.4915131  94.8716841  87.3837263 107.5943894  96.3744461  92.0881079
 108.0198966  95.8518883  91.5351504 107.2300814  96.9725299  91.5669702
 107.6030497  96.3854688  91.9290088  97.2297974 104.6708679  90.8478424
  97.5444533 105.4845067  90.8556206  97.6391387 104.2858897  91.5160583
  97.3366072 104.7337381  90.9482516 104.1822494 100.0878725  88.4182236
 104.6533672 100.8018988  88.5872221 104.5182672  99.4877476  88.9542106
 104.3017609 100.1050190  88.5214612 101.0991989  84.8606196  95.3740331
 101.2319894  84.0637189  95.7021307 101.4837141  85.3872599  95.9538607
 101.1748318  84.8206113  95.5083834 104.8196440  99.8796660  95.1809929
 104.2717386  99.2554543  94.9129994 105.2809469 100.0690932  94.4654008
 104.8063650  99.8155710  95.0360360 104.1724344  81.7836522  91.9721424
 103.3670308  81.6734252  92.2889263 104.0431079  81.8848978  91.1151290
 104.0344477  81.7820192  91.8929465 107.6290304  87.9482014  92.5661121
 107.0453293  88.4491220  92.1538689 107.9494598  87.4411570  91.9325444
 107.5903480  87.9473849  92.4119628 100.1685104  86.8622609  82.8419796
 100.9900798  87.0320922  82.6001491  99.7054754  87.0169870  82.1186094
 100.2216266  86.9104342  82.6991440  98.7580435  84.8565371  93.6218225
  99.3024848  84.5156498  94.2122566  98.8117371  85.7150833  93.7639509
  98.8469555  84.9320630  93.7300098  94.5710994  98.6181787  90.4957033
  95.1755852  98.5777621  89.8670853  94.3638307  99.4652939  90.5261088
  94.6299892  98.7369790  90.4073149 104.3854766 100.8847732  91.7119270
 105.2053140 100.7410698  91.9735565 104.1048844 101.5093931  92.2535708
 104.4651510 100.9558084  91.8307209  89.8062277  97.6016405  90.3655956
  89.7086555  96.7912676  90.6746012  90.5891146  97.5808198  89.9802224
  89.9078413  97.4783495  90.3542819 120.8568417 108.5412584  84.6762146
 120.8262421 109.3957221  84.8480416 121.4549766 108.2407876  85.2348290
 120.9405575 108.6229080  84.7836949 114.0568102 107.6288235  89.4315077
 113.2005997 107.7896733  89.4824194 114.1035755 106.7580299  89.4520138
 113.9367213 107.5239037  89.4421143 108.4409241 117.1650953  85.1952308
 107.6892141 116.7866491  84.9668353 108.8895253 117.1969386  84.4471119
 108.3958908 117.1136560  85.0509811 110.0193997 117.1769345  87.4615081
 110.1204360 116.3669699  87.7712209 109.4235743 117.0826291  86.8314759
 109.9466536 117.0434373  87.4141319 118.6784991 111.1164886  82.9480456
 118.5624517 111.8672572  83.3772594 119.4740878 110.8588839  83.1976543
 118.7789581 111.1899733  83.0484548 103.2159042 113.1989631  87.0867415
 102.9809226 112.3657284  86.9799683 103.3544683 113.4794297  86.2728616
 103.2014704 113.1173135  86.9509770 105.5149129 105.3675362  89.9851722
 104.8954161 104.7768009  89.8161737 105.4132993 105.9586797  89.3516045
 105.4086805 105.3679445  89.8656712 110.5615317 115.1058909  84.2349799
 110.8831158 115.6464116  83.6311107 111.2087413 114.5355680  84.3672088
 110.7041372 115.1018084  84.1656834 112.6117025 107.1074904  84.3184185
 113.3097190 107.2863031  84.8105649 112.9269357 106.5845243  83.6954575
 112.7612362 107.0568676  84.2986195 105.2418262 108.9127644  92.2295291
 105.1176959 109.4990089  92.8645110 105.8936547 108.4187840  92.5307566
 105.3191912 108.9266448  92.3681221 112.8004960 113.4945349  84.3063977
 113.2398596 112.8862449  84.7518750 112.6509623 113.1152722  83.5349442
 112.8426426 113.3483820  84.2583144 110.7843888 102.4767301  88.4005460
 110.4547218 102.9278444  87.7309159 110.1088890 102.3983464  88.9478466
 110.6354325 102.5318436  88.3828683 116.4014297 111.8472530  81.2594746
 116.3165592 112.7033497  81.4044315 116.8898680 111.5716854  81.9276905
 116.4603194 111.9329852  81.3796828 117.9920296  98.4652823  86.6455071
 117.6773737  99.1556302  87.0775493 117.4747238  98.4097606  85.9440571
 117.8684767  98.5587712  86.6052020 117.3332730 108.4657324  82.7592481
 116.8044201 108.6816958  83.4189787 117.8557750 109.1593463  82.6793451
 117.3321183 108.6000461  82.8448080 109.2232338 112.3620541  81.5599949
 108.6389553 112.8670573  81.9665813 108.8202433 112.1362928  80.8196541
 109.0771642 112.4028789  81.5104974 104.7776366 118.0775302  88.3623621
 104.2943945 118.8025792  88.3383204 105.5899685 118.3751432  88.4733778
 104.8267114 118.2277656  88.3750900 113.6809552 108.6086193  80.0368870
 113.9205556 108.8164177  79.2244213 114.0025393 107.8043702  80.1457814
 113.7646710 108.5200294  79.9329423 108.9899843 100.5379589  83.8828408
 109.7445811 100.9057906  83.6445458 108.8127377 100.9119143  84.6507587
 109.0754321 100.6477777  83.9613296 107.3456907 102.9449908  80.5806521
 107.1632480 103.1621789  79.7547513 108.2082520 103.0588921  80.6365135
 107.4461497 102.9939806  80.4661008 106.9571339 114.7837830  88.0229509
 107.7960239 115.0160763  88.0703270 106.9883108 113.9142142  87.9536544
 107.0853057 114.6894777  88.0194153 113.0256626  99.9476319  83.6155544
 113.7542787  99.7692274  83.1693701 113.1151519 100.7894398  83.8262723
 113.1463288 100.0460197  83.5809062 117.0064927 110.8829706  87.5187838
 117.7622442 111.3161220  87.5576747 117.1127251 110.2334476  88.0922475
 117.1335098 110.8507190  87.6085864 102.9861187 111.4238996  92.4777236
 102.7199602 110.6078113  92.6368226 102.9999751 111.4692152  91.6072751
 102.9485910 111.3095901  92.3730718 119.9642581 101.7516811  90.5119669
 120.6068489 101.8214916  91.0981585 120.2165602 101.0846034  90.0099211
 120.0964713 101.6643160  90.5246949 106.8918934 106.2224081  79.0928994
 106.1777111 105.9362260  79.5051426 107.3762903 106.5620706  79.7335381
 106.8578298 106.2305730  79.2484629 107.7359794 104.9617374  95.1244243
 107.0431590 104.4914354  95.3704975 108.3520121 104.7355679  95.6985950
 107.7244324 104.8584506  95.2453396 114.0666252 114.7254035  79.4690802
 114.4817401 114.3939058  78.7775298 113.2358182 114.4922937  79.3410939
 114.0054261 114.6425291  79.3481649 103.3954601 112.2097776  89.7588980
 103.2130174 112.1844662  88.9061272 104.1304270 112.6796713  89.7977889
 103.4768665 112.2759138  89.6386898 116.5076621 109.1315854  85.4215051
 116.6023475 109.8705148  85.8754677 115.8835464 108.7033330  85.8549616
 116.4285651 109.1777175  85.5523199 103.3625511 109.0891276  89.9088046
 103.9399014 108.9527727  90.5480292 102.6639573 108.6327060  90.1633631
 103.3446533 109.0013542  90.0410336 116.7599642 110.9764594  78.6552003
 116.6779805 111.0466781  79.5206990 117.3979363 111.5394338  78.4635744
 116.8419480 111.0703565  78.7541953 110.1192813 110.7425332  88.1226530
 109.8612058 109.9097067  88.0957829 110.1741296 110.9682945  87.2819030
 110.0892591 110.6523103  87.9946666 115.1993864 102.8453783  88.2230622
 114.4950190 102.3562968  88.3814542 115.2478838 102.8576257  87.3519067
 115.1023915 102.7743431  88.1169962 109.0927526 108.2963094  88.6091424
 108.5177117 108.4555263  89.2455385 108.7163202 107.6598504  88.1459875
 108.9530338 108.2260907  88.6345983 112.7600814 106.7686444  93.4683803
 112.3715247 106.3440661  92.8135994 112.0955513 107.0168593  93.9760830
 112.6047742 106.7425165  93.4471671 122.4024083 106.5261448  86.2431633
 122.1460648 105.7141390  86.0529516 123.2453397 106.5339016  86.0161820
 122.4890109 106.4073446  86.1816450  98.8384344 107.9403169  86.6235865
  98.9244596 107.5635037  87.4049395  99.4660142 107.5663615  86.1455823
  98.9440895 107.8288651  86.6681342 116.5827176 100.4661072  90.9807787
 116.9637687  99.7839244  91.3675661 115.7790460 100.1770675  90.7983452
 116.5203637 100.3228121  91.0111843 113.8639752 110.9985048  81.6660610
 114.6780391 111.2899941  81.5543381 113.7998894 110.3444911  81.0918903
 113.9742491 110.9450243  81.5649447 109.7347661 114.4706566  86.7932922
 110.3721608 114.2318313  87.3384715 110.1602732 114.6743725  86.0586083
 109.8923827 114.4657576  86.7650079 104.4260303 116.7094902  90.6767226
 104.4664448 116.9809753  89.8487005 104.9854827 117.2336810  91.0925014
 104.5143649 116.8270657  90.6159114 110.3750476 109.6908855  81.1307811
 110.7595628 109.4716562  81.8824356 110.1262096 110.5171801  81.2608888
 110.3952548 109.7807002  81.2608888 112.1169133 114.9478988  88.4726708
 112.1908141 114.7854160  89.3268558 112.9338639 115.1369178  88.2287190
 112.2485491 114.9515731  88.5624734 105.8774889 115.2936851  85.5021152
 105.0513007 115.5398588  85.3755430 105.9386881 115.2148932  86.3683210
 105.7649056 115.3181800  85.6110096 108.0950913 101.3605792  86.4616592
 107.2273339 101.4328392  86.5274201 108.3826117 102.1627871  86.6504567
 108.0090661 101.4899939  86.4991358 117.2183802 101.5083652  94.7927914
 117.9637394 101.3193462  94.3791339 116.8021106 102.0341889  94.2341770
 117.2668776 101.5585797  94.6492487 107.5096581 111.9754430  88.5356033
 107.2209830 111.3491902  89.0701760 108.3779929 111.9174718  88.6020713
 107.5956833 111.8741975  88.6246988 118.2974479 107.1189214  88.8538015
 117.9539245 106.3979549  89.2045265 118.3967521 106.9103065  88.0116373
 118.2616522 106.9813417  88.7809695 107.7128855 113.6149681  84.4598398
 108.4674823 113.9962720  84.6733861 107.1199467 114.0660825  84.9145095
 107.7365568 113.7378509  84.5581276 109.0327081 114.7858243  89.8338513
 108.5107835 114.9258534  90.5190378 109.4201101 114.0268907  90.0240631
 109.0130782 114.6943767  89.9639590 106.0218265 104.8364051  83.9033468
 105.7343061 104.4665322  83.1665415 106.7088733 105.3058907  83.6417173
 106.0807162 104.8511021  83.7548544 110.4593407 111.8162262  85.2320004
 110.2636189 112.4236996  84.6380307 110.6827752 111.1230206  84.7511678
 110.4628048 111.8039787  85.0736085 108.8571937 108.7017000  85.3500873
 109.5794589 108.8658158  84.8904679 108.3779930 109.4226664  85.2440213
 108.8935667 108.8315229  85.2666487 116.8165444 105.0380798  90.7297558
 115.9776545 105.0642077  90.4935821 116.8869812 105.6851534  91.3102904
 116.7033838 105.1376924  90.7806675 115.2634723 101.9366175  85.4625174
 115.9661075 101.7373924  84.9845132 114.9978911 101.1642118  85.7694017
 115.3281355 101.7929142  85.4370615 103.5946460 105.6145264  84.7518749
 103.6962596 106.4171425  85.0799725 104.3902347 105.4132600  84.4541830
 103.7274365 105.7031163  84.7554105 110.0263279 103.2001461  94.5156054
 109.8346476 103.2156595  95.3655478 110.8761875 103.3965135  94.4922709
 110.1239001 103.2315812  94.6379349 104.4110192 105.7292442  92.4939871
 104.2695684 104.8776383  92.6184379 104.6950755 105.7721103  91.6702077
 104.4318038 105.6092192  92.3907495 114.5648784 107.5659532  86.6384359
 114.3183499 107.4855283  87.4721148 114.8933907 106.7813000  86.4446887
 114.5770028 107.4385798  86.7331882 112.9367506 103.3956970  94.7227877
 113.3940120 104.1280944  94.8500670 113.0123835 102.9723435  95.4815133
 113.0158476 103.4414208  94.8528954 105.1800497 103.6422790  95.8117321
 104.6442687 103.0303148  96.1278088 105.2418262 104.2170926  96.4650988
 105.1096130 103.6369717  95.9552748 117.4094832  96.5746845  88.5921720
 117.5278400  97.0323309  87.8589023 117.2357008  95.7692106  88.3057938
 117.4014003  96.5240617  88.4422654 110.8149884 105.3859074  91.5669701
 110.0245959 105.2050534  91.8887037 111.2110507 104.6086027  91.5499996
 110.7566760 105.2446535  91.6122250 115.3015775 114.2146848  77.0076415
 116.0688760 114.2746973  76.5982267 114.8547084 113.6427290  76.5232734
 115.3489202 114.1383424  76.8754125 112.0106808 110.5551472  90.1909403
 111.5869057 110.7555971  89.4548422 111.8351663 109.7080320  90.3033703
 111.9217689 110.4600254  90.0983093 107.2989253 111.0503524  85.6237376
 107.4553872 110.9850327  86.4793368 107.6389846 111.8252076  85.4116055
 107.3722488 111.1552722  85.7191970 113.8368398 110.4261407  84.4930739
 114.3783943 109.9231789  84.9569360 114.1514957 110.3726602  83.6820224
 113.9632795 110.3440828  84.4414551 112.0054847 115.8178759  81.7770767
 112.0747668 114.9593297  81.9163767 112.7843302 116.0350640  81.4489792
 112.1307697 115.7231623  81.7487924 103.8723514 108.2338474  85.9398143
 104.2522479 108.6523019  85.2758410 103.2978879 108.8151930  86.2466986
 103.8434839 108.3816333  85.8874884 114.3772396  98.4297648  89.5340382
 113.5065954  98.4036369  89.4873692 114.6312737  98.2574840  88.7166228
 114.2865956  98.4007791  89.4060519 111.3490375 110.4865614  78.4713525
 111.6382900 111.2630497  78.7457100 111.4362174 109.9754346  79.1728025
 111.4044631 110.5257533  78.6156023 111.4021536 100.4403876  90.9913853
 110.8860025  99.7484068  91.1165432 110.8415465 101.1074653  90.9376451
 111.2428049 100.4367134  91.0019919 113.4713770 100.9796836  92.8206705
 113.0845523 101.0045868  93.6020235 112.9846707 100.4138515  92.3681222
 113.3426278 100.8992587  92.8694609 113.1370911  97.8663822  95.1116965
 113.7664029  98.4024122  94.8338036 113.3056774  97.7741180  95.9630531
 113.2548706  97.9325184  95.1965493 107.5154316 109.7998879  90.5713637
 106.6742323 109.7002753  90.7792531 107.7244324 110.5694359  90.9227958
 107.4219009 109.8990922  90.6540952 104.9929883 107.4218416  88.3998388
 104.5986581 107.4961428  87.6248498 104.4370000 107.8076362  88.9506750
 104.8532695 107.4900191  88.3666048 116.6294830 100.3999710  88.0802267
 116.8344423 100.3322018  88.9259264 116.3021254 101.2058531  88.0123444
 116.6110078 100.5085650  88.1961922 111.3270981 107.7280278  89.8211235
 111.0234118 107.1736267  90.4221643 110.6250402 107.9072488  89.3339269
 111.1787191 107.6725061  89.8380941 110.3837078 105.0380798  84.3855937
 110.6596812 104.3199711  83.9733504 110.9835747 105.6365718  84.1777043
 110.5130343 105.0201169  84.2936698 119.8828517 100.9531474  87.5605032
 119.2702831 101.4401876  87.9458764 119.9792692 100.2774965  88.1042684
 119.8066415 100.9249783  87.6983891 113.8847598 102.7094315  82.6602532
 114.3391345 102.8804876  83.3850376 114.3587644 102.0962426  82.2600307
 114.0215919 102.6445201  82.7076293 107.4063124 112.1942641  91.9905270
 106.8151057 112.8352140  91.9608285 108.1684147 112.6180259  91.9636570
 107.4311384 112.3518480  91.9820417 107.8023747 103.3544639  92.6573288
 108.2625228 103.4283569  93.3948412 107.8479853 104.1525893  92.3073109
 107.8774302 103.4838786  92.7146044 111.2260618 109.4136850  83.7647539
 111.9702663 109.8011126  84.0030489 111.3721315 108.5694275  83.9288027
 111.3571204 109.3467323  83.8241509 113.1440194 101.2087109  88.7979400
 112.2976239 101.3809916  88.6720750 113.1411326 100.4036452  89.1345229
 113.0187344 101.1148138  88.8290527 114.2138494 104.9862323  89.6641458
 113.7398449 104.4604085  90.1746769 114.5856630 104.4391796  89.0956320
 114.1988383 104.8278320  89.6556606 104.5911524 106.9833830  95.0325004
 105.4537137 106.8829539  94.9462334 104.2603307 106.4028539  94.4710576
 104.6696721 106.8825457  94.9370410 116.1421994 105.8798878  82.7267212
 115.6145013 105.9627622  82.0372921 116.6017702 106.6216749  82.7231857
 116.1323844 106.0019540  82.6241907 122.4780412 106.8266156  89.0277498
 122.2390182 106.7861990  88.1898283 122.6414313 107.6737308  89.1543219
 122.4670715 106.9458241  88.9230980 107.9513310 105.8076279  91.6935422
 107.3266381 105.8194671  91.0861375 107.6158905 106.2836454  92.3426662
 107.8098802 105.8794796  91.6991991 108.1355059 104.1501397  77.7508107
 107.7867863 104.8021123  78.2139657 107.6551505 104.1358510  77.0231978
 108.0125303 104.2444451  77.7119199 104.6638986 113.8676739  93.1339187
 104.1338910 113.1769178  93.1834161 104.9364079 113.8586924  92.3051895
 104.6263708 113.7643871  93.0186603 107.2204056 107.4169427  93.9110291
 107.3797543 106.6612751  94.3162013 107.0396949 107.9660366  94.5651028
 107.2169415 107.3863240  94.0672997 115.1624359  99.5830662  94.4661080
 114.6664920  99.7794336  93.7752647 115.9193421  99.9823330  94.2949882
 115.2011183  99.6708396  94.3381217 112.4327238 103.2573008  91.0564391
 112.4569726 102.7233120  90.3677171 112.6838712 102.7490317  91.7189981
 112.4737157 103.1033912  91.0529035  99.9434828 110.5404503  90.4907535
  99.8378277 110.4951347  89.6259619  99.1935048 110.8858284  90.7721820
  99.8170431 110.5845411  90.4044865 108.7128561 101.9843826  90.4370135
 108.7526932 102.4853033  91.1504843 107.8878225 102.0754220  90.1676058
 108.5968087 102.0725643  90.5020673 110.1342924 108.5004336  92.7344034
 109.3034854 108.6678154  92.5279282 110.0794441 108.1240287  93.5192919
 110.0032339 108.4694067  92.8192562 107.9426707 101.9913229  98.3700445
 108.5679411 101.4475362  98.6429877 107.4877187 101.5108147  97.8008235
 107.9674968 101.8402710  98.3262039 108.5078968 106.7759928  83.2634152
 108.6481929 107.2732392  83.9662793 109.0061501 106.0746222  83.4048365
 108.6020049 106.7461906  83.3885731 108.5379190 107.6427039  80.5926729
 109.1724270 108.2387464  80.5276190 108.6204801 107.3430496  81.4072599
 108.6435741 107.6867947  80.7029815 110.1158173 103.5741014  80.5672171
 110.4374014 103.0944097  79.9131433 110.3785117 104.3840660  80.3762982
 110.2024198 103.6230912  80.4427663 115.5117328 102.9613208  92.9295650
 115.9372400 102.5085735  92.3179176 114.8974321 102.4073279  93.2060437
 115.4845973 102.8127184  92.8800675 105.0432178 109.8394879  83.8616275
 105.5524407 110.4359387  84.2427580 105.5166450 109.5720853  83.1792694
 105.1875554 109.8880695  83.8170797 113.9511551  99.4328308  86.3386227
 113.3079869  99.2825954  86.9071365 113.6110958  99.1870653  85.5735331
 113.8056628  99.3740430  86.3089242 118.5410897 107.3887735  85.7616235
 117.8702087 107.9317437  85.6329301 119.2350648 107.8582590  85.5197930
 118.5439765 107.5386006  85.7071763 118.7039025 103.8443618  88.6706609
 119.0566635 103.4173341  89.3452407 117.8453826 103.7594462  88.8007685
 118.6288469 103.7688359  88.7901619 107.4022710 106.4751138  86.7289455
 106.6834699 106.8915271  86.9962319 107.7735072 107.0405377  86.1781093
 107.3514642 106.6200419  86.6872262 113.1769284 105.5149138  82.0662835
 112.5834123 105.8366134  81.5147402 113.2144562 104.6690233  81.8583941
 113.0943673 105.4373466  81.9545606 120.1363085  98.9662030  89.5990921
 119.6293950  98.2591170  89.5312099 120.9330519  98.6355219  89.7291998
 120.1790324  98.8135182  89.6089916 116.0527101 105.4728642  85.4964585
 115.8240794 105.4961344  84.6542943 116.3125177 104.6486109  85.6159595
 116.0573289 105.3544722  85.3889782 109.1071863 104.0105189  86.7918780
 109.5829230 104.3722269  86.1568962 108.6060463 104.6661656  87.0718923
 109.1037222 104.1599377  86.7395521 102.0814108 108.6747556  93.0080537
 101.5340828 108.0048202  93.1261405 102.8706487 108.3077404  93.0724004
 102.1166292 108.5212543  93.0349237 111.1498516 106.1546389  80.1592164
 111.5297481 106.1726018  79.3743279 110.4091112 106.6000377  80.0383012
 111.0967354 106.2228163  80.0255733 118.7783807 104.4628580  85.7467743
 118.7778033 104.3077236  86.6052019 118.5739987 105.3091567  85.6909129
 118.7483585 104.5649200  85.8655683 100.8401078 107.8868364  90.1626560
 100.6622839 107.4344973  90.8881475 100.5520100 108.6894526  90.3465037
 100.7714031 107.9390922  90.2970063 116.5024659 109.1426082  89.4003950
 116.9978324 108.4249077  89.3607970 115.6924435 108.8396879  89.2858437
 116.4568552 108.9923728  89.3777676 111.9483271 112.9923895  81.5500954
 111.1394593 112.6690568  81.5034264 112.4558179 112.2857117  81.4829203
 111.9032937 112.8405211  81.5331249 102.5773548 110.4196088  87.2748319
 101.7119067 110.4081778  87.1631090 102.6772364 110.2326311  88.1219458
 102.4647715 110.3902149  87.3837263 112.0724572 100.3791504  95.3740331
 112.2052478  99.5822497  95.7021307 112.4569725 100.9057907  95.9538607
 112.1480901 100.3391421  95.5083834 115.1456927  97.3021830  91.9721424
 114.3402891  97.1919560  92.2889263 115.0163663  97.4034286  91.1151290
 115.0077060  97.3005500  91.8929465 118.6022888 103.4667322  92.5661121
 118.0185877 103.9676528  92.1538689 118.9227182 102.9596878  91.9325444
 118.5636063 103.4659157  92.4119628 111.1417687 102.3807917  82.8419796
 111.9633382 102.5506230  82.6001491 110.6787338 102.5355178  82.1186094
 111.1948849 102.4289650  82.6991440 109.7313019 100.3750679  93.6218225
 110.2757432 100.0341806  94.2122566 109.7849955 101.2336140  93.7639509
 109.8202138 100.4505938  93.7300098 105.5443578 114.1367095  90.4957033
 106.1488435 114.0962929  89.8670853 105.3370890 114.9838247  90.5261088
 105.6032475 114.2555097  90.4073149 100.7794860 113.1201713  90.3655956
 100.6819138 112.3097984  90.6746012 101.5623730 113.0993506  89.9802224
 100.8810997 112.9968803  90.3542819  42.2964564   0.9917236  72.1292355
  41.5447463   0.6132775  71.9008400  42.7450575   1.0235670  71.3811166
  42.2514231   0.9402844  71.9849857  51.2217141  -2.2758956  85.9715580
  51.9283908  -2.7706925  86.1002514  51.4105076  -1.8349874  85.2418238
  51.3545046  -2.2840606  85.8824625  47.7489524   1.4142606  67.5577902
  47.4140892   2.0919527  67.1222124  48.2616394   1.0247917  66.9694774
  47.7755105   1.4567184  67.4064694  47.2893815   3.3656875  73.4989014
  47.6733194   3.9343773  72.9593789  47.2252956   2.6406385  73.0194830
  47.3367242   3.3432338  73.3482876  50.7575245  -6.4853438  79.0086775
  51.3031205  -5.8068351  79.0680745  50.6992121  -6.6265977  78.1488357
  50.8291159  -6.4061436  78.8898836  43.8749320   1.0035629  74.3955128
  43.9759683   0.1935982  74.7052255  43.2791065   0.9092575  73.7654806
  43.8021859   0.8700657  74.3481366  52.5340314  -5.0568830  69.8820503
  52.4179840  -4.3061144  70.3112641  53.3296200  -5.3144877  70.1316590
  52.6344903  -4.9833984  69.9824595  43.7150060   5.9213218  75.7969984
  44.3587515   6.3626382  76.1866142  44.0406315   5.1166644  75.7100242
  43.8581888   5.8678412  75.8415461  37.0714364  -2.9744085  74.0207461
  36.8364549  -3.8076433  73.9139730  37.2100005  -2.6939419  73.2068662
  37.0570027  -3.0560581  73.8849816  44.4170639  -1.0674807  71.1689845
  44.7386480  -0.5269600  70.5651154  45.0642736  -1.6378036  71.3012135
  44.5596694  -1.0715632  71.0996881  39.0973585  -7.2606073  79.1635338
  38.9732282  -6.6743627  79.7985157  39.7491869  -7.7545877  79.4647613
  39.1747234  -7.2467268  79.3021267  46.6560283  -2.6788367  71.2404024
  47.0953918  -3.2871267  71.6858796  46.5064946  -3.0580994  70.4689489
  46.6981748  -2.8249896  71.1923191  44.1231926  -4.0844356  78.4422849
  44.7680928  -4.5771913  78.1233798  44.3633703  -3.9419569  79.2688927
  44.2542511  -4.1366913  78.5172382  46.6618017  -1.2389450  78.0929742
  46.9441260  -2.0338044  77.8716498  47.3904177  -0.7608862  78.1134803
  46.8107581  -1.2854853  78.0632757  50.2569619  -4.3261186  68.1934793
  50.1720914  -3.4700220  68.3384362  50.7454003  -4.6016862  68.8616952
  50.3158517  -4.2403865  68.3136874  56.6436105  -2.1330088  75.0665572
  55.8133809  -1.9219444  75.2298989  56.5945358  -2.9593033  74.7907856
  56.5142841  -2.2240481  75.0502938  43.0787660  -3.8113175  68.4939996
  42.4944876  -3.3063144  68.9005860  42.6757755  -4.0370788  67.7536588
  42.9326964  -3.7704927  68.4445021  38.6331689   1.9041586  75.2963668
  38.1499267   2.6292076  75.2723251  39.4455007   2.2017716  75.4073825
  38.6822437   2.0543940  75.3090947  44.7045843   0.6973767  77.9013482
  44.1872785   0.3381182  77.2974790  45.4020234   0.1735941  77.9119548
  44.7311424   0.5671455  77.8143741  48.3609435   1.1468581  83.8629655
  48.4492781   0.9594721  84.7107865  48.7899148   0.5006010  83.4634502
  48.4371537   1.0231588  83.9301407  45.9279895   0.4299741  82.8447317
  45.3650730   0.0172350  83.3686978  46.6900918   0.3552646  83.2640461
  45.9574343   0.3577141  82.9840318  47.5364875  -7.5647523  66.9708917
  47.7760878  -7.3569539  66.1584260  47.8580716  -8.3690014  67.0797861
  47.6202033  -7.6533422  66.8669470  41.4875886   2.4197762  75.4483947
  42.1896465   1.9049751  75.5056704  41.4073369   2.7471913  76.2530822
  41.5799647   2.3911988  75.5756740  42.5354793  -7.3426651  84.5764362
  42.7075296  -7.4520757  85.4249644  43.0724150  -6.6972246  84.3395555
  42.6399797  -7.2634650  84.6669459  40.8126662  -1.3895886  74.9569555
  41.6515561  -1.1572953  75.0043317  40.8438431  -2.2591575  74.8876591
  40.9408379  -1.4838940  74.9534200  41.4379365  -0.9695011  79.2582861
  41.9777590  -1.1123880  79.9286233  40.7549311  -0.5698260  79.6266887
  41.4171519  -0.9315340  79.4117283  50.8620250  -5.2904010  74.4527885
  51.6177765  -4.8572496  74.4916794  50.9682574  -5.9399241  75.0262521
  50.9890420  -5.3226527  74.5425911  53.9000421  -1.4630733  75.2030288
  53.4635653  -1.4593991  75.9589260  53.5663336  -0.7825234  74.7709866
  53.7863041  -1.3618277  75.2511121  48.4729494   0.5777600  86.5273439
  49.2569911   0.6908447  86.8929181  48.2726089  -0.2481263  86.7232124
  48.5595520   0.4724319  86.6107825  36.8416510  -4.7494720  79.4117282
  36.5754925  -5.5655604  79.5708273  36.8555074  -4.7041565  78.5412798
  36.8041232  -4.8637815  79.3070764  48.6299888   2.4887702  80.1739894
  47.8315133   2.2487202  80.4313763  49.0785899   2.5402095  80.9206942
  48.5774499   2.4610093  80.3224818  47.9221575  -1.4479682  66.4030849
  48.3372723  -1.7794658  65.7115345  47.0913504  -1.6810780  66.2750985
  47.8609583  -1.5308426  66.2821696  37.2509923  -3.9635941  76.6929027
  37.0685497  -3.9889055  75.8401319  37.9859592  -3.4937003  76.7317935
  37.3323987  -3.8974579  76.5726945  53.3209598  -3.7284431  73.8361914
  53.5565187  -3.5839232  73.0088765  53.4699161  -2.9642023  74.2293428
  53.3775401  -3.5945376  73.7725518  40.3155675  -7.2450938  83.2011135
  41.0395647  -7.2597907  83.6876030  40.4171812  -6.5355583  82.7033104
  40.4373884  -7.1426235  83.1989922  55.1500054  -4.8882765  71.6731518
  55.4808271  -4.3555125  71.0671613  55.7233142  -4.8343877  72.3293469
  55.2833733  -4.8013196  71.6809300  47.6900624  -3.7651853  88.0660082
  46.8973605  -3.4508341  88.2512702  47.8049552  -3.5500385  87.2280867
  47.5896035  -3.6868017  87.9698417  50.3631943  -7.0417862  72.3555098
  50.4578798  -6.3028568  72.8094724  49.7390787  -7.4700387  72.7889663
  50.2840974  -6.9956542  72.4863246  48.6184417  -3.8631650  83.0045379
  49.1923279  -4.5004405  83.1593943  48.5399221  -3.8627567  82.1355037
  48.6917652  -3.9566538  82.8991790  50.6154965  -5.1969122  65.5892050
  50.5335127  -5.1266935  66.4547037  51.2534685  -4.6339378  65.3975791
  50.6974802  -5.1030151  65.6882000  43.9748136  -5.4308384  75.0566577
  43.7167380  -6.2636650  75.0297876  44.0296619  -5.2050771  74.2159077
  43.9447914  -5.5210613  74.9286713  42.9482848  -7.8770622  75.5431471
  42.3732439  -7.7178454  76.1795432  42.5718524  -8.5135213  75.0799922
  42.8085660  -7.9472809  75.5686030  47.7195075  -5.1748668  68.6000657
  48.5335714  -4.8833775  68.4883428  47.6554216  -5.8288806  68.0258950
  47.8297814  -5.2283473  68.4989494  53.9404565  -2.4922672  83.0130232
  53.7043202  -3.3234607  82.8942293  54.5847794  -2.5437065  83.5985077
  53.9999236  -2.6224984  83.0816126  43.5902983  -1.7027151  73.7272969
  44.2276930  -1.9415403  74.2724762  44.0158055  -1.4989992  72.9926129
  43.7479149  -1.7076140  73.6990126  38.2815626   0.5361186  77.6107273
  38.3219771   0.8076037  76.7827052  38.8410150   1.0603094  78.0265060
  38.3698971   0.6536941  77.5499161  44.2305798  -6.4824861  68.0647858
  44.6150951  -6.7017154  68.8164403  43.9817419  -5.6561915  68.1948935
  44.2507871  -6.3926715  68.1948935  54.9640986  -2.7078223  79.0758527
  54.6586803  -1.9750166  79.4371842  54.2447201  -3.1140294  78.7951313
  54.8128328  -2.6596490  79.0871664  45.9724455  -1.2254728  75.4066755
  46.0463463  -1.3879556  76.2608605  46.7893961  -1.0364538  75.1627237
  46.1040814  -1.2217986  75.4964781  39.7330212  -0.8796865  72.4361199
  38.9068329  -0.6335128  72.3095477  39.7942203  -0.9584784  73.3023257
  39.6204379  -0.8551916  72.5450143  44.5129041   1.7380015  70.1380228
  44.8027339   1.3468996  69.4139455  45.2432522   1.9196720  70.5785504
  44.6635925   1.7073829  70.0963035  45.1023786  -3.4602239  81.2233359
  44.6035480  -2.7486471  81.3018247  45.9124010  -3.1401572  81.1851521
  45.1479893  -3.3075390  81.2289927  42.4534956   3.7147397  73.2040378
  42.2335252   3.4244752  73.9967045  42.2329478   3.0562352  72.6758290
  42.3882551   3.5747106  73.2429287  41.3651904  -4.1979286  75.4696080
  41.0765152  -4.8241815  76.0041807  42.2335252  -4.2558999  75.5360760
  41.4512156  -4.2991742  75.5587034  44.6202912   5.0876787  71.9871071
  45.2726970   4.5553230  72.2162097  43.9228521   4.7345440  72.3738945
  44.6133630   4.9566310  72.0783238  41.5684177  -2.5584035  71.3938445
  42.3230145  -2.1770996  71.6073907  40.9754790  -2.1072891  71.8485141
  41.5920891  -2.4355208  71.4921323  52.6142830  -2.5918799  71.3302050
  53.1800863  -1.9325589  71.2460593  51.9670734  -2.2469101  71.8018452
  52.6021587  -2.4436857  71.3874806  42.8882404  -1.3875474  76.7678560
  42.3663157  -1.2475182  77.4530425  43.2756424  -2.1464809  76.9580678
  42.8686105  -1.4789950  76.8979637  49.0849409   0.3519986  70.7539129
  48.8436085  -0.3812154  70.3466194  49.2650741   0.9006843  70.1005462
  49.0757033   0.3242377  70.5969352  44.3148729  -4.3571455  72.1660051
  44.1191512  -3.7496720  71.5720354  44.5383075  -5.0503511  71.6851725
  44.3183370  -4.3693929  72.0076132  42.7127259  -7.4716717  72.2840920
  43.4349911  -7.3075559  71.8244726  42.2335252  -6.7507052  72.1780259
  42.7490990  -7.3418487  72.2006534  40.3634876  -5.0658644  81.3895059
  40.8755973  -4.7874391  80.7403819  40.0771219  -4.3269350  81.7557873
  40.3969739  -4.9156291  81.3484938  54.5478291  -5.9284931  74.9498846
  54.4612265  -5.7729505  75.8033625  54.0928771  -5.2846856  74.5758251
  54.4681547  -5.8109176  75.0205953  52.3152156  -1.8990825  77.3611187
  52.1766515  -1.2009779  77.8659929  51.5352153  -2.0542168  77.0047369
  52.1795382  -1.8190658  77.3837461  50.6530241  -5.5994449  83.6133569
  50.6478279  -6.4714633  83.6175995  51.3591235  -5.4006280  83.1403024
  50.7575245  -5.6990575  83.5440604  44.3801134  -5.8717465  82.9847389
  44.5244510  -5.2916257  82.3490499  44.7276783  -5.4941169  83.6897244
  44.4528595  -5.7296761  82.9946384  46.5521051  -6.6727297  80.7672521
  45.8044365  -6.4796283  80.3620799  46.7062577  -7.4982078  80.5296642
  46.4643479  -6.7662186  80.6717926  43.4528889   2.3185306  79.8508416
  43.6018453   1.7588222  79.1981820  44.2328891   2.3977308  80.2340935
  43.5902983   2.2470872  79.8105365  53.8105528  -2.5412571  68.1227686
  53.4312337  -3.3275433  68.1156976  53.1471774  -1.9925714  67.9799331
  53.6564003  -2.5767747  68.1008483  45.9782190   2.4899949  81.1292907
  45.9025861   1.8208760  81.6843695  45.9072049   3.1917737  81.6433573
  45.9562797   2.4944857  81.2869755  46.6352437   1.0100948  71.9616513
  47.4002328   0.7410592  71.6399177  46.5330527   0.5250958  72.6786575
  46.7333932   0.8990513  72.0196340  49.1571097  -1.9586868  63.9416462
  49.9244082  -1.8986743  63.5322314  48.7102406  -2.5306427  63.4572780
  49.2044524  -2.0350292  63.8094172  50.0548893  -3.1532212  76.2269194
  49.3793894  -3.3846980  76.7282581  50.0641269  -3.7611029  75.6011299
  49.9567397  -3.2773287  76.2085346  47.1843037  -8.3114383  82.9833247
  47.1202178  -7.4504427  82.8553384  47.3240224  -8.6282390  82.1828798
  47.1958507  -8.2314217  82.8461460  52.0565627  -0.2967080  68.4579372
  52.1385465   0.5099906  68.1340823  52.5415369  -0.2771121  69.1820146
  52.1402785  -0.1746418  68.5166271  45.8662130  -5.6182244  77.1249450
  45.4424380  -5.4177745  76.3888468  45.6906986  -6.4653396  77.2373750
  45.7773011  -5.7133463  77.0323140  45.3673824   5.8968269  79.5870907
  45.8569754   5.1979058  79.4046572  44.7958056   5.5992139  80.1746965
  45.3558354   5.7494493  79.6471948  41.1544575  -5.1230193  72.5577423
  41.3109195  -5.1883390  73.4133415  41.4945169  -4.3481640  72.3456102
  41.2277810  -5.0180994  72.6532017  47.6923720  -5.7472309  71.4270786
  48.2339266  -6.2501928  71.8909406  48.0070279  -5.8007114  70.6160271
  47.8188117  -5.8292888  71.3754598  51.5640827  -1.5369662  88.5397698
  52.3775693  -1.8084513  88.7002831  51.4035794  -1.8362122  87.7357894
  51.6610776  -1.6214736  88.4443104  45.8610170  -0.3554957  68.7110814
  45.9302990  -1.2140419  68.8503814  46.6398625  -0.1383077  68.3829838
  45.9863020  -0.4502093  68.6827971  50.2517657   2.0682744  72.9247307
  49.8597449   1.7649459  72.2070173  50.4070730   2.9051834  72.7352261
  50.2171247   2.1466581  72.7903804  50.4157332  -1.3667267  72.8653338
  50.0571987  -1.1952624  73.6417370  49.9296043  -0.9054062  72.3081336
  50.2916029  -1.2728296  72.8978607  45.2045698  -5.6868102  65.4053572
  45.4938222  -4.9103219  65.6797146  45.2917496  -6.1979370  66.1068071
  45.2599954  -5.6476184  65.5496070  48.1005585  -7.8386868  87.2005096
  48.5705216  -7.2144751  87.5872970  48.1467465  -8.5069892  87.7598310
  48.1773461  -7.8452188  87.3405167  51.5762071  -0.4763371  83.8120539
  52.2141792  -0.9703176  83.4782995  50.9336163  -0.5485971  83.2272765
  51.5756298  -0.5604363  83.6762894  51.6316328   0.2156437  80.4525895
  52.4208706  -0.1354498  80.5727977  51.8059926   1.0292825  80.1902529
  51.7736610   0.2842294  80.4313763  41.3709638  -6.3734837  77.5053684
  40.5297645  -6.4730963  77.7132578  41.5799646  -5.6039357  77.8568005
  41.2774331  -6.2742794  77.5880999  45.1826303  -8.4453438  76.7551282
  44.8789441  -8.9997450  77.3561689  44.4805724  -8.2661228  76.2679316
  45.0342513  -8.5008656  76.7720987  43.2444654  -1.2303717  81.4623379
  43.1365009  -1.2201655  82.3285438  43.4540436  -0.4048937  81.2728333
  43.2594765  -1.1062643  81.5627471  41.2618446  -3.9791075  78.9245317
  40.6706380  -3.3381577  78.8948332  42.0239470  -3.5553458  78.8976617
  41.2866707  -3.8215237  78.9160464  57.3808868  -4.1485305  79.9222595
  57.4391992  -3.6998657  80.6682572  56.7475335  -3.7386493  79.4852675
  57.2960163  -4.0211571  79.9675144  51.0207963   1.4718237  76.3577342
  50.8227651   1.9609051  75.6633553  50.3995674   1.6759478  76.9361475
  50.8995527   1.5734775  76.3400565  45.0815941  -6.7596867  70.6987586
  45.8257986  -6.3722590  70.9370536  45.2276637  -7.6039441  70.8628074
  45.2126526  -6.8266394  70.7581556  52.9381765  -4.9617611  81.8922590
  53.6615963  -5.4145085  81.7133610  52.6731727  -4.6812945  81.1094918
  53.0063038  -4.9866643  81.7501305  38.5194308  -2.3056977  80.0679233
  37.9894233  -2.9964539  80.1174208  38.7919402  -2.3146792  79.2391942
  38.4819031  -2.4089846  79.9526649  49.5514399  -1.7231275  68.7916916
  50.2748598  -1.2573162  68.6481489  49.1114990  -1.6557666  68.0414513
  49.5930091  -1.6447438  68.6601697  48.7200554  -4.8633733  80.0417605
  48.1057547  -5.4075683  80.3366240  49.2367839  -5.3769496  79.5623421
  48.7056216  -5.0197324  80.0141833  47.9596851  -3.7929463  77.7761904
  47.5324459  -4.4179744  77.3427339  47.9521796  -4.0754541  78.6020911
  47.8955992  -3.9276682  77.8341731  41.0759378  -8.7564290  80.8450338
  41.2352865  -9.5120966  81.2502060  40.8952272  -8.2073350  81.4991075
  41.0724737  -8.7870476  81.0013044  44.7513496  -4.6229150  85.4730476
  43.9009127  -4.4857436  85.6088121  44.9141624  -5.3565372  85.9178178
  44.6497360  -4.7115049  85.5586076  43.9898246  -7.6729380  79.6684081
  43.1590176  -7.5055562  79.4619329  43.9349764  -8.0493429  80.4532966
  43.8587661  -7.7039649  79.7532609  42.3634290  -9.3973789  70.1974199
  42.5037251  -8.9001324  70.9002840  42.8616823 -10.0987494  70.3388412
  42.4575371  -9.4271810  70.3225778  42.3934513  -8.5306678  67.5266775
  43.0279592  -7.9346253  67.4616237  42.4760124  -8.8303220  68.3412646
  42.4991064  -8.4865770  67.6369862  47.2010468  -1.5773828  81.0211034
  46.6935559  -1.0237981  81.4651664  46.9037115  -1.5165538  80.2029808
  47.0815353  -1.4867517  80.9659490  38.8987501  -6.3338837  70.7956321
  39.4079730  -5.7374329  71.1767627  39.3721773  -6.6012863  70.1132741
  39.0430876  -6.2853021  70.7510844  49.8118249   2.3389430  68.9514977
  49.0947558   2.1650292  68.4862214  50.4624986   2.1042002  68.4190463
  49.8020099   2.2785222  68.8044195  46.4452954   3.3550730  77.9268040
  46.2218608   2.5969560  78.2952067  45.9562797   3.3848752  77.2048480
  46.3396403   3.2472955  77.8744781  41.2578032  -9.6982578  73.6629502
  40.5390021  -9.2818446  73.9302365  41.6290395  -9.1328340  73.1121140
  41.2069964  -9.5533297  73.6212309  48.5023943  -2.4767537  85.4779974
  48.4619798  -3.1217860  84.8925130  49.3147261  -2.5330920  85.7905386
  48.6167097  -2.5808571  85.4376923  45.0931411   3.5751188  75.3805125
  44.6791809   2.9125319  74.9908967  45.7778785   3.7229047  74.8600819
  45.1329782   3.4991847  75.2461622  48.4596705   2.7341274  76.1328742
  48.0612988   2.8443544  75.3649562  47.8447924   2.9423340  76.7155301
  48.3095594   2.7814842  76.1060041  44.1901652  -8.8470601  82.0329732
  43.6780555  -9.4549418  82.3914763  44.0181148  -8.1314008  82.5003708
  44.0891289  -8.8307302  82.1545955  56.1938547  -2.6906760  69.5171832
  56.5772153  -1.9415403  69.7469929  55.3982661  -2.4440940  69.2583821
  56.1332330  -2.5437066  69.5129406  45.7853839  -7.8378703  85.4383994
  46.5365166  -7.5227026  85.7523549  45.9776416  -8.0399532  84.6117916
  45.9245253  -7.8211321  85.3627390  45.8038593  -3.1809822  68.4841001
  44.9949916  -3.5043148  68.4374311  46.3113502  -3.8876600  68.4169250
  45.7588260  -3.3328505  68.4671296  36.4328870  -5.7537629  74.2088366
  35.5674390  -5.7651938  74.0971137  36.5327686  -5.9407406  75.0559505
  36.3203037  -5.7831567  74.3177310  52.4231800  -4.2803947  79.0221126
  52.8486872  -4.8029526  78.4691551  52.0588720  -3.6823110  78.5009749
  52.4318403  -4.2693720  78.8630135  42.0585880   4.0160270  77.7818471
  42.3732439   4.8296659  77.7896253  42.4679294   3.6310489  78.4500630
  42.1653978   4.0788973  77.8822563  49.0110400  -0.5669683  75.3522283
  49.4821578   0.1470579  75.5212268  49.3470578  -1.1670933  75.8882153
  49.1305515  -0.5498219  75.4554659  51.0987384   1.0431630  87.5314355
  51.2084350   0.2540191  87.8871102  51.4278281   0.9537566  86.7288693
  51.1639790   0.9137483  87.4656746  49.6484346  -0.7751749  82.1149976
  49.1005292  -1.3993865  81.8470041  50.1097375  -0.5857477  81.3994055
  49.6351556  -0.8392699  81.9700407  39.3998900  -2.0366621  77.4297079
  40.0043758  -2.0770787  76.8010900  39.1926213  -1.1895469  77.4601135
  39.4587798  -1.9178619  77.3413196  49.2142672   0.2299324  78.6459317
  50.0341046   0.0862290  78.9075612  48.9336750   0.8545523  79.1875755
  49.2939416   0.3009676  78.7647256  34.6350183  -3.0532004  77.2996003
  34.5374461  -3.8635732  77.6086059  35.4179052  -3.0740211  76.9142271
  34.7366319  -3.1764914  77.2882866  65.6856323   7.8864175  71.6102193
  65.6550327   8.7408812  71.7820463  66.2837672   7.5859468  72.1688337
  65.7693481   7.9680672  71.7176996  58.8856008   6.9739826  76.3655124
  58.0293903   7.1348325  76.4164240  58.9323661   6.1031890  76.3860185
  58.7655119   6.8690628  76.3761190  53.2697147  16.5102544  72.1292355
  52.5180047  16.1318083  71.9008400  53.7183159  16.5420978  71.3811166
  53.2246814  16.4588151  71.9849857  62.1949724  13.2426352  85.9715580
  62.9016491  12.7478383  86.1002514  62.3837660  13.6835434  85.2418238
  62.3277630  13.2344702  85.8824625  58.7222107  16.9327914  67.5577902
  58.3873476  17.6104835  67.1222124  59.2348978  16.5433225  66.9694774
  58.7487688  16.9752492  67.4064694  58.2626399  18.8842183  73.4989014
  58.6465778  19.4529081  72.9593789  58.1985540  18.1591693  73.0194830
  58.3099826  18.8617646  73.3482876  61.7307829   9.0331870  79.0086775
  62.2763789   9.7116957  79.0680745  61.6724705   8.8919331  78.1488357
  61.8023743   9.1123872  78.8898836  54.8481904  16.5220936  74.3955128
  54.9492266  15.7121290  74.7052255  54.2523649  16.4277883  73.7654806
  54.7754442  16.3885965  74.3481366  63.5072897  10.4616477  69.8820503
  63.3912423  11.2124164  70.3112641  64.3028784  10.2040431  70.1316590
  63.6077487  10.5351324  69.9824595  54.6882643  21.4398526  75.7969984
  55.3320099  21.8811690  76.1866142  55.0138899  20.6351952  75.7100242
  54.8314472  21.3863720  75.8415461  48.0446948  12.5441223  74.0207461
  47.8097132  11.7108875  73.9139730  48.1832589  12.8245889  73.2068662
  48.0302610  12.4624726  73.8849816  50.3437035   4.7126954  76.9191769
  49.7242067   4.1219601  76.7501784  50.2420899   5.3038389  76.2856092
  50.2374711   4.7131036  76.7996759  55.3903223  14.4510500  71.1689845
  55.7119064  14.9915708  70.5651154  56.0375319  13.8807272  71.3012135
  55.5329278  14.4469676  71.0996881  57.4404931   6.4526495  71.2524232
  58.1385096   6.6314623  71.7445695  57.7557263   5.9296835  70.6294622
  57.5900268   6.4020268  71.2326242  50.0706168   8.2579235  79.1635338
  49.9464865   8.8441681  79.7985157  50.7224453   7.7639431  79.4647613
  50.1479818   8.2718040  79.3021267  57.6292866  12.8396940  71.2404024
  58.0686502  12.2314041  71.6858796  57.4797529  12.4604314  70.4689489
  57.6714332  12.6935412  71.1923191  55.0964509  11.4340952  78.4422849
  55.7413512  10.9413395  78.1233798  55.3366286  11.5765739  79.2688927
  55.2275094  11.3818394  78.5172382  57.6350601  14.2795858  78.0929742
  57.9173844  13.4847264  77.8716498  58.3636761  14.7576446  78.1134803
  57.7840164  14.2330455  78.0632757  55.6131795   1.8218892  75.3345507
  55.2835125   2.2730036  74.6649206  54.9376796   1.7435055  75.8818513
  55.4642231   1.8770027  75.3168730  61.2302203  11.1924122  68.1934793
  61.1453498  12.0485088  68.3384362  61.7186586  10.9168446  68.8616952
  61.2891100  11.2781443  68.3136874  62.8208202  -2.1895585  73.5795117
  62.5061643  -1.4992106  74.0115540  62.3035144  -2.2450803  72.8780618
  62.6972673  -2.0960696  73.5392067  62.1620636   7.8108916  69.6932528
  61.6332108   8.0268549  70.3529834  62.6845656   8.5045054  69.6133497
  62.1609089   7.9452053  69.7788127  67.6168689  13.3855220  75.0665572
  66.7866392  13.5965864  75.2298989  67.5677941  12.5592275  74.7907856
  67.4875424  13.2944827  75.0502938  54.0520244  11.7072133  68.4939996
  53.4677459  12.2122164  68.9005860  53.6490339  11.4814520  67.7536588
  53.9059548  11.7480381  68.4445021  49.6064273  17.4226894  75.2963668
  49.1231851  18.1477383  75.2723251  50.4187591  17.7203024  75.4073825
  49.6555020  17.5729248  75.3090947  55.6778427  16.2159075  77.9013482
  55.1605368  15.8566490  77.2974790  56.3752818  15.6921249  77.9119548
  55.7044008  16.0856762  77.8143741  59.3342019  16.6653889  83.8629655
  59.4225364  16.4780029  84.7107865  59.7631731  16.0191318  83.4634502
  59.4104121  16.5416896  83.9301407  56.9012478  15.9485049  82.8447317
  56.3383313  15.5357658  83.3686978  57.6633502  15.8737954  83.2640461
  56.9306927  15.8762449  82.9840318  58.5097458   7.9537785  66.9708917
  58.7493462   8.1615769  66.1584260  58.8313299   7.1495293  67.0797861
  58.5934616   7.8651886  66.8669470  53.8187749  -0.1168820  70.8168455
  54.5733717   0.2509498  70.5785505  53.6415283   0.2570735  71.5847634
  53.9042227  -0.0070632  70.8953343  52.4608470  17.9383070  75.4483947
  53.1629049  17.4235059  75.5056704  52.3805953  18.2657221  76.2530822
  52.5532230  17.9097296  75.5756740  67.1122647   6.0325621  78.8615994
  66.2751068   6.1027808  79.0963588  67.0810878   6.0350116  77.9890296
  66.9840930   6.0435848  78.7675542  53.5087376   8.1758657  84.5764362
  53.6807880   8.0664551  85.4249644  54.0456734   8.8213062  84.3395555
  53.6132380   8.2550658  84.6669459  52.1744813   2.2901499  67.5146568
  51.9920386   2.5073380  66.6887560  53.0370426   2.4040512  67.5705182
  52.2749403   2.3391397  67.4001055  51.7859245  14.1289422  74.9569555
  52.6248145  14.3612355  75.0043317  51.8171014  13.2593733  74.8876591
  51.9140963  14.0346368  74.9534200  52.4111948  14.5490297  79.2582861
  52.9510173  14.4061428  79.9286233  51.7281894  14.9487048  79.6266887
  52.3904102  14.5869968  79.4117283  57.8544532  -0.7072090  70.5495591
  58.5830693  -0.8856135  70.1033748  57.9439425   0.1345990  70.7602769
  57.9751194  -0.6088211  70.5149109  61.8352833  10.2281298  74.4527885
  62.5910348  10.6612812  74.4916794  61.9415158   9.5786067  75.0262521
  61.9623004  10.1958781  74.5425911  64.8733004  14.0554575  75.2030288
  64.4368236  14.0591317  75.9589260  64.5395920  14.7360074  74.7709866
  64.7595624  14.1567031  75.2511121  59.4462078  16.0962908  86.5273439
  60.2302494  16.2093755  86.8929181  59.2458672  15.2704045  86.7232124
  59.5328103  15.9909627  86.6107825  47.8149093  10.7690588  79.4117282
  47.5487509   9.9529704  79.5708273  47.8287657  10.8143743  78.5412798
  47.7773816  10.6547492  79.3070764  64.7930487   1.0968403  77.4459716
  65.4356396   1.1666507  78.0321631  65.0453508   0.4297626  76.9439258
  64.9252619   1.0094751  77.4586995  51.7206840   5.5675672  66.0269041
  51.0065017   5.2813852  66.4391473  52.2050809   5.9072298  66.6675428
  51.6866204   5.5757322  66.1824675  52.5647700   4.3068966  82.0584290
  51.8719496   3.8365946  82.3045022  53.1808027   4.0807271  82.6325997
  52.5532230   4.2036098  82.1793443  59.6032471  18.0073010  80.1739894
  58.8047717  17.7672510  80.4313763  60.0518483  18.0587403  80.9206942
  59.5507082  17.9795401  80.3224818  68.0077350  10.7735495  74.0949926
  68.6693785  10.2126163  73.9945834  67.3668762  10.2787525  74.4202617
  68.0106218  10.6171904  74.1282266  58.8954158  14.0705626  66.4030849
  59.3105307  13.7390650  65.7115345  58.0646088  13.8374528  66.2750985
  58.8342167  13.9876882  66.2821696  48.2242507  11.5549367  76.6929027
  48.0418080  11.5296253  75.8401319  48.9592176  12.0248305  76.7317935
  48.3056571  11.6210729  76.5726945  64.2942181  11.7900877  73.8361914
  64.5297770  11.9346076  73.0088765  64.4431745  12.5543285  74.2293428
  64.3507984  11.9239931  73.7725518  51.2888259   8.2734370  83.2011135
  52.0128231   8.2587401  83.6876030  51.3904395   8.9829725  82.7033104
  51.4106468   8.3759073  83.1989922  66.1232638  10.6302543  71.6731518
  66.4540855  11.1630183  71.0671613  66.6965726  10.6841431  72.3293469
  66.2566317  10.7172112  71.6809300  58.6633208  11.7533455  88.0660082
  57.8706189  12.0676966  88.2512702  58.7782135  11.9684923  87.2280867
  58.5628619  11.8317291  87.9698417  61.3364527   8.4767446  72.3555098
  61.4311381   9.2156740  72.8094724  60.7123371   8.0484921  72.7889663
  61.2573557   8.5228766  72.4863246  59.5917001  11.6553658  83.0045379
  60.1655862  11.0180903  83.1593943  59.5131805  11.6557741  82.1355037
  59.6650236  11.5618770  82.8991790  48.1913417   8.4342868  76.8428093
  48.7686920   8.2979319  77.4820339  47.4927479   7.9778652  77.0973678
  48.1734439   8.3465134  76.9750383  61.5887548  10.3216186  65.5892050
  61.5067711  10.3918373  66.4547037  62.2267269  10.8845929  65.3975791
  61.6707386  10.4155157  65.6882000  54.9480719  10.0876923  75.0566577
  54.6899964   9.2548658  75.0297876  55.0029202  10.3134536  74.2159077
  54.9180497   9.9974695  74.9286713  60.0281770   2.1905374  75.1570669
  59.3238096   1.7014560  75.3154588  60.0766744   2.2027849  74.2859114
  59.9311821   2.1195022  75.0510009  53.9215432   7.6414686  75.5431471
  53.3465023   7.8006854  76.1795432  53.5451108   7.0050095  75.0799922
  53.7818244   7.5712499  75.5686030  57.5888720   6.1138035  80.4023850
  57.2003153   5.6892253  79.7476041  56.9243419   6.3620185  80.9100876
  57.4335648   6.0876756  80.3811718  67.2311989   5.8713040  73.1771680
  66.9748554   5.0592981  72.9869563  68.0741303   5.8790607  72.9501867
  67.3178015   5.7525037  73.1156497  43.6672250   7.2854761  73.5575912
  43.7532502   6.9086629  74.3389442  44.2948048   6.9115206  73.0795870
  43.7728801   7.1740243  73.6021389  61.4115082  -0.1887336  77.9147834
  61.7925594  -0.8709165  78.3015708  60.6078366  -0.4777734  77.7323498
  61.3491544  -0.3320288  77.9451890  58.6927659  10.3436640  68.6000657
  59.5068297  10.6351533  68.4883428  58.6286800   9.6896502  68.0258950
  58.8030398  10.2901835  68.4989494  64.9137149  13.0262636  83.0130232
  64.6775786  12.1950701  82.8942293  65.5580378  12.9748243  83.5985077
  64.9731819  12.8960324  83.0816126  54.5635567  13.8158157  73.7272969
  55.2009514  13.5769905  74.2724762  54.9890638  14.0195316  72.9926129
  54.7211733  13.8109167  73.6990126  49.2548209  16.0546494  77.6107273
  49.2952354  16.3261345  76.7827052  49.8142733  16.5788402  78.0265060
  49.3431555  16.1722249  77.5499161  55.2038382   9.0360447  68.0647858
  55.5883535   8.8168154  68.8164403  54.9550002   9.8623392  68.1948935
  55.2240454   9.1258593  68.1948935  55.3706922   2.3166862  87.7810442
  55.0560363   3.0866425  87.5180005  55.0496855   1.7537118  87.1962669
  55.2765841   2.3477131  87.6551792  65.9373569  12.8107085  79.0758527
  65.6319386  13.5435142  79.4371842  65.2179785  12.4045014  78.7951313
  65.7860912  12.8588818  79.0871664  56.9457039  14.2930580  75.4066755
  57.0196047  14.1305752  76.2608605  57.7626545  14.4820769  75.1627237
  57.0773397  14.2967322  75.4964781  71.6375361   9.4500085  78.4026871
  71.5699862   9.4696045  77.5329458  71.6231024  10.2930413  78.6282542
  71.6254118   9.5773820  78.3079348  50.7062795  14.6388443  72.4361199
  49.8800913  14.8850180  72.3095477  50.7674787  14.5600524  73.3023257
  50.5936962  14.6633392  72.5450143  52.9238819   0.7057384  73.3956639
  52.0561245   0.7779983  73.4614248  53.2114023   1.5079463  73.5844614
  52.8378567   0.8351531  73.4331405  62.0471708   0.8535243  81.7267961
  62.7925300   0.6645053  81.3131386  61.6309013   1.3793481  81.1681817
  62.0956682   0.9037388  81.5832534  55.4861624  17.2565323  70.1380228
  55.7759923  16.8654304  69.4139455  56.2165105  17.4382028  70.5785504
  55.6368509  17.2259137  70.0963035  69.4233979   8.2244472  76.6773465
  69.9741900   7.5912541  76.9170558  69.4078094   8.7559864  77.3688970
  69.5019175   8.2093420  76.8152324  56.0756370  12.0583069  81.2233359
  55.5768063  12.7698837  81.3018247  56.8856594  12.3783735  81.1851521
  56.1212476  12.2109917  81.2289927  53.4267540  19.2332705  73.2040378
  53.2067835  18.9430060  73.9967045  53.2062062  18.5747660  72.6758290
  53.3615134  19.0932414  73.2429287  52.3384487  11.3206022  75.4696080
  52.0497736  10.6943493  76.0041807  53.2067835  11.2626309  75.5360760
  52.4244739  11.2193566  75.5587034  63.1262385   6.4640805  75.7878062
  62.7827151   5.7431140  76.1385311  63.2255428   6.2554656  74.9456420
  63.0904428   6.3265009  75.7149742  55.5935496  20.6062095  71.9871071
  56.2459554  20.0738538  72.2162097  54.8961104  20.2530748  72.3738945
  55.5866214  20.4751618  72.0783238  52.5416761  12.9601273  71.3938445
  53.2962729  13.3414312  71.6073907  51.9487373  13.4112417  71.8485141
  52.5653474  13.0830100  71.4921323  63.5875414  12.9266509  71.3302050
  64.1533447  13.5859719  71.2460593  62.9403318  13.2716207  71.8018452
  63.5754171  13.0748451  71.3874806  55.0023428   4.9164113  86.5195657
  54.1923203   5.2221893  86.4085499  55.4798114   5.6369696  86.6348241
  54.9526906   5.0678714  86.5202728  53.8614987  14.1309834  76.7678560
  53.3395741  14.2710126  77.4530425  54.2489007  13.3720499  76.9580678
  53.8418688  14.0395358  76.8979637  50.8506171   4.1815643  70.8373515
  50.5630967   3.8116913  70.1005462  51.5376639   4.6510498  70.5757220
  50.9095069   4.1962612  70.6888591  60.0581992  15.8705294  70.7539129
  59.8168668  15.1373154  70.3466194  60.2383325  16.4192150  70.1005462
  60.0489616  15.8427685  70.5969352  55.2881313  11.1613853  72.1660051
  55.0924095  11.7688588  71.5720354  55.5115658  10.4681797  71.6851725
  55.2915954  11.1491379  72.0076132  53.6859843   8.0468591  72.2840920
  54.4082495   8.2109749  71.8244726  53.2067836   8.7678256  72.1780259
  53.7223573   8.1766821  72.2006534  61.6453350   4.3832390  77.6637605
  60.8064451   4.4093669  77.4275868  61.7157718   5.0303125  78.2442951
  61.5321744   4.4828516  77.7146721  51.3367460  10.4526664  81.3895059
  51.8488556  10.7310917  80.7403819  51.0503802  11.1915958  81.7557873
  51.3702323  10.6029017  81.3484938  60.0922629   1.2817767  72.3965221
  60.7948981   1.0825515  71.9185179  59.8266817   0.5093709  72.7034064
  60.1569261   1.1380733  72.3710662  65.5210874   9.5900377  74.9498846
  65.4344849   9.7455803  75.8033625  65.0661354  10.2338452  74.5758251
  65.4414131   9.7076132  75.0205953  48.4234366   4.9596855  71.6858796
  48.5250502   5.7623017  72.0139771  49.2190253   4.7584191  71.3881877
  48.5562271   5.0482754  71.6894151  54.8551185   2.5453052  81.4496101
  54.6634382   2.5608187  82.2995525  55.7049781   2.7416727  81.4262756
  54.9526907   2.5767403  81.5719396  49.2398098   5.0744034  79.4279918
  49.0983590   4.2227974  79.5524426  49.5238661   5.1172694  78.6042124
  49.2605944   4.9543784  79.3247542  59.3936690   6.9111124  73.5724406
  59.1471405   6.8306875  74.4061195  59.7221813   6.1264592  73.3786933
  59.4057934   6.7837389  73.6671929  63.2884739  13.6194483  77.3611187
  63.1499098  14.3175529  77.8659929  62.5084737  13.4643140  77.0047369
  63.1527966  13.6994650  77.3837461  61.6262824   9.9190859  83.6133569
  61.6210863   9.0470675  83.6175995  62.3323818  10.1179028  83.1403024
  61.7307828   9.8194733  83.5440604  55.3533718   9.6467842  82.9847389
  55.4977093  10.2269051  82.3490499  55.7009366  10.0244139  83.6897244
  55.4261179   9.7888547  82.9946384  57.5253635   8.8458011  80.7672521
  56.7776949   9.0389025  80.3620799  57.6795160   8.0203230  80.5296642
  57.4376063   8.7523122  80.6717926  54.4261473  17.8370614  79.8508416
  54.5751036  17.2773530  79.1981820  55.2061475  17.9162616  80.2340935
  54.5635566  17.7656180  79.8105365  64.7838112  12.9772737  68.1227686
  64.4044921  12.1909875  68.1156976  64.1204357  13.5259594  67.9799331
  64.6296587  12.9417561  68.1008483  56.9514773  18.0085257  81.1292907
  56.8758444  17.3394068  81.6843695  56.8804632  18.7103045  81.6433573
  56.9295380  18.0130165  81.2869755  57.7655412   2.7408562  81.6567924
  58.2228026   3.4732536  81.7840716  57.8411741   2.3175027  82.4155180
  57.8446382   2.7865800  81.7869001  50.0088403   2.9874381  82.7457368
  49.4730593   2.3754739  83.0618135  50.0706168   3.5622517  83.3991035
  49.9384036   2.9821309  82.8892795  57.6085020  16.5286256  71.9616513
  58.3734911  16.2595900  71.6399177  57.5063110  16.0436266  72.6786575
  57.7066516  16.4175821  72.0196340  55.6437790   4.7310665  78.5009748
  54.8533865   4.5502126  78.8227084  56.0398413   3.9537618  78.4840043
  55.5854666   4.5898126  78.5462297  60.1303681  13.5598440  63.9416462
  60.8976666  13.6198565  63.5322314  59.6834990  12.9878881  63.4572780
  60.1777108  13.4835016  63.8094172  61.0281476  12.3653096  76.2269194
  60.3526478  12.1338328  76.7282581  61.0373852  11.7574279  75.6011299
  60.9299981  12.2412021  76.2085346  58.1575620   7.2070925  82.9833247
  58.0934761   8.0680881  82.8553384  58.2972808   6.8902918  82.1828798
  58.1691090   7.2871091  82.8461460  63.0298211  15.2218228  68.4579372
  63.1118048  16.0285214  68.1340823  63.5147953  15.2414187  69.1820146
  63.1135369  15.3438890  68.5166271  56.8394714   9.9003064  77.1249450
  56.4156963  10.1007563  76.3888468  56.6639569   9.0531912  77.2373750
  56.7505595   9.8051845  77.0323140  56.3406408  21.4153577  79.5870907
  56.8302338  20.7164366  79.4046572  55.7690640  21.1177447  80.1746965
  56.3290937  21.2679801  79.6471948  52.1277159  10.3955115  72.5577423
  52.2841778  10.3301918  73.4133415  52.4677752  11.1703668  72.3456102
  52.2010394  10.5004314  72.6532017  58.6656304   9.7712999  71.4270786
  59.2071849   9.2683380  71.8909406  58.9802863   9.7178194  70.6160271
  58.7920701   9.6892420  71.3754598  62.5373411  13.9815646  88.5397698
  63.3508276  13.7100795  88.7002831  62.3768377  13.6823186  87.7357894
  62.6343360  13.8970572  88.4443104  56.8342753  15.1630351  68.7110814
  56.9035574  14.3044889  68.8503814  57.6131208  15.3802231  68.3829838
  56.9595603  15.0683214  68.6827971  59.8145573   4.6649303  81.4793086
  60.0287543   4.0260218  80.9256440  59.1979472   5.1095127  81.0500948
  59.7550902   4.6359447  81.3343517  61.2250241  17.5868052  72.9247307
  60.8330033  17.2834767  72.2070173  61.3803313  18.4237142  72.7352261
  61.1903831  17.6651889  72.7903804  48.7011421   7.5790066  72.8738190
  49.0810385   7.9974611  72.2098457  48.1266785   8.1603522  73.1807033
  48.6722745   7.7267925  72.8214931  61.9784661   6.2738369  82.4176393
  61.1661343   5.9664259  82.4989566  62.4374596   5.7937369  82.9819106
  61.9265046   6.1574861  82.5130988  61.3889916  14.1518041  72.8653338
  61.0304570  14.3232684  73.6417370  60.9028626  14.6131246  72.3081336
  61.2648613  14.2457012  72.8978607  59.2060302  -2.2250761  76.4680429
  58.3353860  -2.2512040  76.4213739  59.4600643  -2.3973569  75.6506275
  59.1153862  -2.2540617  76.3400566  56.1778281   9.8317206  65.4053572
  56.4670806  10.6082089  65.6797146  56.2650080   9.3205937  66.1068071
  56.2332537   9.8709124  65.5496070  59.0738169   7.6798440  87.2005096
  59.5437800   8.3040556  87.5872970  59.1200049   7.0115416  87.7598310
  59.1506044   7.6733120  87.3405167  56.2309442  -0.2144532  77.9253899
  55.7147931  -0.9064341  78.0505478  55.6703371   0.4526245  77.8716498
  56.0715955  -0.2181275  77.9359965  58.3001676   0.3248428  79.7546752
  57.9133429   0.3497459  80.5360282  57.8134613  -0.2409894  79.3021269
  58.1714185   0.2444178  79.8034656  62.5494655  15.0421937  83.8120539
  63.1874376  14.5482132  83.4782995  61.9068747  14.9699337  83.2272765
  62.5488882  14.9580945  83.6762894  64.2751655   6.8911083  78.3786454
  63.8479263   6.8037431  77.6234554  63.6377708   6.9988858  78.9641298
  64.1181262   6.8943742  78.3531896  57.9658817  -2.7884587  82.0457012
  58.5951935  -2.2524287  81.7678082  58.1344680  -2.8807228  82.8970578
  58.0836612  -2.7223225  82.1305540  57.7672732   1.9986608  84.3183424
  58.5946162   1.7271757  84.3742038  57.7880578   2.7947449  84.6747242
  57.8925582   2.0766362  84.3798606  62.6048912  15.7341745  80.4525895
  63.3941290  15.3830810  80.5727977  62.7792509  16.5478133  80.1902529
  62.7469193  15.8027602  80.4313763  52.3442222   9.1450471  77.5053684
  51.5030229   9.0454345  77.7132578  52.5532230   9.9145951  77.8568005
  52.2506915   9.2442514  77.5880999  49.8217789   6.7670008  75.3338435
  49.4274487   6.8413019  74.5588544  49.2657906   7.1527954  75.8846797
  49.6820601   6.8351782  75.3006095  61.4582736  -0.2548698  75.0142314
  61.6632329  -0.3226391  75.8599311  61.1309160   0.5510123  74.9463491
  61.4397984  -0.1462758  75.1301969  56.1558887   7.0731870  76.7551282
  55.8522024   6.5187858  77.3561689  55.4538308   7.2524080  76.2679316
  56.0075097   7.0176652  76.7720987  55.2124984   4.3832390  71.3195984
  55.4884718   3.6651302  70.9073551  55.8123653   4.9817310  71.1117090
  55.3418249   4.3652760  71.2276745  54.2177238  14.2881590  81.4623379
  54.1097593  14.2983653  82.3285438  54.4273019  15.1136371  81.2728333
  54.2327349  14.4122665  81.5627471  64.7116424   0.2983066  74.4945079
  64.0990737   0.7853468  74.8798811  64.8080598  -0.3773443  75.0382730
  64.6354321   0.2701375  74.6323937  58.7135505   2.0545907  69.5942579
  59.1679251   2.2256467  70.3190423  59.1875550   1.4414018  69.1940354
  58.8503825   1.9896792  69.6416340  52.2351030  11.5394233  78.9245317
  51.6438963  12.1803731  78.8948332  52.9972053  11.9631850  78.8976617
  52.2599291  11.6970071  78.9160464  52.6311653   2.6996231  79.5913335
  53.0913134   2.7735160  80.3288458  52.6767759   3.4977485  79.2413156
  52.7062208   2.8290378  79.6486091  54.2795002   3.3662926  84.1585362
  53.8880568   2.7196273  84.5941140  54.4480865   3.9574361  84.7779617
  54.2465913   3.3577193  84.3148068  68.3541451  11.3700003  79.9222595
  68.4124575  11.8186651  80.6682572  67.7207919  11.7798815  79.4852675
  68.2692747  11.4973737  79.9675144  61.9940546  16.9903544  76.3577342
  61.7960235  17.4794359  75.6633553  61.3728257  17.1944786  76.9361475
  61.8728111  17.0920083  76.3400565  56.0548525   8.7588441  70.6987586
  56.7990569   9.1462718  70.9370536  56.2009221   7.9145867  70.8628074
  56.1859110   8.6918914  70.7581556  57.9728100   0.5538700  75.7319447
  57.1264145   0.7261508  75.6060797  57.9699232  -0.2511956  76.0685276
  57.8475250   0.4599729  75.7630574  59.0426400   4.3313915  76.5981505
  58.5686355   3.8055677  77.1086816  59.4144536   3.7843387  76.0296367
  59.0276289   4.1729911  76.5896652  49.4199431   6.3285421  81.9665051
  50.2825044   6.2281131  81.8802381  49.0891214   5.7480131  81.4050623
  49.4984627   6.2277048  81.8710457  65.3063131   9.3916290  78.0088286
  65.0661354   8.5522705  78.0130712  65.7855138   9.4716457  78.7329059
  65.3415315   9.2797690  78.1163088  60.9709900   5.2250469  69.6607259
  60.4432919   5.3079213  68.9712968  61.4305608   5.9668341  69.6571904
  60.9611750   5.3471132  69.5581954  67.3068318   6.1717747  75.9617545
  67.0678088   6.1313582  75.1238329  67.4702219   7.0188900  76.0883266
  67.2958621   6.2909833  75.8571027  63.9114348  10.5567697  81.8922590
  64.6348547  10.1040223  81.7133610  63.6464310  10.8372362  81.1094918
  63.9795621  10.5318665  81.7501305  52.7801216   5.1527870  78.6275469
  52.1554287   5.1646262  78.0201422  52.4446811   5.6288045  79.2766709
  52.6386708   5.2246387  78.6332038  52.9642965   3.4952989  64.6848154
  52.6155770   4.1472714  65.1479703  52.4839411   3.4810102  63.9572025
  52.8413209   3.5896042  64.6459245  49.4926892  13.2128330  80.0679233
  48.9626817  12.5220769  80.1174208  49.7651985  13.2038516  79.2391942
  49.4551614  13.1095462  79.9526649  60.5246983  13.7954033  68.7916916
  61.2481181  14.2612146  68.6481489  60.0847574  13.8627642  68.0414513
  60.5662675  13.8737869  68.6601697  59.6933138  10.6551575  80.0417605
  59.0790131  10.1109625  80.3366240  60.2100423  10.1415812  79.5623421
  59.6788800  10.4987984  80.0141833  58.9329435  11.7255845  77.7761904
  58.5057043  11.1005564  77.3427339  58.9254379  11.4430767  78.6020911
  58.8688576  11.5908626  77.8341731  52.0491962   6.7621018  80.8450338
  52.2085449   6.0064342  81.2502060  51.8684855   7.3111958  81.4991075
  52.0457321   6.7314832  81.0013044  59.9912265  -1.0717746  81.4001127
  59.4952826  -0.8754072  80.7092694  60.7481327  -0.6725078  81.2289929
  60.0299090  -0.9840012  81.2721264  57.2615144   2.6024600  77.9904438
  57.2857632   2.0684712  77.3017218  57.5126618   2.0941908  78.6530028
  57.3025063   2.4485504  77.9869082  44.7722734   9.8856095  77.4247582
  44.6666183   9.8402939  76.5599666  44.0222954  10.2309875  77.7061867
  44.6458337   9.9297003  77.3384911  53.5416467   1.3295418  77.3710182
  53.5814838   1.8304624  78.0844889  52.7166131   1.4205812  77.1016105
  53.4255993   1.4177234  77.4360720  55.7246080  10.8956158  85.4730476
  54.8741710  11.0327872  85.6088121  55.8874207  10.1619936  85.9178178
  55.6229943  10.8070259  85.5586076  54.9630830   7.8455928  79.6684081
  54.1322760   8.0129746  79.4619329  54.9082347   7.4691878  80.4532966
  54.8320245   7.8145659  79.7532609  52.7714613   1.3364821  85.3040492
  53.3967317   0.7926953  85.5769924  52.3165093   0.8559738  84.7348282
  52.7962874   1.1854302  85.2602085  53.3366874   6.1211519  70.1974199
  53.4769835   6.6183983  70.9002840  53.8349407   5.4197814  70.3388412
  53.4307955   6.0913498  70.3225778  53.3667096   6.9878630  67.5266775
  54.0012176   7.5839055  67.4616237  53.4492707   6.6882088  68.3412646
  53.4723647   7.0319538  67.6369862  66.3449662   9.5194108  80.3953140
  66.9367502  10.1591358  80.4271338  66.7808657   8.8217144  80.6845206
  66.4968093   9.5112458  80.4433972  54.9446079   2.9192606  67.5012217
  55.2661920   2.4395688  66.8471480  55.2073023   3.7292252  67.3103029
  55.0312105   2.9682504  67.3767710  58.1743052  13.9411480  81.0211034
  57.6668143  14.4947327  81.4651664  57.8769698  14.0019770  80.2029808
  58.0547937  14.0317791  80.9659490  60.3405234   2.3064800  79.8635697
  60.7660306   1.8537326  79.2519223  59.7262227   1.7524870  80.1400484
  60.3133880   2.1578776  79.8140722  49.8720084   9.1846471  70.7956321
  50.3812314   9.7810979  71.1767627  50.3454356   8.9172445  70.1132741
  50.0163460   9.2332286  70.7510844  60.7850832  17.8574738  68.9514977
  60.0680142  17.6835600  68.4862214  61.4357570  17.6227310  68.4190463
  60.7752683  17.7970530  68.8044195  58.7799457  -1.2220101  73.2726274
  58.1367775  -1.3722454  73.8411412  58.4398864  -1.4677755  72.5075378
  58.6344534  -1.2807978  73.2429289  63.3698803   6.7339326  72.6956282
  62.6989993   7.2769028  72.5669348  64.0638554   7.2034182  72.4537977
  63.3727671   6.8837597  72.6411810  57.4185537  18.8736038  77.9268040
  57.1951192  18.1154868  78.2952067  56.9295380  18.9034059  77.2048480
  57.3128986  18.7658263  77.8744781  63.5326931   3.1895210  75.6046655
  63.8854541   2.7624933  76.2792454  62.6741732   3.1046053  75.7347732
  63.4576376   3.1139951  75.7241666  52.2310616   5.8202730  73.6629502
  51.5122605   6.2366862  73.9302365  52.6022978   6.3856968  73.1121140
  52.1802548   5.9652011  73.6212309  61.5310197   6.4530578  79.5531498
  61.5108124   6.2713874  80.4066276  61.5789397   7.3242597  79.5291081
  61.5344838   6.5547117  79.6754792  59.4756527  13.0417770  85.4779974
  59.4352381  12.3967447  84.8925130  60.2879845  12.9854388  85.7905386
  59.5899680  12.9376737  85.4376923  56.0663994  19.0936496  75.3805125
  55.6524393  18.4310627  74.9908967  56.7511368  19.2414355  74.8600819
  56.1062366  19.0177155  75.2461622  59.4329288  18.2526582  76.1328742
  59.0345571  18.3628852  75.3649562  58.8180508  18.4608648  76.7155301
  59.2828178  18.3000150  76.1060041  58.0057190   4.8600729  69.0002881
  57.4122030   5.1817726  68.4487448  58.0432468   4.0141825  68.7923987
  57.9231579   4.7825058  68.8885653  64.9650991  -1.6886378  76.5330968
  64.4581856  -2.3957239  76.4652145  65.7618425  -2.0193189  76.6632044
  65.0078230  -1.8413227  76.5429963  60.8815007   4.8180234  72.4304632
  60.6528700   4.8412935  71.5882990  61.1413083   3.9937701  72.5499642
  60.8861195   4.6996314  72.3229829  55.1634235   6.6714707  82.0329732
  54.6513138   6.0635890  82.3914763  54.9913731   7.3871300  82.5003708
  55.0623872   6.6878006  82.1545955  50.0099950   5.1152282  84.6832094
  49.8402540   5.7753657  84.1380300  49.5665900   5.3258844  85.4044583
  49.9199284   5.2438264  84.7093723  53.9359769   3.3556780  73.7258827
  54.4117136   3.7173860  73.0909008  53.4348369   4.0113248  74.0058970
  53.9325128   3.5050969  73.6735568  67.1671131  12.8278548  69.5171832
  67.5504737  13.5769904  69.7469929  66.3715244  13.0744368  69.2583821
  67.1064913  12.9748242  69.5129406  59.0403306   4.5938952  84.4731987
  59.5974736   4.3652761  83.8410453  58.7164371   5.3544617  84.1967200
  59.0749716   4.6722788  84.3388484  46.9102014   8.0199148  79.9420583
  46.3628734   7.3499793  80.0601452  47.6994393   7.6528996  80.0064051
  46.9454198   7.8664134  79.9689284  56.7586423   7.6806605  85.4383994
  57.5097750   7.9958282  85.7523549  56.9508999   7.4785776  84.6117916
  56.8977837   7.6973987  85.3627390  55.9786422   5.4997980  67.0932211
  56.3585387   5.5177609  66.3083326  55.2379019   5.9451969  66.9723059
  55.9255260   5.5679755  66.9595779  63.6071713   3.8080171  72.6807790
  63.6065939   3.6528828  73.5392066  63.4027893   4.6543158  72.6249176
  63.5771491   3.9100792  72.7995729  45.6688984   7.2319956  77.0966606
  45.4910745   6.7796565  77.8221522  45.3808006   8.0346117  77.2805084
  45.6001937   7.2842513  77.2310109  61.3312565   8.4877673  76.3343997
  61.8266230   7.7700668  76.2948017  60.5212341   8.1848471  76.2198484
  61.2856458   8.3375319  76.3117723  56.7771177  12.3375486  68.4841001
  55.9682499  12.0142160  68.4374311  57.2846085  11.6308708  68.4169250
  56.7320843  12.1856803  68.4671296  47.4061454   9.7647679  74.2088366
  46.5406973   9.7533370  74.0971137  47.5060270   9.5777902  75.0559505
  47.2935621   9.7353741  74.3177310  63.3964384  11.2381361  79.0221126
  63.8219455  10.7155782  78.4691551  63.0321304  11.8362198  78.5009749
  63.4050987  11.2491588  78.8630135  53.0318464  19.5345578  77.7818471
  53.3465023  20.3481966  77.7896253  53.4411877  19.1495797  78.4500630
  53.1386562  19.5974280  77.8822563  59.9842983  14.9515625  75.3522283
  60.4554162  15.6655887  75.5212268  60.3203162  14.3514375  75.8882153
  60.1038098  14.9687089  75.4554659  62.0719968  16.5616938  87.5314355
  62.1816933  15.7725499  87.8871102  62.4010865  16.4722874  86.7288693
  62.1372374  16.4322791  87.4656746  56.9012478  -0.2756905  82.3080378
  57.0340384  -1.0725911  82.6361353  57.2857631   0.2509498  82.8878653
  56.9768807  -0.3156988  82.4423881  60.6216930  14.7433559  82.1149976
  60.0737876  14.1191443  81.8470041  61.0829958  14.9327831  81.3994055
  60.6084139  14.6792609  81.9700407  59.9744834  -3.3526578  78.9061471
  59.1690797  -3.4628849  79.2229309  59.8451569  -3.2514123  78.0491337
  59.8364966  -3.3542908  78.8269511  63.4310794   2.8118913  79.5001168
  62.8473783   3.3128120  79.0878735  63.7515088   2.3048470  78.8665491
  63.3923969   2.8110748  79.3459675  55.9705593   1.7259508  69.7759843
  56.7921288   1.8957821  69.5341538  55.5075244   1.8806769  69.0526140
  56.0236755   1.7741241  69.6331487  54.5600925  -0.2797730  80.5558272
  55.1045338  -0.6206603  81.1462613  54.6137861   0.5787732  80.6979556
  54.6490045  -0.2042470  80.6640145  50.3731484  13.4818686  77.4297079
  50.9776341  13.4414521  76.8010900  50.1658796  14.3289839  77.4601135
  50.4320381  13.6006689  77.3413196  60.1875256  15.7484632  78.6459317
  61.0073630  15.6047598  78.9075612  59.9069334  16.3730831  79.1875755
  60.2671999  15.8194984  78.7647256  45.6082766  12.4653304  77.2996003
  45.5107044  11.6549576  77.6086059  46.3911636  12.4445097  76.9142271
  45.7098903  12.3420394  77.2882866  69.8588591  22.4925134  76.3655124
  69.0026487  22.6533633  76.4164240  69.9056245  21.6217198  76.3860185
  69.7387703  22.3875936  76.3761190  73.1682308  28.7611660  85.9715580
  73.8749075  28.2663691  86.1002514  73.3570243  29.2020741  85.2418238
  73.3010213  28.7530010  85.8824625  59.0179531  28.0626531  74.0207461
  58.7829716  27.2294183  73.9139730  59.1565172  28.3431197  73.2068662
  59.0035194  27.9810034  73.8849816  61.3169619  20.2312262  76.9191769
  60.6974650  19.6404909  76.7501784  61.2153482  20.8223697  76.2856092
  61.2107294  20.2316344  76.7996759  68.4137514  21.9711803  71.2524232
  69.1117679  22.1499931  71.7445695  68.7289847  21.4482143  70.6294622
  68.5632852  21.9205575  71.2326242  61.0438752  23.7764543  79.1635338
  60.9197449  24.3626989  79.7985157  61.6957036  23.2824739  79.4647613
  61.1212401  23.7903348  79.3021267  68.6025450  28.3582248  71.2404024
  69.0419085  27.7499349  71.6858796  68.4530113  27.9789622  70.4689489
  68.6446916  28.2120720  71.1923191  66.0697093  26.9526260  78.4422849
  66.7146095  26.4598703  78.1233798  66.3098870  27.0951047  79.2688927
  66.2007678  26.9003702  78.5172382  66.5864378  17.3404200  75.3345507
  66.2567708  17.7915344  74.6649206  65.9109380  17.2620363  75.8818513
  66.4374814  17.3955335  75.3168730  73.7940786  13.3289723  73.5795117
  73.4794227  14.0193202  74.0115540  73.2767728  13.2734505  72.8780618
  73.6705256  13.4224611  73.5392067  65.0252827  27.2257441  68.4939996
  64.4410043  27.7307472  68.9005860  64.6222923  26.9999828  67.7536588
  64.8792131  27.2665689  68.4445021  69.4830042  23.4723093  66.9708917
  69.7226046  23.6801076  66.1584260  69.8045883  22.6680601  67.0797861
  69.5667200  23.3837194  66.8669470  64.7920332  15.4016488  70.8168455
  65.5466300  15.7694806  70.5785505  64.6147867  15.7756043  71.5847634
  64.8774811  15.5114676  70.8953343  64.4819960  23.6943965  84.5764362
  64.6540464  23.5849859  85.4249644  65.0189317  24.3398370  84.3395555
  64.5864964  23.7735966  84.6669459  63.1477397  17.8086807  67.5146568
  62.9652970  18.0258688  66.6887560  64.0103010  17.9225820  67.5705182
  63.2481986  17.8576705  67.4001055  63.3844532  30.0675605  79.2582861
  63.9242757  29.9246736  79.9286233  62.7014478  30.4672356  79.6266887
  63.3636686  30.1055276  79.4117283  68.8277116  14.8113218  70.5495591
  69.5563276  14.6329173  70.1033748  68.9172009  15.6531298  70.7602769
  68.9483778  14.9097096  70.5149109  58.7881677  26.2875896  79.4117282
  58.5220092  25.4715012  79.5708273  58.8020241  26.3329051  78.5412798
  58.7506399  26.1732800  79.3070764  75.7663071  16.6153711  77.4459716
  76.4088979  16.6851815  78.0321631  76.0186091  15.9482933  76.9439258
  75.8985203  16.5280059  77.4586995  62.6939424  21.0860980  66.0269041
  61.9797601  20.7999160  66.4391473  63.1783393  21.4257606  66.6675428
  62.6598787  21.0942630  66.1824675  63.5380283  19.8254274  82.0584290
  62.8452080  19.3551254  82.3045022  64.1540611  19.5992578  82.6325997
  63.5264813  19.7221406  82.1793443  59.1975091  27.0734675  76.6929027
  59.0150664  27.0481561  75.8401319  59.9324759  27.5433613  76.7317935
  59.2789154  27.1396037  76.5726945  62.2620842  23.7919678  83.2011135
  62.9860815  23.7772709  83.6876030  62.3636979  24.5015033  82.7033104
  62.3839051  23.8944381  83.1989922  69.6365792  27.2718763  88.0660082
  68.8438772  27.5862274  88.2512702  69.7514719  27.4870231  87.2280867
  69.5361202  27.3502599  87.9698417  59.1646001  23.9528176  76.8428093
  59.7419503  23.8164626  77.4820339  58.4660063  23.4963960  77.0973678
  59.1467022  23.8650442  76.9750383  65.9213303  25.6062231  75.0566577
  65.6632547  24.7733966  75.0297876  65.9761786  25.8319844  74.2159077
  65.8913081  25.5160003  74.9286713  71.0014353  17.7090682  75.1570669
  70.2970680  17.2199868  75.3154588  71.0499327  17.7213157  74.2859114
  70.9044405  17.6380330  75.0510009  64.8948015  23.1599994  75.5431471
  64.3197606  23.3192162  76.1795432  64.5183691  22.5235403  75.0799922
  64.7550828  23.0897807  75.5686030  68.5621304  21.6323343  80.4023850
  68.1735737  21.2077561  79.7476041  67.8976002  21.8805493  80.9100876
  68.4068232  21.6062064  80.3811718  54.6404834  22.8040069  73.5575912
  54.7265086  22.4271937  74.3389442  55.2680632  22.4300514  73.0795870
  54.7461385  22.6925551  73.6021389  72.3847665  15.3297972  77.9147834
  72.7658177  14.6476143  78.3015708  71.5810950  15.0407574  77.7323498
  72.3224127  15.1865020  77.9451890  69.6660242  25.8621948  68.6000657
  70.4800881  26.1536841  68.4883428  69.6019383  25.2081810  68.0258950
  69.7762981  25.8087142  68.4989494  60.2280793  31.5731802  77.6107273
  60.2684938  31.8446653  76.7827052  60.7875317  32.0973710  78.0265060
  60.3164139  31.6907557  77.5499161  66.1770965  24.5545755  68.0647858
  66.5616118  24.3353462  68.8164403  65.9282586  25.3808700  68.1948935
  66.1973038  24.6443901  68.1948935  66.3439506  17.8352170  87.7810442
  66.0292947  18.6051733  87.5180005  66.0229438  17.2722426  87.1962669
  66.2498425  17.8662439  87.6551792  63.8971403  16.2242692  73.3956639
  63.0293828  16.2965291  73.4614248  64.1846607  17.0264771  73.5844614
  63.8111151  16.3536839  73.4331405  73.0204291  16.3720551  81.7267961
  73.7657883  16.1830361  81.3131386  72.6041596  16.8978789  81.1681817
  73.0689266  16.4222696  81.5832534  67.0488953  27.5768377  81.2233359
  66.5500647  28.2884144  81.3018247  67.8589177  27.8969043  81.1851521
  67.0945060  27.7295225  81.2289927  63.3117071  26.8391330  75.4696080
  63.0230319  26.2128801  76.0041807  64.1800419  26.7811617  75.5360760
  63.3977323  26.7378874  75.5587034  65.9756011  20.4349421  86.5195657
  65.1655787  20.7407201  86.4085499  66.4530698  21.1555004  86.6348241
  65.9259490  20.5864022  86.5202728  64.8347571  29.6495142  76.7678560
  64.3128324  29.7895434  77.4530425  65.2221591  28.8905806  76.9580678
  64.8151272  29.5580666  76.8979637  61.8238755  19.7000951  70.8373515
  61.5363551  19.3302221  70.1005462  62.5109223  20.1695806  70.5757220
  61.8827652  19.7147920  70.6888591  66.2613896  26.6799161  72.1660051
  66.0656679  27.2873896  71.5720354  66.4848242  25.9867105  71.6851725
  66.2648537  26.6676687  72.0076132  64.6592426  23.5653899  72.2840920
  65.3815078  23.7295057  71.8244726  64.1800419  24.2863564  72.1780259
  64.6956157  23.6952129  72.2006534  72.6185934  19.9017698  77.6637605
  71.7797035  19.9278977  77.4275868  72.6890301  20.5488433  78.2442951
  72.5054327  20.0013824  77.7146721  62.3100043  25.9711972  81.3895059
  62.8221140  26.2496225  80.7403819  62.0236386  26.7101266  81.7557873
  62.3434906  26.1214325  81.3484938  71.0655212  16.8003075  72.3965221
  71.7681565  16.6010823  71.9185179  70.7999401  16.0279017  72.7034064
  71.1301845  16.6566041  72.3710662  59.3966949  20.4782163  71.6858796
  59.4983086  21.2808325  72.0139771  60.1922836  20.2769499  71.3881877
  59.5294855  20.5668062  71.6894151  65.8283768  18.0638360  81.4496101
  65.6366966  18.0793495  82.2995525  66.6782364  18.2602034  81.4262756
  65.9259490  18.0952711  81.5719396  60.2130681  20.5929342  79.4279918
  60.0716173  19.7413282  79.5524426  60.4971245  20.6358002  78.6042124
  60.2338528  20.4729092  79.3247542  66.3266301  25.1653150  82.9847389
  66.4709677  25.7454359  82.3490499  66.6741950  25.5429447  83.6897244
  66.3993762  25.3073854  82.9946384  68.4986218  24.3643319  80.7672521
  67.7509533  24.5574333  80.3620799  68.6527744  23.5388538  80.5296642
  68.4108646  24.2708430  80.6717926  68.7387996  18.2593869  81.6567924
  69.1960610  18.9917844  81.7840716  68.8144324  17.8360335  82.4155180
  68.8178965  18.3051108  81.7869001  60.9820987  18.5059689  82.7457368
  60.4463176  17.8940047  83.0618135  61.0438751  19.0807825  83.3991035
  60.9116619  18.5006617  82.8892795  73.2115321  11.4383745  75.5261767
  73.3298890  11.8960208  74.7929070  73.0377497  10.6329006  75.2397985
  73.2034492  11.3877517  75.3762701  66.6170373  20.2495973  78.5009748
  65.8266448  20.0687434  78.8227084  67.0130996  19.4722926  78.4840043
  66.5587250  20.1083434  78.5462297  69.1308204  22.7256233  82.9833247
  69.0667345  23.5866189  82.8553384  69.2705391  22.4088226  82.1828798
  69.1423674  22.8056399  82.8461460  67.8127298  25.4188372  77.1249450
  67.3889547  25.6192871  76.3888468  67.6372153  24.5717220  77.2373750
  67.7238178  25.3237153  77.0323140  63.1009743  25.9140423  72.5577423
  63.2574362  25.8487226  73.4133415  63.4410336  26.6888976  72.3456102
  63.1742977  26.0189621  72.6532017  73.5105995  29.5000954  88.5397698
  74.3240860  29.2286103  88.7002831  73.3500961  29.2008494  87.7357894
  73.6075943  29.4155880  88.4443104  67.8075337  30.6815658  68.7110814
  67.8768157  29.8230197  68.8503814  68.5863792  30.8987539  68.3829838
  67.9328187  30.5868522  68.6827971  70.7878157  20.1834611  81.4793086
  71.0020126  19.5445526  80.9256440  70.1712056  20.6280435  81.0500948
  70.7283486  20.1544755  81.3343517  59.6744004  23.0975374  72.8738190
  60.0542969  23.5159919  72.2098457  59.0999369  23.6788829  73.1807033
  59.6455329  23.2453233  72.8214931  70.1792885  13.2934547  76.4680429
  69.3086443  13.2673268  76.4213739  70.4333226  13.1211739  75.6506275
  70.0886445  13.2644691  76.3400566  67.1510865  25.3502514  65.4053572
  67.4403389  26.1267396  65.6797146  67.2382664  24.8391245  66.1068071
  67.2065121  25.3894432  65.5496070  70.0470752  23.1983748  87.2005096
  70.5170383  23.8225864  87.5872970  70.0932632  22.5300724  87.7598310
  70.1238628  23.1918428  87.3405167  67.2042026  15.3040775  77.9253899
  66.6880514  14.6120967  78.0505478  66.6435955  15.9711553  77.8716498
  67.0448539  15.3004033  77.9359965  69.2734259  15.8433736  79.7546752
  68.8866012  15.8682767  80.5360282  68.7867196  15.2775414  79.3021269
  69.1446768  15.7629486  79.8034656  68.9391401  12.7300721  82.0457012
  69.5684519  13.2661021  81.7678082  69.1077264  12.6378080  82.8970578
  69.0569195  12.7962083  82.1305540  68.7405316  17.5171916  84.3183424
  69.5678745  17.2457065  84.3742038  68.7613162  18.3132757  84.6747242
  68.8658166  17.5951670  84.3798606  63.3174806  24.6635779  77.5053684
  62.4762812  24.5639653  77.7132578  63.5264814  25.4331259  77.8568005
  63.2239498  24.7627822  77.5880999  60.7950373  22.2855315  75.3338435
  60.4007070  22.3598327  74.5588544  60.2390489  22.6713262  75.8846797
  60.6553185  22.3537090  75.3006095  72.4315319  15.2636609  75.0142314
  72.6364913  15.1958917  75.8599311  72.1041743  16.0695431  74.9463491
  72.4130567  15.3722550  75.1301969  67.1291470  22.5917178  76.7551282
  66.8254608  22.0373166  77.3561689  66.4270891  22.7709388  76.2679316
  66.9807680  22.5361960  76.7720987  66.1857568  19.9017698  71.3195984
  66.4617302  19.1836610  70.9073551  66.7856237  20.5002617  71.1117090
  66.3150832  19.8838068  71.2276745  65.1909822  29.8066898  81.4623379
  65.0830176  29.8168961  82.3285438  65.4005603  30.6321679  81.2728333
  65.2059933  29.9307973  81.5627471  75.6849007  15.8168374  74.4945079
  75.0723321  16.3038776  74.8798811  75.7813182  15.1411865  75.0382730
  75.6086905  15.7886682  74.6323937  69.6868088  17.5731215  69.5942579
  70.1411835  17.7441775  70.3190423  70.1608134  16.9599326  69.1940354
  69.8236408  17.5082100  69.6416340  63.2083613  27.0579541  78.9245317
  62.6171547  27.6989039  78.8948332  63.9704637  27.4817158  78.8976617
  63.2331874  27.2155379  78.9160464  63.6044236  18.2181539  79.5913335
  64.0645718  18.2920468  80.3288458  63.6500343  19.0162793  79.2413156
  63.6794792  18.3475686  79.6486091  65.2527586  18.8848233  84.1585362
  64.8613151  18.2381581  84.5941140  65.4213449  19.4759669  84.7779617
  65.2198496  18.8762501  84.3148068  67.0281108  24.2773749  70.6987586
  67.7723153  24.6648026  70.9370536  67.1741804  23.4331175  70.8628074
  67.1591693  24.2104222  70.7581556  68.9460684  16.0724008  75.7319447
  68.0996729  16.2446816  75.6060797  68.9431816  15.2673352  76.0685276
  68.8207833  15.9785037  75.7630574  70.0158984  19.8499223  76.5981505
  69.5418938  19.3240985  77.1086816  70.3877120  19.3028695  76.0296367
  70.0008873  19.6915219  76.5896652  60.3932014  21.8470729  81.9665051
  61.2557627  21.7466438  81.8802381  60.0623797  21.2665439  81.4050623
  60.4717210  21.7462356  81.8710457  71.9442484  20.7435777  69.6607259
  71.4165502  20.8264521  68.9712968  72.4038192  21.4853649  69.6571904
  71.9344334  20.8656440  69.5581954  63.7533800  20.6713178  78.6275469
  63.1286870  20.6831570  78.0201422  63.4179395  21.1473353  79.2766709
  63.6119292  20.7431695  78.6332038  63.9375549  19.0138297  64.6848154
  63.5888353  19.6658022  65.1479703  63.4571995  18.9995410  63.9572025
  63.8145793  19.1081350  64.6459245  60.4659476  28.7313638  80.0679233
  59.9359400  28.0406077  80.1174208  60.7384569  28.7223824  79.2391942
  60.4284198  28.6280770  79.9526649  71.4979566  29.3139341  68.7916916
  72.2213765  29.7797454  68.6481489  71.0580157  29.3812950  68.0414513
  71.5395258  29.3923177  68.6601697  63.0224545  22.2806326  80.8450338
  63.1818032  21.5249650  81.2502060  62.8417439  22.8297266  81.4991075
  63.0189904  22.2500140  81.0013044  70.9644848  14.4467562  81.4001127
  70.4685410  14.6431236  80.7092694  71.7213910  14.8460230  81.2289929
  71.0031673  14.5345295  81.2721264  68.2347728  18.1209908  77.9904438
  68.2590215  17.5870020  77.3017218  68.4859202  17.6127216  78.6530028
  68.2757647  17.9670811  77.9869082  55.7455318  25.4041403  77.4247582
  55.6398767  25.3588247  76.5599666  54.9955538  25.7495183  77.7061867
  55.6190921  25.4482311  77.3384911  64.5149050  16.8480726  77.3710182
  64.5547422  17.3489932  78.0844889  63.6898715  16.9391119  77.1016105
  64.3988576  16.9362542  77.4360720  66.6978663  26.4141466  85.4730476
  65.8474294  26.5513180  85.6088121  66.8606791  25.6805244  85.9178178
  66.5962527  26.3255567  85.5586076  65.9363414  23.3641236  79.6684081
  65.1055343  23.5315054  79.4619329  65.8814931  22.9877186  80.4532966
  65.8052829  23.3330967  79.7532609  63.7447197  16.8550129  85.3040492
  64.3699900  16.3112261  85.5769924  63.2897677  16.3745046  84.7348282
  63.7695458  16.7039610  85.2602085  64.3099457  21.6396827  70.1974199
  64.4502419  22.1369291  70.9002840  64.8081990  20.9383122  70.3388412
  64.4040538  21.6098806  70.3225778  64.3399680  22.5063938  67.5266775
  64.9744759  23.1024363  67.4616237  64.4225291  22.2067396  68.3412646
  64.4456231  22.5504846  67.6369862  65.9178663  18.4377914  67.5012217
  66.2394504  17.9580996  66.8471480  66.1805606  19.2477560  67.3103029
  66.0044688  18.4867811  67.3767710  71.3137818  17.8250108  79.8635697
  71.7392889  17.3722634  79.2519223  70.6994811  17.2710178  80.1400484
  71.2866463  17.6764084  79.8140722  60.8452668  24.7031779  70.7956321
  61.3544897  25.2996286  71.1767627  61.3186940  24.4357753  70.1132741
  60.9896043  24.7517594  70.7510844  69.7532041  14.2965207  73.2726274
  69.1100358  14.1462854  73.8411412  69.4131448  14.0507553  72.5075378
  69.6077118  14.2377330  73.2429289  74.5059514  18.7080518  75.6046655
  74.8587125  18.2810241  76.2792454  73.6474316  18.6231361  75.7347732
  74.4308959  18.6325258  75.7241666  63.2043199  21.3388037  73.6629502
  62.4855189  21.7552170  73.9302365  63.5755562  21.9042276  73.1121140
  63.1535131  21.4837319  73.6212309  70.4489110  28.5603078  85.4779974
  70.4084965  27.9152755  84.8925130  71.2612428  28.5039696  85.7905386
  70.5632264  28.4562045  85.4376923  68.9789774  20.3786037  69.0002881
  68.3854613  20.7003034  68.4487448  69.0165052  19.5327133  68.7923987
  68.8964163  20.3010366  68.8885653  75.9383575  13.8298930  76.5330968
  75.4314439  13.1228069  76.4652145  76.7351008  13.4992118  76.6632044
  75.9810814  13.6772081  76.5429963  71.8547590  20.3365542  72.4304632
  71.6261283  20.3598243  71.5882990  72.1145667  19.5123009  72.5499642
  71.8593778  20.2181622  72.3229829  66.1366819  22.1900015  82.0329732
  65.6245722  21.5821198  82.3914763  65.9646315  22.9056607  82.5003708
  66.0356456  22.2063314  82.1545955  60.9832534  20.6337590  84.6832094
  60.8135124  21.2938965  84.1380300  60.5398483  20.8444151  85.4044583
  60.8931867  20.7623572  84.7093723  64.9092353  18.8742088  73.7258827
  65.3849719  19.2359168  73.0909008  64.4080953  19.5298556  74.0058970
  64.9057712  19.0236277  73.6735568  70.0135889  20.1124260  84.4731987
  70.5707319  19.8838069  83.8410453  69.6896954  20.8729925  84.1967200
  70.0482299  20.1908096  84.3388484  57.8834598  23.5384456  79.9420583
  57.3361318  22.8685101  80.0601452  58.6726976  23.1714304  80.0064051
  57.9186782  23.3849442  79.9689284  67.7319006  23.1991913  85.4383994
  68.4830333  23.5143590  85.7523549  67.9241583  22.9971084  84.6117916
  67.8710421  23.2159295  85.3627390  66.9519006  21.0183288  67.0932211
  67.3317971  21.0362917  66.3083326  66.2111602  21.4637277  66.9723059
  66.8987844  21.0865063  66.9595779  74.5804297  19.3265479  72.6807790
  74.5798523  19.1714136  73.5392066  74.3760477  20.1728466  72.6249176
  74.5504074  19.4286100  72.7995729  56.6421568  22.7505264  77.0966606
  56.4643329  22.2981873  77.8221522  56.3540590  23.5531425  77.2805084
  56.5734521  22.8027821  77.2310109  67.7503760  27.8560794  68.4841001
  66.9415083  27.5327468  68.4374311  68.2578669  27.1494016  68.4169250
  67.7053427  27.7042111  68.4671296  58.3794037  25.2832987  74.2088366
  57.5139557  25.2718678  74.0971137  58.4792853  25.0963210  75.0559505
  58.2668204  25.2539049  74.3177310  73.0452552  32.0802246  87.5314355
  73.1549517  31.2910807  87.8871102  73.3743448  31.9908182  86.7288693
  73.1104957  31.9508099  87.4656746  67.8745062  15.2428403  82.3080378
  68.0072968  14.4459397  82.6361353  68.2590215  15.7694806  82.8878653
  67.9501391  15.2028320  82.4423881  70.9477417  12.1658729  78.9061471
  70.1423381  12.0556459  79.2229309  70.8184153  12.2671185  78.0491337
  70.8097550  12.1642400  78.8269511  74.4043378  18.3304221  79.5001168
  73.8206366  18.8313428  79.0878735  74.7247672  17.8233778  78.8665491
  74.3656553  18.3296056  79.3459675  66.9438177  17.2444816  69.7759843
  67.7653871  17.4143129  69.5341538  66.4807828  17.3992077  69.0526140
  66.9969339  17.2926549  69.6331487  65.5333509  15.2387578  80.5558272
  66.0777922  14.8978705  81.1462613  65.5870444  16.0973040  80.6979556
  65.6222628  15.3142838  80.6640145  61.3464067  29.0003994  77.4297079
  61.9508925  28.9599829  76.8010900  61.1391380  29.8475146  77.4601135
  61.4052965  29.1191997  77.3413196  56.5815350  27.9838612  77.2996003
  56.4839628  27.1734883  77.6086059  57.3644219  27.9630405  76.9142271
  56.6831486  27.8605702  77.2882866  77.3172089  33.3537478  87.7810442
  77.0025530  34.1237041  87.5180005  76.9962022  32.7907734  87.1962669
  77.2231008  33.3847747  87.6551792  88.2914829  40.5564723  80.3953140
  88.8832669  41.1961974  80.4271338  88.7273824  39.8587760  80.6845206
  88.4433260  40.5483074  80.4433972  91.1824149  65.4398106  73.4989014
  91.5663529  66.0085005  72.9593789  91.1183291  64.7147617  73.0194830
  91.2297577  65.4173570  73.3482876  92.5230222  64.5628933  80.1739894
  91.7245468  64.3228434  80.4313763  92.9716233  64.6143326  80.9206942
  92.4704833  64.5351325  80.3224818  94.1447992  64.1423976  72.9247307
  93.7527783  63.8390691  72.2070173  94.3001064  64.9793066  72.7352261
  94.1101581  64.2207812  72.7903804  94.9138297  63.5459468  76.3577342
  94.7157986  64.0350283  75.6633553  94.2926008  63.7500710  76.9361475
  94.7925861  63.6476007  76.3400565 109.5786657  69.9605407  71.6102193
 109.5480661  70.8150044  71.7820463 110.1768006  69.6600700  72.1688337
 109.6623815  70.0421904  71.7176996 102.7786342  69.0481058  76.3655124
 101.9224237  69.2089556  76.4164240 102.8253996  68.1773122  76.3860185
 102.6585453  68.9431860  76.3761190  97.1627482  78.5843776  72.1292355
  96.4110381  78.2059314  71.9008400  97.6113493  78.6162210  71.3811166
  97.1177148  78.5329383  71.9849857 106.0880058  75.3167584  85.9715580
 106.7946826  74.8219615  86.1002514 106.2767994  75.7576665  85.2418238
 106.2207964  75.3085934  85.8824625 102.6152442  79.0069146  67.5577902
 102.2803810  79.6846067  67.1222124 103.1279312  78.6174457  66.9694774
 102.6418023  79.0493724  67.4064694 102.1556733  80.9583414  73.4989014
 102.5396112  81.5270313  72.9593789 102.0915874  80.2332925  73.0194830
 102.2030160  80.9358878  73.3482876 105.6238163  71.1073102  79.0086775
 106.1694123  71.7858189  79.0680745 105.5655039  70.9660563  78.1488357
 105.6954077  71.1865104  78.8898836  98.7412238  78.5962168  74.3955128
  98.8422601  77.7862522  74.7052255  98.1453983  78.5019115  73.7654806
  98.6684777  78.4627196  74.3481366 107.4003232  72.5357709  69.8820503
 107.2842758  73.2865395  70.3112641 108.1959118  72.2781662  70.1316590
 107.5007821  72.6092556  69.9824595  98.5812977  83.5139757  75.7969984
  99.2250433  83.9552921  76.1866142  98.9069233  82.7093184  75.7100242
  98.7244806  83.4604952  75.8415461  91.9377282  74.6182455  74.0207461
  91.7027467  73.7850107  73.9139730  92.0762923  74.8987120  73.2068662
  91.9232945  74.5365958  73.8849816  99.2833557  76.5251732  71.1689845
  99.6049398  77.0656940  70.5651154  99.9305654  75.9548504  71.3012135
  99.4259612  76.5210907  71.0996881 101.3335265  68.5267727  71.2524232
 102.0315430  68.7055855  71.7445695 101.6487598  68.0038066  70.6294622
 101.4830602  68.4761499  71.2326242 101.5223201  74.9138172  71.2404024
 101.9616836  74.3055273  71.6858796 101.3727863  74.5345546  70.4689489
 101.5644666  74.7676643  71.1923191  98.9894844  73.5082184  78.4422849
  99.6343846  73.0154627  78.1233798  99.2296621  73.6506971  79.2688927
  99.1205429  73.4559626  78.5172382 101.5280935  76.3537090  78.0929742
 101.8104178  75.5588496  77.8716498 102.2567095  76.8317677  78.1134803
 101.6770499  76.3071687  78.0632757 105.1232537  73.2665353  68.1934793
 105.0383832  74.1226320  68.3384362 105.6116920  72.9909678  68.8616952
 105.1821434  73.3522675  68.3136874 106.7138537  59.8845647  73.5795117
 106.3991978  60.5749125  74.0115540 106.1965478  59.8290429  72.8780618
 106.5903007  59.9780535  73.5392067 106.0550970  69.8850148  69.6932528
 105.5262442  70.1009781  70.3529834 106.5775990  70.5786286  69.6133497
 106.0539423  70.0193285  69.7788127 111.5099023  75.4596452  75.0665572
 110.6796726  75.6707096  75.2298989 111.4608276  74.6333507  74.7907856
 111.3805759  75.3686058  75.0502938  97.9450578  73.7813364  68.4939996
  97.3607793  74.2863396  68.9005860  97.5420673  73.5555751  67.7536588
  97.7989882  73.8221613  68.4445021  93.4994607  79.4968126  75.2963668
  93.0162185  80.2218615  75.2723251  94.3117925  79.7944256  75.4073825
  93.5485355  79.6470479  75.3090947  99.5708761  78.2900306  77.9013482
  99.0535703  77.9307721  77.2974790 100.2683152  77.7662481  77.9119548
  99.5974342  78.1597994  77.8143741 103.2272353  78.7395120  83.8629655
 103.3155699  78.5521261  84.7107865 103.6562065  78.0932550  83.4634502
 103.3034455  78.6158128  83.9301407 100.7942813  78.0226280  82.8447317
 100.2313647  77.6098890  83.3686978 101.5563836  77.9479186  83.2640461
 100.8237261  77.9503681  82.9840318 102.4027793  70.0279016  66.9708917
 102.6423796  70.2357000  66.1584260 102.7243634  69.2236525  67.0797861
 102.4864951  69.9393118  66.8669470  97.7118083  61.9572412  70.8168455
  98.4664051  62.3250729  70.5785505  97.5345617  62.3311967  71.5847634
  97.7972561  62.0670600  70.8953343  96.3538804  80.0124301  75.4483947
  97.0559383  79.4976291  75.5056704  96.2736287  80.3398453  76.2530822
  96.4462565  79.9838528  75.5756740 111.0052982  68.1066853  78.8615994
 110.1681403  68.1769040  79.0963588 110.9741213  68.1091348  77.9890296
 110.8771264  68.1177080  78.7675542  96.0675148  64.3642731  67.5146568
  95.8850721  64.5814612  66.6887560  96.9300761  64.4781744  67.5705182
  96.1679737  64.4132629  67.4001055  95.6789580  76.2030653  74.9569555
  96.5178479  76.4353586  75.0043317  95.7101349  75.3334965  74.8876591
  95.8071297  76.1087600  74.9534200  96.3042283  76.6231529  79.2582861
  96.8440507  76.4802660  79.9286233  95.6212229  77.0228279  79.6266887
  96.2834436  76.6611200  79.4117283 101.7474867  61.3669142  70.5495591
 102.4761027  61.1885097  70.1033748 101.8369760  62.2087222  70.7602769
 101.8681529  61.4653020  70.5149109 105.7283167  72.3022529  74.4527885
 106.4840682  72.7354044  74.4916794 105.8345492  71.6527299  75.0262521
 105.8553338  72.2700013  74.5425911 108.7663339  76.1295807  75.2030288
 108.3298570  76.1332549  75.9589260 108.4326254  76.8101306  74.7709866
 108.6525958  76.2308262  75.2511121 103.3392412  78.1704139  86.5273439
 104.1232829  78.2834987  86.8929181 103.1389007  77.3445276  86.7232124
 103.4258438  78.0650859  86.6107825 108.6860821  63.1709634  77.4459716
 109.3286730  63.2407739  78.0321631 108.9383842  62.5038857  76.9439258
 108.8182954  63.0835983  77.4586995  95.6137175  67.6416904  66.0269041
  94.8995352  67.3555083  66.4391473  96.0981143  67.9813530  66.6675428
  95.5796538  67.6498554  66.1824675 103.4962805  80.0814241  80.1739894
 102.6978051  79.8413741  80.4313763 103.9448817  80.1328634  80.9206942
 103.4437417  80.0536633  80.3224818 111.9007685  72.8476726  74.0949926
 112.5624119  72.2867395  73.9945834 111.2599097  72.3528757  74.4202617
 111.9036552  72.6913135  74.1282266 102.7884492  76.1446858  66.4030849
 103.2035641  75.8131882  65.7115345 101.9576422  75.9115760  66.2750985
 102.7272501  76.0618114  66.2821696  92.1172841  73.6290599  76.6929027
  91.9348414  73.6037485  75.8401319  92.8522510  74.0989537  76.7317935
  92.1986905  73.6951961  76.5726945 108.1872515  73.8642109  73.8361914
 108.4228105  74.0087308  73.0088765 108.3362079  74.6284517  74.2293428
 108.2438319  73.9981163  73.7725518 110.0162972  72.7043775  71.6731518
 110.3471189  73.2371415  71.0671613 110.5896060  72.7582663  72.3293469
 110.1496651  72.7913344  71.6809300 102.5563542  73.8274686  88.0660082
 101.7636523  74.1418198  88.2512702 102.6712469  74.0426155  87.2280867
 102.4558953  73.9058523  87.9698417 105.2294861  70.5508677  72.3555098
 105.3241716  71.2897972  72.8094724 104.6053705  70.1226153  72.7889663
 105.1503891  70.5969998  72.4863246 103.4847335  73.7294890  83.0045379
 104.0586197  73.0922134  83.1593943 103.4062139  73.7298972  82.1355037
 103.5580570  73.6360001  82.8991790 105.4817883  72.3957417  65.5892050
 105.3998045  72.4659604  66.4547037 106.1197603  72.9587161  65.3975791
 105.5637720  72.4896388  65.6882000  98.8411054  72.1618155  75.0566577
  98.5830298  71.3289890  75.0297876  98.8959537  72.3875768  74.2159077
  98.8110832  72.0715926  74.9286713 103.9212104  64.2646606  75.1570669
 103.2168431  63.7755791  75.3154588 103.9697078  64.2769080  74.2859114
 103.8242155  64.1936254  75.0510009 101.4819055  68.1879267  80.4023850
 101.0933487  67.7633485  79.7476041 100.8173753  68.4361417  80.9100876
 101.3265982  68.1617988  80.3811718 111.1242324  67.9454272  73.1771680
 110.8678889  67.1334213  72.9869563 111.9671638  67.9531839  72.9501867
 111.2108349  67.8266269  73.1156497 105.3045416  61.8853896  77.9147834
 105.6855928  61.2032067  78.3015708 104.5008700  61.5963498  77.7323498
 105.2421878  61.7420944  77.9451890 102.5857993  72.4177872  68.6000657
 103.3998632  72.7092764  68.4883428 102.5217134  71.7637734  68.0258950
 102.6960732  72.3643066  68.4989494 108.8067483  75.1003868  83.0130232
 108.5706120  74.2691932  82.8942293 109.4510712  75.0489475  83.5985077
 108.8662154  74.9701556  83.0816126  98.4565901  75.8899389  73.7272969
  99.0939848  75.6511137  74.2724762  98.8820973  76.0936548  72.9926129
  98.6142067  75.8850399  73.6990126  93.1478543  78.1287725  77.6107273
  93.1882689  78.4002577  76.7827052  93.7073068  78.6529634  78.0265060
  93.2361889  78.2463481  77.5499161  99.0968716  71.1101679  68.0647858
  99.4813869  70.8909385  68.8164403  98.8480336  71.9364624  68.1948935
  99.1170789  71.1999825  68.1948935 109.8303904  74.8848316  79.0758527
 109.5249721  75.6176373  79.4371842 109.1110119  74.4786246  78.7951313
 109.6791246  74.9330049  79.0871664 100.8387373  76.3671812  75.4066755
 100.9126381  76.2046983  76.2608605 101.6556879  76.5562001  75.1627237
 100.9703732  76.3708554  75.4964781 115.5305696  71.5241317  78.4026871
 115.4630196  71.5437276  77.5329458 115.5161358  72.3671644  78.6282542
 115.5184452  71.6515052  78.3079348  94.5993130  76.7129674  72.4361199
  93.7731247  76.9591412  72.3095477  94.6605121  76.6341755  73.3023257
  94.4867297  76.7374623  72.5450143  96.8169153  62.7798615  73.3956639
  95.9491579  62.8521215  73.4614248  97.1044358  63.5820694  73.5844614
  96.7308902  62.9092763  73.4331405 105.9402042  62.9276475  81.7267961
 106.6855634  62.7386285  81.3131386 105.5239347  63.4534713  81.1681817
 105.9887016  62.9778620  81.5832534  99.3791959  79.3306555  70.1380228
  99.6690257  78.9395536  69.4139455 100.1095440  79.5123260  70.5785504
  99.5298843  79.3000368  70.0963035 113.3164313  70.2985703  76.6773465
 113.8672235  69.6653772  76.9170558 113.3008428  70.8301096  77.3688970
 113.3949509  70.2834651  76.8152324  99.9686704  74.1324301  81.2233359
  99.4698398  74.8440068  81.3018247 100.7786928  74.4524967  81.1851521
 100.0142811  74.2851149  81.2289927  97.3197874  81.3073937  73.2040378
  97.0998170  81.0171292  73.9967045  97.0992396  80.6488892  72.6758290
  97.2545469  81.1673645  73.2429287  96.2314822  73.3947254  75.4696080
  95.9428070  72.7684725  76.0041807  97.0998170  73.3367541  75.5360760
  96.3175073  73.2934798  75.5587034 107.0192719  68.5382037  75.7878062
 106.6757485  67.8172372  76.1385311 107.1185762  68.3295888  74.9456420
 106.9834762  68.4006240  75.7149742  99.4865830  82.6803327  71.9871071
 100.1389888  82.1479769  72.2162097  98.7891439  82.3271979  72.3738945
  99.4796548  82.5492850  72.0783238  96.4347095  75.0342505  71.3938445
  97.1893063  75.4155544  71.6073907  95.8417708  75.4853648  71.8485141
  96.4583808  75.1571332  71.4921323 107.4805748  75.0007741  71.3302050
 108.0463781  75.6600951  71.2460593 106.8333652  75.3457439  71.8018452
 107.4684505  75.1489682  71.3874806  97.7545322  76.2051066  76.7678560
  97.2326075  76.3451358  77.4530425  98.1419342  75.4461730  76.9580678
  97.7349022  76.1136590  76.8979637  94.7436506  66.2556875  70.8373515
  94.4561301  65.8858145  70.1005462  95.4306974  66.7251730  70.5757220
  94.8025403  66.2703844  70.6888591 103.9512326  77.9446525  70.7539129
 103.7099002  77.2114386  70.3466194 104.1313659  78.4933382  70.1005462
 103.9419950  77.9168916  70.5969352  99.1811647  73.2355085  72.1660051
  98.9854430  73.8429820  71.5720354  99.4045993  72.5423029  71.6851725
  99.1846288  73.2232611  72.0076132  97.5790177  70.1209823  72.2840920
  98.3012829  70.2850981  71.8244726  97.0998170  70.8419488  72.1780259
  97.6153908  70.2508053  72.2006534 105.5383685  66.4573622  77.6637605
 104.6994785  66.4834901  77.4275868 105.6088052  67.1044357  78.2442951
 105.4252078  66.5569748  77.7146721 103.9852963  63.3558999  72.3965221
 104.6879316  63.1566747  71.9185179 103.7197152  62.5834941  72.7034064
 104.0499595  63.2121965  72.3710662 109.4141209  71.6641609  74.9498846
 109.3275183  71.8197035  75.8033625 108.9591688  72.3079684  74.5758251
 109.3344465  71.7817364  75.0205953  92.3164700  67.0338087  71.6858796
  92.4180837  67.8364249  72.0139771  93.1120587  66.8325423  71.3881877
  92.4492606  67.1223986  71.6894151 103.2867025  68.9852356  73.5724406
 103.0401739  68.9048107  74.4061195 103.6152148  68.2005823  73.3786933
 103.2988268  68.8578621  73.6671929 107.1815073  75.6935715  77.3611187
 107.0429433  76.3916761  77.8659929 106.4015071  75.5384371  77.0047369
 107.0458300  75.7735882  77.3837461 105.5193159  71.9932090  83.6133569
 105.5141197  71.1211907  83.6175995 106.2254152  72.1920259  83.1403024
 105.6238163  71.8935964  83.5440604  99.2464052  71.7209074  82.9847389
  99.3907428  72.3010282  82.3490499  99.5939700  72.0985371  83.6897244
  99.3191513  71.8629778  82.9946384 101.4183969  70.9199243  80.7672521
 100.6707283  71.1130257  80.3620799 101.5725494  70.0944462  80.5296642
 101.3306397  70.8264354  80.6717926  98.3191807  79.9111846  79.8508416
  98.4681371  79.3514762  79.1981820  99.0991809  79.9903848  80.2340935
  98.4565901  79.8397411  79.8105365 108.6768446  75.0513969  68.1227686
 108.2975255  74.2651107  68.1156976 108.0134692  75.6000826  67.9799331
 108.5226921  75.0158793  68.1008483 100.8445108  80.0826489  81.1292907
 100.7688779  79.4135299  81.6843695 100.7734967  80.7844277  81.6433573
 100.8225714  80.0871396  81.2869755 101.5015354  78.6027488  71.9616513
 102.2665246  78.3337131  71.6399177 101.3993444  78.1177498  72.6786575
 101.5996850  78.4917052  72.0196340 104.0234015  75.6339672  63.9416462
 104.7907000  75.6939796  63.5322314 103.5765324  75.0620113  63.4572780
 104.0707442  75.5576247  63.8094172 104.9211810  74.4394327  76.2269194
 104.2456812  74.2079560  76.7282581 104.9304187  73.8315510  75.6011299
 104.8230315  74.3153253  76.2085346 102.0505954  69.2812156  82.9833247
 101.9865096  70.1422113  82.8553384 102.1903142  68.9644150  82.1828798
 102.0621425  69.3612323  82.8461460 106.9228545  77.2959460  68.4579372
 107.0048382  78.1026446  68.1340823 107.4078287  77.3155419  69.1820146
 107.0065703  77.4180122  68.5166271 100.7325048  71.9744296  77.1249450
 100.3087297  72.1748795  76.3888468 100.5569904  71.1273144  77.2373750
 100.6435929  71.8793077  77.0323140 100.2336742  83.4894809  79.5870907
 100.7232672  82.7905598  79.4046572  99.6620974  83.1918679  80.1746965
 100.2221272  83.3421032  79.6471948  96.0207493  72.4696347  72.5577423
  96.1772112  72.4043150  73.4133415  96.3608086  73.2444900  72.3456102
  96.0940728  72.5745545  72.6532017 102.5586638  71.8454231  71.4270786
 103.1002183  71.3424612  71.8909406 102.8733197  71.7919425  70.6160271
 102.6851035  71.7633652  71.3754598 106.4303745  76.0556878  88.5397698
 107.2438611  75.7842027  88.7002831 106.2698712  75.7564418  87.7357894
 106.5273694  75.9711804  88.4443104 100.7273088  77.2371582  68.7110814
 100.7965908  76.3786121  68.8503814 101.5061543  77.4543463  68.3829838
 100.8525938  77.1424446  68.6827971 103.7075907  66.7390535  81.4793086
 103.9217877  66.1001449  80.9256440 103.0909806  67.1836359  81.0500948
 103.6481237  66.7100679  81.3343517 105.1180575  79.6609284  72.9247307
 104.7260367  79.3575999  72.2070173 105.2733647  80.4978373  72.7352261
 105.0834165  79.7393120  72.7903804  92.5941755  69.6531298  72.8738190
  92.9740720  70.0715843  72.2098457  92.0197120  70.2344753  73.1807033
  92.5653080  69.8009156  72.8214931 105.8714995  68.3479600  82.4176393
 105.0591677  68.0405491  82.4989566 106.3304930  67.8678601  82.9819106
 105.8195380  68.2316093  82.5130988 105.2820250  76.2259272  72.8653338
 104.9234905  76.3973915  73.6417370 104.7958961  76.6872478  72.3081336
 105.1578947  76.3198243  72.8978607 100.0708615  71.9058438  65.4053572
 100.3601140  72.6823320  65.6797146 100.1580414  71.3947169  66.1068071
 100.1262872  71.9450356  65.5496070 102.9668503  69.7539672  87.2005096
 103.4368134  70.3781788  87.5872970 103.0130383  69.0856647  87.7598310
 103.0436379  69.7474352  87.3405167 106.4424989  77.1163168  83.8120539
 107.0804710  76.6223364  83.4782995 105.7999081  77.0440569  83.2272765
 106.4419216  77.0322177  83.6762894 108.1681989  68.9652314  78.3786454
 107.7409597  68.8778663  77.6234554 107.5308042  69.0730090  78.9641298
 108.0111597  68.9684974  78.3531896 106.4979246  77.8082977  80.4525895
 107.2871624  77.4572041  80.5727977 106.6722844  78.6219365  80.1902529
 106.6399528  77.8768834  80.4313763 105.3513070  61.8192533  75.0142314
 105.5562663  61.7514841  75.8599311 105.0239494  62.6251355  74.9463491
 105.3328318  61.9278474  75.1301969 100.0489221  69.1473102  76.7551282
  99.7452359  68.5929090  77.3561689  99.3468642  69.3265311  76.2679316
  99.9005431  69.0917884  76.7720987  99.1055318  66.4573621  71.3195984
  99.3815053  65.7392534  70.9073551  99.7053988  67.0558541  71.1117090
  99.2348583  66.4393992  71.2276745  98.1107572  76.3622822  81.4623379
  98.0027927  76.3724884  82.3285438  98.3203354  77.1877603  81.2728333
  98.1257683  76.4863897  81.5627471 108.6046758  62.3724298  74.4945079
 107.9921071  62.8594700  74.8798811 108.7010933  61.6967788  75.0382730
 108.5284655  62.3442606  74.6323937 102.6065839  64.1287139  69.5942579
 103.0609585  64.2997699  70.3190423 103.0805885  63.5155249  69.1940354
 102.7434159  64.0638024  69.6416340 112.2471786  73.4441234  79.9222595
 112.3054909  73.8927883  80.6682572 111.6138253  73.8540047  79.4852675
 112.1623081  73.5714969  79.9675144 105.8870880  79.0644776  76.3577342
 105.6890569  79.5535591  75.6633553 105.2658592  79.2686018  76.9361475
 105.7658445  79.1661314  76.3400565  99.9478859  70.8329673  70.6987586
 100.6920904  71.2203949  70.9370536 100.0939555  69.9887098  70.8628074
 100.0789444  70.7660146  70.7581556 101.8658434  62.6279932  75.7319447
 101.0194479  62.8002740  75.6060797 101.8629567  61.8229276  76.0685276
 101.7405584  62.5340961  75.7630574 102.9356735  66.4055146  76.5981505
 102.4616689  65.8796908  77.1086816 103.3074870  65.8584619  76.0296367
 102.9206624  66.2471143  76.5896652 109.1993465  71.4657522  78.0088286
 108.9591688  70.6263937  78.0130712 109.6785472  71.5457689  78.7329059
 109.2345649  71.3538922  78.1163088 104.8640234  67.2991701  69.6607259
 104.3363253  67.3820445  68.9712968 105.3235942  68.0409572  69.6571904
 104.8542085  67.4212363  69.5581954 111.1998652  68.2458979  75.9617545
 110.9608422  68.2054813  75.1238329 111.3632554  69.0930131  76.0883266
 111.1888956  68.3651064  75.8571027 107.8044682  72.6308928  81.8922590
 108.5278881  72.1781455  81.7133610 107.5394645  72.9113594  81.1094918
 107.8725956  72.6059897  81.7501305  96.8573299  65.5694221  64.6848154
  96.5086104  66.2213946  65.1479703  96.3769745  65.5551334  63.9572025
  96.7343543  65.6637274  64.6459245  93.3857226  75.2869562  80.0679233
  92.8557151  74.5962001  80.1174208  93.6582320  75.2779747  79.2391942
  93.3481949  75.1836694  79.9526649 104.4177317  75.8695264  68.7916916
 105.1411516  76.3353377  68.6481489 103.9777908  75.9368874  68.0414513
 104.4593009  75.9479101  68.6601697 103.5863472  72.7292807  80.0417605
 102.9720465  72.1850857  80.3366240 104.1030757  72.2157043  79.5623421
 103.5719134  72.5729216  80.0141833 102.8259769  73.7997077  77.7761904
 102.3987377  73.1746795  77.3427339 102.8184713  73.5171999  78.6020911
 102.7618910  73.6649857  77.8341731 103.8842599  61.0023485  81.4001127
 103.3883160  61.1987160  80.7092694 104.6411661  61.4016154  81.2289929
 103.9229424  61.0901219  81.2721264  88.6653069  71.9597326  77.4247582
  88.5596518  71.9144171  76.5599666  87.9153289  72.3051107  77.7061867
  88.5388671  72.0038234  77.3384911  99.6176414  72.9697390  85.4730476
  98.7672044  73.1069104  85.6088121  99.7804542  72.2361168  85.9178178
  99.5160277  72.8811491  85.5586076  97.2297208  68.1952751  70.1974199
  97.3700169  68.6925215  70.9002840  97.7279741  67.4939045  70.3388412
  97.3238289  68.1654730  70.3225778  97.2597431  69.0619862  67.5266775
  97.8942510  69.6580287  67.4616237  97.3423041  68.7623320  68.3412646
  97.3653982  69.1060770  67.6369862 110.2379996  71.5935339  80.3953140
 110.8297837  72.2332590  80.4271338 110.6738991  70.8958376  80.6845206
 110.3898428  71.5853690  80.4433972  98.8376413  64.9933837  67.5012217
  99.1592255  64.5136920  66.8471480  99.1003357  65.8033483  67.3103029
  98.9242439  65.0423735  67.3767710 102.0673386  76.0152712  81.0211034
 101.5598477  76.5688559  81.4651664 101.7700032  76.0761002  80.2029808
 101.9478271  76.1059023  80.9659490 104.2335568  64.3806031  79.8635697
 104.6590640  63.9278558  79.2519223 103.6192562  63.8266102  80.1400484
 104.2064214  64.2320008  79.8140722  93.7650418  71.2587703  70.7956321
  94.2742648  71.8552210  71.1767627  94.2384691  70.9913676  70.1132741
  93.9093794  71.3073518  70.7510844 104.6781167  79.9315969  68.9514977
 103.9610476  79.7576832  68.4862214 105.3287904  79.6968542  68.4190463
 104.6683017  79.8711762  68.8044195 102.6729791  60.8521131  73.2726274
 102.0298109  60.7018777  73.8411412 102.3329198  60.6063476  72.5075378
 102.5274869  60.7933254  73.2429289 107.2629138  68.8080558  72.6956282
 106.5920328  69.3510260  72.5669348 107.9568888  69.2775413  72.4537977
 107.2658005  68.9578829  72.6411810 101.3115871  80.9477270  77.9268040
 101.0881526  80.1896099  78.2952067 100.8225715  80.9775291  77.2048480
 101.2059321  80.8399494  77.8744781 107.4257265  65.2636442  75.6046655
 107.7784875  64.8366164  76.2792454 106.5672067  65.1787285  75.7347732
 107.3506710  65.1881182  75.7241666  96.1240950  67.8943961  73.6629502
  95.4052939  68.3108094  73.9302365  96.4953312  68.4598200  73.1121140
  96.0732882  68.0393243  73.6212309 105.4240531  68.5271810  79.5531498
 105.4038458  68.3455105  80.4066276 105.4719732  69.3983829  79.5291081
 105.4275172  68.6288348  79.6754792 103.3686861  75.1159002  85.4779974
 103.3282716  74.4708679  84.8925130 104.1810179  75.0595620  85.7905386
 103.4830014  75.0117969  85.4376923  99.9594328  81.1677728  75.3805125
  99.5454727  80.5051858  74.9908967 100.6441703  81.3155587  74.8600819
  99.9992700  81.0918386  75.2461622 103.3259623  80.3267813  76.1328742
 102.9275906  80.4370084  75.3649562 102.7110842  80.5349880  76.7155301
 103.1758512  80.3741381  76.1060041 101.8987525  66.9341961  69.0002881
 101.3052364  67.2558958  68.4487448 101.9362802  66.0883057  68.7923987
 101.8161914  66.8566289  68.8885653 108.8581325  60.3854853  76.5330968
 108.3512190  59.6783993  76.4652145 109.6548759  60.0548042  76.6632044
 108.9008565  60.2328005  76.5429963 104.7745341  66.8921466  72.4304632
 104.5459034  66.9154167  71.5882990 105.0343417  66.0678933  72.5499642
 104.7791529  66.7737546  72.3229829  97.8290104  65.4298012  73.7258827
  98.3047470  65.7915092  73.0909008  97.3278703  66.0854480  74.0058970
  97.8255463  65.5792201  73.6735568 111.0601465  74.9019780  69.5171832
 111.4435071  75.6511136  69.7469929 110.2645579  75.1485600  69.2583821
 110.9995247  75.0489474  69.5129406 102.9333640  66.6680183  84.4731987
 103.4905070  66.4393993  83.8410453 102.6094705  67.4285849  84.1967200
 102.9680050  66.7464020  84.3388484 100.6516757  69.7547837  85.4383994
 101.4028084  70.0699513  85.7523549 100.8439334  69.5527008  84.6117916
 100.7908171  69.7715218  85.3627390  99.8716757  67.5739212  67.0932211
 100.2515722  67.5918841  66.3083326  99.1309353  68.0193201  66.9723059
  99.8185595  67.6420986  66.9595779 107.5002047  65.8821403  72.6807790
 107.4996274  65.7270060  73.5392066 107.2958227  66.7284390  72.6249176
 107.4701825  65.9842024  72.7995729  89.5619318  69.3061187  77.0966606
  89.3841079  68.8537796  77.8221522  89.2738340  70.1087349  77.2805084
  89.4932271  69.3583745  77.2310109 105.2242899  70.5618905  76.3343997
 105.7196565  69.8441900  76.2948017 104.4142675  70.2589702  76.2198484
 105.1786793  70.4116551  76.3117723 100.6701511  74.4116718  68.4841001
  99.8612834  74.0883392  68.4374311 101.1776420  73.7049940  68.4169250
 100.6251178  74.2598034  68.4671296  91.2991788  71.8388911  74.2088366
  90.4337308  71.8274602  74.0971137  91.3990604  71.6519134  75.0559505
  91.1865955  71.8094972  74.3177310 107.2894718  73.3122592  79.0221126
 107.7149790  72.7897014  78.4691551 106.9251638  73.9103430  78.5009749
 107.2981321  73.3232819  78.8630135  96.9248798  81.6086810  77.7818471
  97.2395357  82.4223198  77.7896253  97.3342211  81.2237028  78.4500630
  97.0316896  81.6715512  77.8822563 103.8773318  77.0256857  75.3522283
 104.3484496  77.7397119  75.5212268 104.2133496  76.4255607  75.8882153
 103.9968433  77.0428321  75.4554659 105.9650302  78.6358170  87.5314355
 106.0747268  77.8466730  87.8871102 106.2941199  78.5464106  86.7288693
 106.0302708  78.5064023  87.4656746 104.5147264  76.8174791  82.1149976
 103.9668210  76.1932674  81.8470041 104.9760293  77.0069063  81.3994055
 104.5014473  76.7533841  81.9700407 107.3241128  64.8860145  79.5001168
 106.7404117  65.3869352  79.0878735 107.6445422  64.3789701  78.8665491
 107.2854304  64.8851980  79.3459675  99.8635928  63.8000740  69.7759843
 100.6851622  63.9699053  69.5341538  99.4005578  63.9548001  69.0526140
  99.9167090  63.8482473  69.6331487  94.2661818  75.5559918  77.4297079
  94.8706676  75.5155752  76.8010900  94.0589131  76.4031070  77.4601135
  94.3250715  75.6747921  77.3413196 104.0805590  77.8225863  78.6459317
 104.9003964  77.6788829  78.9075612 103.7999668  78.4472062  79.1875755
 104.1602334  77.8936215  78.7647256  89.5013100  74.5394536  77.2996003
  89.4037378  73.7290807  77.6086059  90.2841970  74.5186329  76.9142271
  89.6029237  74.4161626  77.2882866 120.5519241  85.4790715  71.6102193
 120.5213245  86.3335352  71.7820463 121.1500589  85.1786008  72.1688337
 120.6356399  85.5607212  71.7176996 113.7518926  84.5666366  76.3655124
 112.8956821  84.7274864  76.4164240 113.7986579  83.6958430  76.3860185
 113.6318037  84.4617168  76.3761190 108.1360065  94.1029084  72.1292355
 107.3842965  93.7244622  71.9008400 108.5846077  94.1347518  71.3811166
 108.0909732  94.0514691  71.9849857 117.0612642  90.8352892  85.9715580
 117.7679409  90.3404922  86.1002514 117.2500578  91.2761973  85.2418238
 117.1940548  90.8271242  85.8824625 113.5885025  94.5254453  67.5577902
 113.2536394  95.2031375  67.1222124 114.1011896  94.1359765  66.9694774
 113.6150606  94.5679032  67.4064694 113.1289316  96.4768722  73.4989014
 113.5128696  97.0455621  72.9593789 113.0648458  95.7518232  73.0194830
 113.1762744  96.4544186  73.3482876 116.5970747  86.6258410  79.0086775
 117.1426707  87.3043497  79.0680745 116.5387623  86.4845871  78.1488357
 116.6686661  86.7050412  78.8898836 109.7144821  94.1147476  74.3955128
 109.8155184  93.3047830  74.7052255 109.1186567  94.0204423  73.7654806
 109.6417360  93.9812504  74.3481366 118.3735815  88.0543017  69.8820503
 118.2575341  88.8050703  70.3112641 119.1691702  87.7966970  70.1316590
 118.4740405  88.1277864  69.9824595 109.5545561  99.0325065  75.7969984
 110.1983017  99.4738229  76.1866142 109.8801817  98.2278491  75.7100242
 109.6977390  98.9790260  75.8415461 102.9109866  90.1367763  74.0207461
 102.6760050  89.3035415  73.9139730 103.0495506  90.4172428  73.2068662
 102.8965528  90.0551266  73.8849816 105.2099953  82.3053493  76.9191769
 104.5904985  81.7146141  76.7501784 105.1083817  82.8964929  76.2856092
 105.1037629  82.3057576  76.7996759 110.2566141  92.0437040  71.1689845
 110.5781982  92.5842247  70.5651154 110.9038237  91.4733812  71.3012135
 110.3992196  92.0396215  71.0996881 112.3067849  84.0453035  71.2524232
 113.0048014  84.2241163  71.7445695 112.6220181  83.5223374  70.6294622
 112.4563186  83.9946807  71.2326242 104.9369086  85.8505775  79.1635338
 104.8127783  86.4368220  79.7985157 105.5887371  85.3565971  79.4647613
 105.0142736  85.8644579  79.3021267 112.4955784  90.4323480  71.2404024
 112.9349420  89.8240581  71.6858796 112.3460447  90.0530853  70.4689489
 112.5377250  90.2861951  71.1923191 109.9627427  89.0267492  78.4422849
 110.6076430  88.5339935  78.1233798 110.2029204  89.1692279  79.2688927
 110.0938012  88.9744934  78.5172382 112.5013519  91.8722398  78.0929742
 112.7836761  91.0773804  77.8716498 113.2299679  92.3502985  78.1134803
 112.6503082  91.8256995  78.0632757 110.4794712  79.4145432  75.3345507
 110.1498042  79.8656575  74.6649206 109.8039714  79.3361595  75.8818513
 110.3305149  79.4696567  75.3168730 116.0965121  88.7850661  68.1934793
 116.0116416  89.6411628  68.3384362 116.5849504  88.5094985  68.8616952
 116.1554018  88.8707983  68.3136874 117.6871120  75.4030955  73.5795117
 117.3724561  76.0934433  74.0115540 117.1698062  75.3475737  72.8780618
 117.5635591  75.4965843  73.5392067 117.0283554  85.4035456  69.6932528
 116.4995025  85.6195089  70.3529834 117.5508574  86.0971594  69.6133497
 117.0272007  85.5378592  69.7788127 122.4831607  90.9781760  75.0665572
 121.6529310  91.1892404  75.2298989 122.4340859  90.1518815  74.7907856
 122.3538342  90.8871366  75.0502938 108.9183162  89.2998672  68.4939996
 108.3340377  89.8048704  68.9005860 108.5153257  89.0741059  67.7536588
 108.7722466  89.3406921  68.4445021 104.4727190  95.0153433  75.2963668
 103.9894769  95.7403923  75.2723251 105.2850509  95.3129564  75.4073825
 104.5217938  95.1655787  75.3090947 110.5441344  93.8085614  77.9013482
 110.0268286  93.4493029  77.2974790 111.2415736  93.2847789  77.9119548
 110.5706926  93.6783302  77.8143741 114.2004936  94.2580428  83.8629655
 114.2888282  94.0706569  84.7107865 114.6294649  93.6117858  83.4634502
 114.2767039  94.1343436  83.9301407 111.7675396  93.5411588  82.8447317
 111.2046231  93.1284198  83.3686978 112.5296420  93.4664494  83.2640461
 111.7969845  93.4688989  82.9840318 113.3760376  85.5464324  66.9708917
 113.6156380  85.7542308  66.1584260 113.6976217  84.7421833  67.0797861
 113.4597534  85.4578426  66.8669470 108.6850666  77.4757720  70.8168455
 109.4396634  77.8436037  70.5785505 108.5078201  77.8497275  71.5847634
 108.7705145  77.5855908  70.8953343 107.3271388  95.5309609  75.4483947
 108.0291967  95.0161598  75.5056704 107.2468871  95.8583761  76.2530822
 107.4195148  95.5023836  75.5756740 121.9785565  83.6252161  78.8615994
 121.1413986  83.6954348  79.0963588 121.9473796  83.6276656  77.9890296
 121.8503848  83.6362388  78.7675542 108.3750294  85.7685196  84.5764362
 108.5470798  85.6591091  85.4249644 108.9119652  86.4139602  84.3395555
 108.4795298  85.8477198  84.6669459 107.0407731  79.8828039  67.5146568
 106.8583304  80.0999920  66.6887560 107.9033344  79.9967052  67.5705182
 107.1412321  79.9317937  67.4001055 106.6522163  91.7215961  74.9569555
 107.4911062  91.9538894  75.0043317 106.6833932  90.8520273  74.8876591
 106.7803881  91.6272908  74.9534200 107.2774866  92.1416837  79.2582861
 107.8173091  91.9987968  79.9286233 106.5944812  92.5413587  79.6266887
 107.2567020  92.1796507  79.4117283 112.7207450  76.8854450  70.5495591
 113.4493611  76.7070405  70.1033748 112.8102343  77.7272530  70.7602769
 112.8414112  76.9838328  70.5149109 116.7015751  87.8207837  74.4527885
 117.4573266  88.2539352  74.4916794 116.8078075  87.1712607  75.0262521
 116.8285922  87.7885321  74.5425911 119.7395922  91.6481114  75.2030288
 119.3031154  91.6517857  75.9589260 119.4058838  92.3286613  74.7709866
 119.6258542  91.7493570  75.2511121 114.3124996  93.6889447  86.5273439
 115.0965412  93.8020295  86.8929181 114.1121590  92.8630584  86.7232124
 114.3991021  93.5836167  86.6107825 102.6812011  88.3617127  79.4117282
 102.4150426  87.5456244  79.5708273 102.6950575  88.4070283  78.5412798
 102.6436733  88.2474032  79.3070764 119.6593405  78.6894942  77.4459716
 120.3019313  78.7593047  78.0321631 119.9116426  78.0224165  76.9439258
 119.7915537  78.6021291  77.4586995 106.5869758  83.1602212  66.0269041
 105.8727935  82.8740391  66.4391473 107.0713727  83.4998838  66.6675428
 106.5529121  83.1683861  66.1824675 107.4310618  81.8995506  82.0584290
 106.7382414  81.4292485  82.3045022 108.0470945  81.6733810  82.6325997
 107.4195147  81.7962637  82.1793443 114.4695389  95.5999549  80.1739894
 113.6710635  95.3599049  80.4313763 114.9181401  95.6513942  80.9206942
 114.4170000  95.5721940  80.3224818 122.8740268  88.3662034  74.0949926
 123.5356702  87.8052703  73.9945834 122.2331680  87.8714065  74.4202617
 122.8769136  88.2098443  74.1282266 113.7617076  91.6632166  66.4030849
 114.1768225  91.3317190  65.7115345 112.9309006  91.4301068  66.2750985
 113.7005085  91.5803422  66.2821696 103.0905425  89.1475907  76.6929027
 102.9080998  89.1222793  75.8401319 103.8255094  89.6174845  76.7317935
 103.1719489  89.2137269  76.5726945 119.1605099  89.3827417  73.8361914
 119.3960688  89.5272616  73.0088765 119.3094663  90.1469825  74.2293428
 119.2170902  89.5166471  73.7725518 106.1551176  85.8660910  83.2011135
 106.8791149  85.8513940  83.6876030 106.2567313  86.5756265  82.7033104
 106.2769386  85.9685613  83.1989922 120.9895556  88.2229083  71.6731518
 121.3203773  88.7556723  71.0671613 121.5628644  88.2767970  72.3293469
 121.1229235  88.3098652  71.6809300 113.5296126  89.3459994  88.0660082
 112.7369107  89.6603506  88.2512702 113.6445053  89.5611463  87.2280867
 113.4291536  89.4243831  87.9698417 116.2027445  86.0693985  72.3555098
 116.2974299  86.8083279  72.8094724 115.5786288  85.6411461  72.7889663
 116.1236475  86.1155306  72.4863246 114.4579919  89.2480198  83.0045379
 115.0318780  88.6107442  83.1593943 114.3794722  89.2484280  82.1355037
 114.5313154  89.1545309  82.8991790 103.0576335  86.0269407  76.8428093
 103.6349838  85.8905858  77.4820339 102.3590397  85.5705192  77.0973678
 103.0397357  85.9391674  76.9750383 116.4550466  87.9142725  65.5892050
 116.3730629  87.9844912  66.4547037 117.0930187  88.4772469  65.3975791
 116.5370304  88.0081696  65.6882000 109.8143637  87.6803463  75.0566577
 109.5562882  86.8475198  75.0297876 109.8692120  87.9061076  74.2159077
 109.7843415  87.5901234  74.9286713 114.8944687  79.7831914  75.1570669
 114.1901014  79.2941099  75.3154588 114.9429662  79.7954388  74.2859114
 114.7974739  79.7121562  75.0510009 108.7878349  85.2341226  75.5431471
 108.2127941  85.3933394  76.1795432 108.4114026  84.5976635  75.0799922
 108.6481162  85.1639039  75.5686030 112.4551638  83.7064575  80.4023850
 112.0666071  83.2818793  79.7476041 111.7906336  83.9546725  80.9100876
 112.2998566  83.6803296  80.3811718 122.0974907  83.4639580  73.1771680
 121.8411472  82.6519521  72.9869563 122.9404221  83.4717147  72.9501867
 122.1840933  83.3451577  73.1156497  98.5335168  84.8781300  73.5575912
  98.6195420  84.5013169  74.3389442  99.1610966  84.5041746  73.0795870
  98.6391719  84.7666783  73.6021389 116.2778000  77.4039204  77.9147834
 116.6588511  76.7217375  78.3015708 115.4741284  77.1148806  77.7323498
 116.2154461  77.2606252  77.9451890 113.5590576  87.9363179  68.6000657
 114.3731215  88.2278072  68.4883428 113.4949718  87.2823042  68.0258950
 113.6693315  87.8828374  68.4989494 119.7800067  90.6189176  83.0130232
 119.5438704  89.7877240  82.8942293 120.4243295  90.5674783  83.5985077
 119.8394737  90.4886864  83.0816126 109.4298485  91.4084697  73.7272969
 110.0672432  91.1696444  74.2724762 109.8553556  91.6121856  72.9926129
 109.5874651  91.4035707  73.6990126 104.1211127  93.6473033  77.6107273
 104.1615272  93.9187884  76.7827052 104.6805651  94.1714941  78.0265060
 104.2094473  93.7648788  77.5499161 110.0701300  86.6286987  68.0647858
 110.4546452  86.4094693  68.8164403 109.8212920  87.4549932  68.1948935
 110.0903372  86.7185133  68.1948935 110.2369840  79.9093402  87.7810442
 109.9223281  80.6792965  87.5180005 109.9159773  79.3463658  87.1962669
 110.1428759  79.9403671  87.6551792 120.8036487  90.4033624  79.0758527
 120.4982304  91.1361681  79.4371842 120.0842703  89.9971554  78.7951313
 120.6523829  90.4515357  79.0871664 111.8119957  91.8857120  75.4066755
 111.8858965  91.7232291  76.2608605 112.6289463  92.0747309  75.1627237
 111.9436315  91.8893862  75.4964781 105.5725713  92.2314982  72.4361199
 104.7463831  92.4776720  72.3095477 105.6337704  92.1527063  73.3023257
 105.4599880  92.2559931  72.5450143 107.7901737  78.2983923  73.3956639
 106.9224162  78.3706523  73.4614248 108.0776941  79.1006002  73.5844614
 107.7041485  78.4278070  73.4331405 116.9134626  78.4461783  81.7267961
 117.6588218  78.2571593  81.3131386 116.4971930  78.9720021  81.1681817
 116.9619600  78.4963928  81.5832534 110.3524542  94.8491863  70.1380228
 110.6422841  94.4580844  69.4139455 111.0828023  95.0308567  70.5785504
 110.5031427  94.8185676  70.0963035 124.2896897  85.8171011  76.6773465
 124.8404818  85.1839080  76.9170558 124.2741012  86.3486404  77.3688970
 124.3682093  85.8019959  76.8152324 110.9419287  89.6509608  81.2233359
 110.4430981  90.3625376  81.3018247 111.7519512  89.9710275  81.1851521
 110.9875394  89.8036457  81.2289927 108.2930458  96.8259245  73.2040378
 108.0730753  96.5356600  73.9967045 108.0724980  96.1674200  72.6758290
 108.2278052  96.6858953  73.2429287 107.2047405  88.9132561  75.4696080
 106.9160654  88.2870033  76.0041807 108.0730753  88.8552849  75.5360760
 107.2907657  88.8120106  75.5587034 117.9925303  84.0567345  75.7878062
 117.6490069  83.3357680  76.1385311 118.0918345  83.8481196  74.9456420
 117.9567346  83.9191548  75.7149742 110.4598414  98.1988635  71.9871071
 111.1122472  97.6665077  72.2162097 109.7624022  97.8457287  72.3738945
 110.4529132  98.0678158  72.0783238 107.4079678  90.5527813  71.3938445
 108.1625646  90.9340852  71.6073907 106.8150291  91.0038956  71.8485141
 107.4316392  90.6756640  71.4921323 118.4538332  90.5193049  71.3302050
 119.0196365  91.1786259  71.2460593 117.8066235  90.8642747  71.8018452
 118.4417088  90.6674990  71.3874806 109.8686345  82.5090653  86.5195657
 109.0586121  82.8148433  86.4085499 110.3461032  83.2296235  86.6348241
 109.8189824  82.6605254  86.5202728 108.7277905  91.7236374  76.7678560
 108.2058659  91.8636666  77.4530425 109.1151925  90.9647038  76.9580678
 108.7081606  91.6321898  76.8979637 105.7169089  81.7742183  70.8373515
 105.4293885  81.4043453  70.1005462 106.4039557  82.2437038  70.5757220
 105.7757986  81.7889152  70.6888591 114.9244910  93.4631833  70.7539129
 114.6831586  92.7299694  70.3466194 115.1046243  94.0118690  70.1005462
 114.9152534  93.4354224  70.5969352 110.1544231  88.7540393  72.1660051
 109.9587013  89.3615127  71.5720354 110.3778576  88.0608337  71.6851725
 110.1578872  88.7417918  72.0076132 108.5522761  85.6395131  72.2840920
 109.2745413  85.8036289  71.8244726 108.0730753  86.3604796  72.1780259
 108.5886491  85.7693360  72.2006534 116.5116268  81.9758930  77.6637605
 115.6727369  82.0020209  77.4275868 116.5820636  82.6229665  78.2442951
 116.3984662  82.0755055  77.7146721 106.2030377  88.0453203  81.3895059
 106.7151474  88.3237457  80.7403819 105.9166720  88.7842497  81.7557873
 106.2365241  88.1955557  81.3484938 114.9585547  78.8744307  72.3965221
 115.6611899  78.6752055  71.9185179 114.6929735  78.1020249  72.7034064
 115.0232179  78.7307273  72.3710662 120.3873792  87.1826916  74.9498846
 120.3007767  87.3382342  75.8033625 119.9324272  87.8264992  74.5758251
 120.3077049  87.3002672  75.0205953 103.2897284  82.5523395  71.6858796
 103.3913420  83.3549557  72.0139771 104.0853170  82.3510731  71.3881877
 103.4225189  82.6409294  71.6894151 109.7214103  80.1379592  81.4496101
 109.5297300  80.1534726  82.2995525 110.5712699  80.3343266  81.4262756
 109.8189825  80.1693943  81.5719396 104.1061016  82.6670573  79.4279918
 103.9646508  81.8154514  79.5524426 104.3901579  82.7099234  78.6042124
 104.1268862  82.5470323  79.3247542 114.2599608  84.5037664  73.5724406
 114.0134322  84.4233414  74.4061195 114.5884731  83.7191131  73.3786933
 114.2720852  84.3763929  73.6671929 118.1547657  91.2121023  77.3611187
 118.0162016  91.9102069  77.8659929 117.3747655  91.0569679  77.0047369
 118.0190884  91.2921190  77.3837461 116.4925742  87.5117398  83.6133569
 116.4873781  86.6397215  83.6175995 117.1986736  87.7105567  83.1403024
 116.5970746  87.4121272  83.5440604 110.2196635  87.2394382  82.9847389
 110.3640011  87.8195590  82.3490499 110.5672284  87.6170679  83.6897244
 110.2924097  87.3815086  82.9946384 112.3916553  86.4384550  80.7672521
 111.6439867  86.6315565  80.3620799 112.5458078  85.6129770  80.5296642
 112.3038980  86.3449662  80.6717926 109.2924390  95.4297154  79.8508416
 109.4413954  94.8700070  79.1981820 110.0724393  95.5089156  80.2340935
 109.4298484  95.3582719  79.8105365 119.6501030  90.5699277  68.1227686
 119.2707839  89.7836415  68.1156976 118.9867275  91.1186134  67.9799331
 119.4959505  90.5344101  68.1008483 111.8177691  95.6011797  81.1292907
 111.7421362  94.9320607  81.6843695 111.7467550  96.3029585  81.6433573
 111.7958298  95.6056704  81.2869755 112.6318330  80.3335101  81.6567924
 113.0890944  81.0659076  81.7840716 112.7074659  79.9101566  82.4155180
 112.7109300  80.3792339  81.7869001 104.8751321  80.5800921  82.7457368
 104.3393511  79.9681279  83.0618135 104.9369086  81.1549057  83.3991035
 104.8046954  80.5747849  82.8892795 117.1045656  73.5124976  75.5261767
 117.2229224  73.9701440  74.7929070 116.9307831  72.7070238  75.2397985
 117.0964827  73.4618749  75.3762701 112.4747938  94.1212796  71.9616513
 113.2397829  93.8522439  71.6399177 112.3726028  93.6362806  72.6786575
 112.5729433  94.0102360  72.0196340 110.5100708  82.3237205  78.5009748
 109.7196783  82.1428665  78.8227084 110.9061331  81.5464158  78.4840043
 110.4517584  82.1824666  78.5462297 114.9966599  91.1524979  63.9416462
 115.7639584  91.2125104  63.5322314 114.5497907  90.5805421  63.4572780
 115.0440026  91.0761555  63.8094172 115.8944394  89.9579635  76.2269194
 115.2189396  89.7264868  76.7282581 115.9036770  89.3500818  75.6011299
 115.7962899  89.8338560  76.2085346 113.0238538  84.7997464  82.9833247
 112.9597679  85.6607421  82.8553384 113.1635726  84.4829457  82.1828798
 113.0354008  84.8797631  82.8461460 117.8961129  92.8144768  68.4579372
 117.9780966  93.6211754  68.1340823 118.3810871  92.8340727  69.1820146
 117.9798287  92.9365430  68.5166271 111.7057632  87.4929604  77.1249450
 111.2819881  87.6934103  76.3888468 111.5302487  86.6458452  77.2373750
 111.6168513  87.3978385  77.0323140 111.2069325  99.0080117  79.5870907
 111.6965256  98.3090906  79.4046572 110.6353558  98.7103987  80.1746965
 111.1953855  98.8606340  79.6471948 106.9940077  87.9881655  72.5577423
 107.1504696  87.9228458  73.4133415 107.3340670  88.7630208  72.3456102
 107.0673312  88.0930853  72.6532017 113.5319221  87.3639539  71.4270786
 114.0734767  86.8609920  71.8909406 113.8465781  87.3104733  70.6160271
 113.6583619  87.2818960  71.3754598 117.4036329  91.5742186  88.5397698
 118.2171194  91.3027335  88.7002831 117.2431295  91.2749726  87.7357894
 117.5006277  91.4897112  88.4443104 111.7005671  92.7556890  68.7110814
 111.7698492  91.8971429  68.8503814 112.4794126  92.9728771  68.3829838
 111.8258521  92.6609754  68.6827971 114.6808491  82.2575843  81.4793086
 114.8950460  81.6186757  80.9256440 114.0642390  82.7021667  81.0500948
 114.6213820  82.2285987  81.3343517 116.0913159  95.1794591  72.9247307
 115.6992951  94.8761307  72.2070173 116.2466231  96.0163681  72.7352261
 116.0566749  95.2578428  72.7903804 103.5674338  85.1716606  72.8738190
 103.9473303  85.5901150  72.2098457 102.9929703  85.7530061  73.1807033
 103.5385663  85.3194464  72.8214931 116.8447579  83.8664908  82.4176393
 116.0324261  83.5590799  82.4989566 117.3037513  83.3863908  82.9819106
 116.7927964  83.7501401  82.5130988 116.2552834  91.7444580  72.8653338
 115.8967488  91.9159223  73.6417370 115.7691544  92.2057786  72.3081336
 116.1311530  91.8383551  72.8978607 114.0723220  75.3675779  76.4680429
 113.2016777  75.3414500  76.4213739 114.3263561  75.1952971  75.6506275
 113.9816780  75.3385922  76.3400566 111.0441199  87.4243746  65.4053572
 111.3333724  88.2008628  65.6797146 111.1312998  86.9132477  66.1068071
 111.0995455  87.4635664  65.5496070 113.9401086  85.2724980  87.2005096
 114.4100718  85.8967096  87.5872970 113.9862967  84.6041955  87.7598310
 114.0168962  85.2659660  87.3405167 111.0972360  77.3782007  77.9253899
 110.5810849  76.6862199  78.0505478 110.5366289  78.0452784  77.8716498
 110.9378873  77.3745265  77.9359965 113.1664594  77.9174967  79.7546752
 112.7796347  77.9423999  80.5360282 112.6797531  77.3516646  79.3021269
 113.0377102  77.8370718  79.8034656 117.4157573  92.6348476  83.8120539
 118.0537293  92.1408672  83.4782995 116.7731664  92.5625877  83.2272765
 117.4151799  92.5507485  83.6762894 119.1414573  84.4837622  78.3786454
 118.7142181  84.3963971  77.6234554 118.5040626  84.5915398  78.9641298
 118.9844180  84.4870282  78.3531896 112.8321735  74.8041953  82.0457012
 113.4614853  75.3402253  81.7678082 113.0007598  74.7119312  82.8970578
 112.9499530  74.8703315  82.1305540 112.6335650  79.5913147  84.3183424
 113.4609079  79.3198296  84.3742038 112.6543496  80.3873989  84.6747242
 112.7588500  79.6692902  84.3798606 117.4711830  93.3268285  80.4525895
 118.2604208  92.9757349  80.5727977 117.6455427  94.1404673  80.1902529
 117.6132111  93.3954142  80.4313763 107.2105140  86.7377010  77.5053684
 106.3693147  86.6380884  77.7132578 107.4195148  87.5072491  77.8568005
 107.1169833  86.8369054  77.5880999 104.6880707  84.3596547  75.3338435
 104.2937405  84.4339559  74.5588544 104.1320824  84.7454494  75.8846797
 104.5483519  84.4278322  75.3006095 116.3245654  77.3377841  75.0142314
 116.5295247  77.2700149  75.8599311 115.9972078  78.1436662  74.9463491
 116.3060902  77.4463782  75.1301969 111.0221805  84.6658409  76.7551282
 110.7184942  84.1114398  77.3561689 110.3201226  84.8450619  76.2679316
 110.8738015  84.6103192  76.7720987 110.0787902  81.9758929  71.3195984
 110.3547636  81.2577842  70.9073551 110.6786571  82.5743849  71.1117090
 110.2081167  81.9579300  71.2276745 109.0840156  91.8808130  81.4623379
 108.9760511  91.8910192  82.3285438 109.2935937  92.7062911  81.2728333
 109.0990267  92.0049205  81.5627471 119.5779341  77.8909605  74.4945079
 118.9653655  78.3780008  74.8798811 119.6743516  77.2153096  75.0382730
 119.5017239  77.8627914  74.6323937 113.5798422  79.6472447  69.5942579
 114.0342169  79.8183007  70.3190423 114.0538468  79.0340557  69.1940354
 113.7166743  79.5823332  69.6416340 107.1013948  89.1320773  78.9245317
 106.5101881  89.7730271  78.8948332 107.8634971  89.5558390  78.8976617
 107.1262208  89.2896611  78.9160464 107.4974571  80.2922770  79.5913335
 107.9576052  80.3661700  80.3288458 107.5430677  81.0904024  79.2413156
 107.5725126  80.4216917  79.6486091 109.1457920  80.9589465  84.1585362
 108.7543485  80.3122812  84.5941140 109.3143783  81.5500900  84.7779617
 109.1128831  80.9503733  84.3148068 123.2204369  88.9626542  79.9222595
 123.2787493  89.4113191  80.6682572 122.5870837  89.3725355  79.4852675
 123.1355664  89.0900277  79.9675144 116.8603464  94.5830084  76.3577342
 116.6623153  95.0720899  75.6633553 116.2391175  94.7871326  76.9361475
 116.7391028  94.6846622  76.3400565 110.9211442  86.3514981  70.6987586
 111.6653487  86.7389257  70.9370536 111.0672139  85.5072406  70.8628074
 111.0522027  86.2845454  70.7581556 112.8391018  78.1465240  75.7319447
 111.9927063  78.3188048  75.6060797 112.8362150  77.3414584  76.0685276
 112.7138168  78.0526269  75.7630574 113.9089318  81.9240454  76.5981505
 113.4349273  81.3982216  77.1086816 114.2807454  81.3769927  76.0296367
 113.8939207  81.7656451  76.5896652 104.2862348  83.9211961  81.9665051
 105.1487961  83.8207670  81.8802381 103.9554131  83.3406670  81.4050623
 104.3647545  83.8203588  81.8710457 120.1726049  86.9842830  78.0088286
 119.9324272  86.1449245  78.0130712 120.6518056  87.0642997  78.7329059
 120.2078232  86.8724230  78.1163088 115.8372818  82.8177009  69.6607259
 115.3095837  82.9005753  68.9712968 116.2968526  83.5594880  69.6571904
 115.8274668  82.9397671  69.5581954 122.1731236  83.7644287  75.9617545
 121.9341006  83.7240121  75.1238329 122.3365137  84.6115439  76.0883266
 122.1621539  83.8836372  75.8571027 118.7777266  88.1494236  81.8922590
 119.5011465  87.6966763  81.7133610 118.5127228  88.4298902  81.1094918
 118.8458539  88.1245205  81.7501305 107.6464134  82.7454410  78.6275469
 107.0217205  82.7572802  78.0201422 107.3109729  83.2214585  79.2766709
 107.5049626  82.8172927  78.6332038 107.8305883  81.0879528  64.6848154
 107.4818687  81.7399254  65.1479703 107.3502329  81.0736642  63.9572025
 107.7076127  81.1822582  64.6459245 104.3589810  90.8054870  80.0679233
 103.8289734  90.1147309  80.1174208 104.6314903  90.7965055  79.2391942
 104.3214532  90.7022002  79.9526649 115.3909900  91.3880572  68.7916916
 116.1144099  91.8538685  68.6481489 114.9510491  91.4554182  68.0414513
 115.4325593  91.4664409  68.6601697 114.5596055  88.2478115  80.0417605
 113.9453049  87.7036165  80.3366240 115.0763340  87.7342351  79.5623421
 114.5451718  88.0914524  80.0141833 113.7992353  89.3182385  77.7761904
 113.3719961  88.6932103  77.3427339 113.7917297  89.0357307  78.6020911
 113.7351494  89.1835165  77.8341731 106.9154880  84.3547558  80.8450338
 107.0748366  83.5990882  81.2502060 106.7347773  84.9038497  81.4991075
 106.9120239  84.3241372  81.0013044 114.8575183  76.5208793  81.4001127
 114.3615744  76.7172468  80.7092694 115.6144245  76.9201462  81.2289929
 114.8962007  76.6086527  81.2721264 112.1278062  80.1951139  77.9904438
 112.1520550  79.6611252  77.3017218 112.3789536  79.6868448  78.6530028
 112.1687981  80.0412043  77.9869082  99.6385652  87.4782634  77.4247582
  99.5329101  87.4329479  76.5599666  98.8885872  87.8236415  77.7061867
  99.5121255  87.5223542  77.3384911 108.4079385  78.9221958  77.3710182
 108.4477756  79.4231164  78.0844889 107.5829049  79.0132351  77.1016105
 108.2918910  79.0103774  77.4360720 110.5908997  88.4882697  85.4730476
 109.7404628  88.6254412  85.6088121 110.7537125  87.7546476  85.9178178
 110.4892861  88.3996799  85.5586076 109.8293748  85.4382467  79.6684081
 108.9985678  85.6056285  79.4619329 109.7745265  85.0618418  80.4532966
 109.6983163  85.4072199  79.7532609 107.6377531  78.9291360  85.3040492
 108.2630235  78.3853493  85.5769924 107.1828011  78.4486278  84.7348282
 107.6625792  78.7780842  85.2602085 108.2029792  83.7138059  70.1974199
 108.3432753  84.2110523  70.9002840 108.7012325  83.0124353  70.3388412
 108.2970873  83.6840038  70.3225778 108.2330014  84.5805170  67.5266775
 108.8675094  85.1765595  67.4616237 108.3155625  84.2808628  68.3412646
 108.3386565  84.6246078  67.6369862 121.2112580  87.1120647  80.3953140
 121.8030420  87.7517898  80.4271338 121.6471574  86.4143684  80.6845206
 121.3631011  87.1038998  80.4433972 109.8108997  80.5119145  67.5012217
 110.1324838  80.0322228  66.8471480 110.0735941  81.3218791  67.3103029
 109.8975022  80.5609043  67.3767710 113.0405970  91.5338020  81.0211034
 112.5331061  92.0873866  81.4651664 112.7432616  91.5946310  80.2029808
 112.9210855  91.6244331  80.9659490 115.2068152  79.8991339  79.8635697
 115.6323224  79.4463866  79.2519223 114.5925145  79.3451410  80.1400484
 115.1796797  79.7505315  79.8140722 104.7383002  86.7773011  70.7956321
 105.2475231  87.3737518  71.1767627 105.2117274  86.5098984  70.1132741
 104.8826378  86.8258826  70.7510844 115.6513750  95.4501277  68.9514977
 114.9343060  95.2762140  68.4862214 116.3020488  95.2153850  68.4190463
 115.6415601  95.3897070  68.8044195 113.6462375  76.3706439  73.2726274
 113.0030693  76.2204085  73.8411412 113.3061782  76.1248784  72.5075378
 113.5007452  76.3118562  73.2429289 118.2361721  84.3265866  72.6956282
 117.5652911  84.8695568  72.5669348 118.9301472  84.7960721  72.4537977
 118.2390589  84.4764137  72.6411810 112.2848455  96.4662578  77.9268040
 112.0614109  95.7081407  78.2952067 111.7958298  96.4960599  77.2048480
 112.1791904  96.3584802  77.8744781 118.3989849  80.7821749  75.6046655
 118.7517459  80.3551472  76.2792454 117.5404650  80.6972593  75.7347732
 118.3239293  80.7066490  75.7241666 107.0973534  83.4129269  73.6629502
 106.3785523  83.8293402  73.9302365 107.4685896  83.9783508  73.1121140
 107.0465466  83.5578551  73.6212309 116.3973115  84.0457118  79.5531498
 116.3771042  83.8640413  80.4066276 116.4452315  84.9169137  79.5291081
 116.4007756  84.1473656  79.6754792 114.3419444  90.6344310  85.4779974
 114.3015299  89.9893987  84.8925130 115.1542763  90.5780927  85.7905386
 114.4562598  90.5303277  85.4376923 110.9326912  96.6863036  75.3805125
 110.5187311  96.0237166  74.9908967 111.6174286  96.8340895  74.8600819
 110.9725284  96.6103694  75.2461622 114.2992206  95.8453121  76.1328742
 113.9008489  95.9555392  75.3649562 113.6843426  96.0535188  76.7155301
 114.1491095  95.8926689  76.1060041 112.8720108  82.4527269  69.0002881
 112.2784947  82.7744266  68.4487448 112.9095386  81.6068365  68.7923987
 112.7894497  82.3751597  68.8885653 119.8313909  75.9040161  76.5330968
 119.3244774  75.1969301  76.4652145 120.6281343  75.5733350  76.6632044
 119.8741148  75.7513313  76.5429963 115.7477925  82.4106774  72.4304632
 115.5191618  82.4339475  71.5882990 116.0076001  81.5864241  72.5499642
 115.7524113  82.2922854  72.3229829 110.0297153  84.2641247  82.0329732
 109.5176056  83.6562430  82.3914763 109.8576649  84.9797839  82.5003708
 109.9286790  84.2804546  82.1545955 104.8762868  82.7078822  84.6832094
 104.7065458  83.3680197  84.1380300 104.4328818  82.9185383  85.4044583
 104.7862201  82.8364804  84.7093723 108.8022687  80.9483320  73.7258827
 109.2780054  81.3100400  73.0909008 108.3011287  81.6039787  74.0058970
 108.7988046  81.0977509  73.6735568 122.0334049  90.4205088  69.5171832
 122.4167655  91.1696444  69.7469929 121.2378162  90.6670908  69.2583821
 121.9727831  90.5674782  69.5129406 113.9066224  82.1865491  84.4731987
 114.4637654  81.9579301  83.8410453 113.5827289  82.9471157  84.1967200
 113.9412634  82.2649328  84.3388484 101.7764932  85.6125688  79.9420583
 101.2291652  84.9426333  80.0601452 102.5657311  85.2455535  80.0064051
 101.8117116  85.4590674  79.9689284 111.6249341  85.2733145  85.4383994
 112.3760668  85.5884821  85.7523549 111.8171917  85.0712315  84.6117916
 111.7640755  85.2900526  85.3627390 110.8449340  83.0924520  67.0932211
 111.2248305  83.1104149  66.3083326 110.1041936  83.5378509  66.9723059
 110.7918178  83.1606294  66.9595779 118.4734631  81.4006711  72.6807790
 118.4728857  81.2455367  73.5392066 118.2690811  82.2469698  72.6249176
 118.4434409  81.5027332  72.7995729 100.5351902  84.8246495  77.0966606
 100.3573663  84.3723104  77.8221522 100.2470924  85.6272657  77.2805084
 100.4664855  84.8769053  77.2310109 116.1975483  86.0804213  76.3343997
 116.6929148  85.3627208  76.2948017 115.3875259  85.7775010  76.2198484
 116.1519376  85.9301859  76.3117723 111.6434094  89.9302026  68.4841001
 110.8345417  89.6068699  68.4374311 112.1509003  89.2235248  68.4169250
 111.5983761  89.7783342  68.4671296 102.2724372  87.3574219  74.2088366
 101.4069891  87.3459910  74.0971137 102.3723188  87.1704442  75.0559505
 102.1598539  87.3280280  74.3177310 118.2627302  88.8307900  79.0221126
 118.6882373  88.3082322  78.4691551 117.8984222  89.4288738  78.5009749
 118.2713904  88.8418127  78.8630135 107.8981382  97.1272118  77.7818471
 108.2127941  97.9408506  77.7896253 108.3074795  96.7422336  78.4500630
 108.0049480  97.1900820  77.8822563 114.8505901  92.5442164  75.3522283
 115.3217079  93.2582427  75.5212268 115.1866080  91.9440915  75.8882153
 114.9701016  92.5613629  75.4554659 116.9382886  94.1543478  87.5314355
 117.0479851  93.3652038  87.8871102 117.2673782  94.0649414  86.7288693
 117.0035292  94.0249331  87.4656746 111.7675396  77.3169635  82.3080378
 111.9003302  76.5200628  82.6361353 112.1520549  77.8436038  82.8878653
 111.8431725  77.2769552  82.4423881 115.4879848  92.3360099  82.1149976
 114.9400794  91.7117982  81.8470041 115.9492876  92.5254371  81.3994055
 115.4747057  92.2719149  81.9700407 114.8407751  74.2399961  78.9061471
 114.0353715  74.1297691  79.2229309 114.7114487  74.3412417  78.0491337
 114.7027884  74.2383631  78.8269511 118.2973712  80.4045453  79.5001168
 117.7136701  80.9054660  79.0878735 118.6178006  79.8975009  78.8665491
 118.2586887  80.4037288  79.3459675 110.8368511  79.3186048  69.7759843
 111.6584205  79.4884361  69.5341538 110.3738162  79.4733309  69.0526140
 110.8899673  79.3667781  69.6331487 109.4263843  77.3128810  80.5558272
 109.9708256  76.9719937  81.1462613 109.4800779  78.1714272  80.6979556
 109.5152962  77.3884069  80.6640145 105.2394402  91.0745226  77.4297079
 105.8439259  91.0341060  76.8010900 105.0321714  91.9216378  77.4601135
 105.2983299  91.1933229  77.3413196 115.0538174  93.3411171  78.6459317
 115.8736548  93.1974137  78.9075612 114.7732252  93.9657370  79.1875755
 115.1334917  93.4121523  78.7647256 100.4745684  90.0579844  77.2996003
 100.3769962  89.2476115  77.6086059 101.2574554  90.0371637  76.9142271
 100.5761821  89.9346934  77.2882866 124.7251509 100.0851674  76.3655124
 123.8689405 100.2460172  76.4164240 124.7719163  99.2143738  76.3860185
 124.6050621  99.9802476  76.3761190 119.1092649 109.6214392  72.1292355
 118.3575548 109.2429930  71.9008400 119.5578661 109.6532826  71.3811166
 119.0642316 109.5699999  71.9849857 120.6877405 109.6332784  74.3955128
 120.7887768 108.8233138  74.7052255 120.0919150 109.5389730  73.7654806
 120.6149944 109.4997812  74.3481366 113.8842449 105.6553071  74.0207461
 113.6492634 104.8220723  73.9139730 114.0228090 105.9357736  73.2068662
 113.8698112 105.5736574  73.8849816 116.1832537  97.8238801  76.9191769
 115.5637568  97.2331448  76.7501784 116.0816400  98.4150236  76.2856092
 116.0770212  97.8242884  76.7996759 121.2298724 107.5622348  71.1689845
 121.5514565 108.1027555  70.5651154 121.8770821 106.9919119  71.3012135
 121.3724779 107.5581523  71.0996881 123.2800432  99.5638343  71.2524232
 123.9780597  99.7426471  71.7445695 123.5952765  99.0408682  70.6294622
 123.4295770  99.5132115  71.2326242 115.9101670 101.3691083  79.1635338
 115.7860367 101.9553528  79.7985157 116.5619954 100.8751279  79.4647613
 115.9875319 101.3829887  79.3021267 123.4688368 105.9508788  71.2404024
 123.9082003 105.3425889  71.6858796 123.3193031 105.5716161  70.4689489
 123.5109833 105.8047259  71.1923191 120.9360011 104.5452800  78.4422849
 121.5809013 104.0525243  78.1233798 121.1761788 104.6877586  79.2688927
 121.0670596 104.4930242  78.5172382 123.4746102 107.3907706  78.0929742
 123.7569345 106.5959111  77.8716498 124.2032263 107.8688293  78.1134803
 123.6235666 107.3442303  78.0632757 121.4527296  94.9330740  75.3345507
 121.1230626  95.3841883  74.6649206 120.7772298  94.8546903  75.8818513
 121.3037732  94.9881875  75.3168730 119.8915745 104.8183980  68.4939996
 119.3072961 105.3234012  68.9005860 119.4885841 104.5926367  67.7536588
 119.7455049 104.8592229  68.4445021 115.4459774 110.5338741  75.2963668
 114.9627352 111.2589231  75.2723251 116.2583092 110.8314871  75.4073825
 115.4950522 110.6841095  75.3090947 121.5173928 109.3270922  77.9013482
 121.0000870 108.9678337  77.2974790 122.2148319 108.8033097  77.9119548
 121.5439509 109.1968610  77.8143741 122.7407980 109.0596896  82.8447317
 122.1778815 108.6469506  83.3686978 123.5029003 108.9849802  83.2640461
 122.7702428 108.9874297  82.9840318 124.3492960 101.0649632  66.9708917
 124.5888963 101.2727616  66.1584260 124.6708801 100.2607141  67.0797861
 124.4330118 100.9763734  66.8669470 119.6583250  92.9943028  70.8168455
 120.4129218  93.3621345  70.5785505 119.4810785  93.3682582  71.5847634
 119.7437728  93.1041216  70.8953343 118.3003971 111.0494917  75.4483947
 119.0024551 110.5346906  75.5056704 118.2201454 111.3769069  76.2530822
 118.3927732 111.0209144  75.5756740 119.3482878 101.2870504  84.5764362
 119.5203382 101.1776399  85.4249644 119.8852235 101.9324910  84.3395555
 119.4527882 101.3662506  84.6669459 118.0140315  95.4013347  67.5146568
 117.8315888  95.6185228  66.6887560 118.8765928  95.5152360  67.5705182
 118.1144904  95.4503245  67.4001055 117.6254747 107.2401269  74.9569555
 118.4643646 107.4724202  75.0043317 117.6566516 106.3705581  74.8876591
 117.7536464 107.1458216  74.9534200 118.2507450 107.6602144  79.2582861
 118.7905675 107.5173276  79.9286233 117.5677396 108.0598895  79.6266887
 118.2299604 107.6981815  79.4117283 123.6940034  92.4039758  70.5495591
 124.4226194  92.2255713  70.1033748 123.7834927  93.2457838  70.7602769
 123.8146696  92.5023636  70.5149109 113.6544595 103.8802435  79.4117282
 113.3883010 103.0641552  79.5708273 113.6683159 103.9255591  78.5412798
 113.6169317 103.7659340  79.3070764 117.5602342  98.6787520  66.0269041
 116.8460519  98.3925699  66.4391473 118.0446310  99.0184146  66.6675428
 117.5261705  98.6869169  66.1824675 118.4043201  97.4180814  82.0584290
 117.7114998  96.9477793  82.3045022 119.0203528  97.1919118  82.6325997
 118.3927731  97.3147945  82.1793443 124.7349660 107.1817474  66.4030849
 125.1500808 106.8502498  65.7115345 123.9041589 106.9486376  66.2750985
 124.6737668 107.0988730  66.2821696 114.0638008 104.6661215  76.6929027
 113.8813582 104.6408101  75.8401319 114.7987677 105.1360153  76.7317935
 114.1452072 104.7322577  76.5726945 117.1283760 101.3846218  83.2011135
 117.8523732 101.3699248  83.6876030 117.2299897 102.0941573  82.7033104
 117.2501969 101.4870921  83.1989922 124.5028709 104.8645302  88.0660082
 123.7101690 105.1788814  88.2512702 124.6177637 105.0796771  87.2280867
 124.4024120 104.9429139  87.9698417 114.0308919 101.5454715  76.8428093
 114.6082421 101.4091166  77.4820339 113.3322980 101.0890500  77.0973678
 114.0129940 101.4576982  76.9750383 120.7876221 103.1988771  75.0566577
 120.5295465 102.3660506  75.0297876 120.8424704 103.4246384  74.2159077
 120.7575999 103.1086542  74.9286713 119.7610933 100.7526533  75.5431471
 119.1860524 100.9118702  76.1795432 119.3846609 100.1161943  75.0799922
 119.6213745 100.6824346  75.5686030 123.4284222  99.2249883  80.4023850
 123.0398654  98.8004101  79.7476041 122.7638920  99.4732032  80.9100876
 123.2731149  99.1988604  80.3811718 109.5067752 100.3966608  73.5575912
 109.5928004 100.0198477  74.3389442 110.1343549 100.0227054  73.0795870
 109.6124303 100.2852090  73.6021389 124.5323160 103.4548487  68.6000657
 125.3463799 103.7463380  68.4883428 124.4682301 102.8008350  68.0258950
 124.6425899 103.4013682  68.4989494 120.4031068 106.9270005  73.7272969
 121.0405015 106.6881752  74.2724762 120.8286140 107.1307164  72.9926129
 120.5607234 106.9221015  73.6990126 115.0943711 109.1658341  77.6107273
 115.1347856 109.4373192  76.7827052 115.6538235 109.6900249  78.0265060
 115.1827057 109.2834096  77.5499161 121.0433883 102.1472295  68.0647858
 121.4279036 101.9280001  68.8164403 120.7945504 102.9735240  68.1948935
 121.0635956 102.2370441  68.1948935 121.2102424  95.4278710  87.7810442
 120.8955865  96.1978273  87.5180005 120.8892356  94.8648966  87.1962669
 121.1161343  95.4588978  87.6551792 122.7852540 107.4042427  75.4066755
 122.8591548 107.2417599  76.2608605 123.6022047 107.5932617  75.1627237
 122.9168899 107.4079170  75.4964781 116.5458297 107.7500290  72.4361199
 115.7196415 107.9962027  72.3095477 116.6070288 107.6712371  73.3023257
 116.4332464 107.7745239  72.5450143 118.7634321  93.8169231  73.3956639
 117.8956746  93.8891831  73.4614248 119.0509525  94.6191310  73.5844614
 118.6774069  93.9463378  73.4331405 121.9151871 105.1694916  81.2233359
 121.4163565 105.8810684  81.3018247 122.7252095 105.4895583  81.1851521
 121.9607978 105.3221765  81.2289927 118.1779989 104.4317869  75.4696080
 117.8893237 103.8055341  76.0041807 119.0463337 104.3738157  75.5360760
 118.2640241 104.3305414  75.5587034 118.3812262 106.0713120  71.3938445
 119.1358230 106.4526160  71.6073907 117.7882875 106.5224264  71.8485141
 118.4048976 106.1941948  71.4921323 120.8418929  98.0275961  86.5195657
 120.0318705  98.3333741  86.4085499 121.3193616  98.7481543  86.6348241
 120.7922408  98.1790562  86.5202728 119.7010489 107.2421682  76.7678560
 119.1791242 107.3821974  77.4530425 120.0884509 106.4832346  76.9580678
 119.6814190 107.1507206  76.8979637 116.6901673  97.2927491  70.8373515
 116.4026468  96.9228761  70.1005462 117.3772141  97.7622346  70.5757220
 116.7490570  97.3074460  70.6888591 121.1276814 104.2725701  72.1660051
 120.9319597 104.8800435  71.5720354 121.3511160 103.5793645  71.6851725
 121.1311455 104.2603226  72.0076132 119.5255344 101.1580439  72.2840920
 120.2477996 101.3221597  71.8244726 119.0463337 101.8790104  72.1780259
 119.5619075 101.2878668  72.2006534 117.1762961 103.5638511  81.3895059
 117.6884058 103.8422764  80.7403819 116.8899304 104.3027805  81.7557873
 117.2097824 103.7140865  81.3484938 114.2629867  98.0708703  71.6858796
 114.3646004  98.8734864  72.0139771 115.0585754  97.8696039  71.3881877
 114.3957773  98.1594602  71.6894151 120.6946686  95.6564900  81.4496101
 120.5029883  95.6720034  82.2995525 121.5445282  95.8528574  81.4262756
 120.7922408  95.6879251  81.5719396 115.0793599  98.1855881  79.4279918
 114.9379091  97.3339822  79.5524426 115.3634163  98.2284542  78.6042124
 115.1001445  98.0655631  79.3247542 125.2332192 100.0222971  73.5724406
 124.9866906  99.9418722  74.4061195 125.5617315  99.2376439  73.3786933
 125.2453435  99.8949237  73.6671929 121.1929219 102.7579690  82.9847389
 121.3372595 103.3380898  82.3490499 121.5404868 103.1355987  83.6897244
 121.2656680 102.9000394  82.9946384 123.3649136 101.9569858  80.7672521
 122.6172450 102.1500873  80.3620799 123.5190662 101.1315078  80.5296642
 123.2771564 101.8634970  80.6717926 123.6050913  95.8520409  81.6567924
 124.0623528  96.5844383  81.7840716 123.6807242  95.4286874  82.4155180
 123.6841883  95.8977647  81.7869001 115.8483905  96.0986229  82.7457368
 115.3126094  95.4866587  83.0618135 115.9101669  96.6734365  83.3991035
 115.7779537  96.0933157  82.8892795 121.4833291  97.8422513  78.5009748
 120.6929366  97.6613973  78.8227084 121.8793914  97.0649466  78.4840043
 121.4250168  97.7009974  78.5462297 123.9971122 100.3182772  82.9833247
 123.9330263 101.1792729  82.8553384 124.1368309 100.0014765  82.1828798
 124.0086592 100.3982939  82.8461460 122.6790216 103.0114912  77.1249450
 122.2552465 103.2119411  76.3888468 122.5035071 102.1643759  77.2373750
 122.5901096 102.9163693  77.0323140 117.9672660 103.5066963  72.5577423
 118.1237280 103.4413766  73.4133415 118.3073254 104.2815516  72.3456102
 118.0405895 103.6116161  72.6532017 124.5051805 102.8824847  71.4270786
 125.0467351 102.3795228  71.8909406 124.8198364 102.8290041  70.6160271
 124.6316202 102.8004267  71.3754598 122.6738255 108.2742198  68.7110814
 122.7431075 107.4156737  68.8503814 123.4526710 108.4914079  68.3829838
 122.7991105 108.1795062  68.6827971 114.5406922 100.6901913  72.8738190
 114.9205887 101.1086458  72.2098457 113.9662287 101.2715369  73.1807033
 114.5118247 100.8379772  72.8214931 125.0455803  90.8861087  76.4680429
 124.1749361  90.8599808  76.4213739 125.2996144  90.7138279  75.6506275
 124.9549363  90.8571230  76.3400566 122.0173783 102.9429054  65.4053572
 122.3066307 103.7193936  65.6797146 122.1045581 102.4317785  66.1068071
 122.0728039 102.9820972  65.5496070 124.9133670 100.7910288  87.2005096
 125.3833301 101.4152404  87.5872970 124.9595550 100.1227263  87.7598310
 124.9901546 100.7844968  87.3405167 122.0704944  92.8967315  77.9253899
 121.5543432  92.2047507  78.0505478 121.5098872  93.5638092  77.8716498
 121.9111457  92.8930573  77.9359965 124.1397177  93.4360275  79.7546752
 123.7528930  93.4609307  80.5360282 123.6530114  92.8701954  79.3021269
 124.0109686  93.3556026  79.8034656 123.8054319  90.3227261  82.0457012
 124.4347437  90.8587561  81.7678082 123.9740182  90.2304620  82.8970578
 123.9232113  90.3888623  82.1305540 123.6068234  95.1098455  84.3183424
 124.4341663  94.8383604  84.3742038 123.6276080  95.9059297  84.6747242
 123.7321084  95.1878210  84.3798606 118.1837724 102.2562318  77.5053684
 117.3425730 102.1566192  77.7132578 118.3927731 103.0257798  77.8568005
 118.0902416 102.3554362  77.5880999 115.6613290  99.8781855  75.3338435
 115.2669988  99.9524867  74.5588544 115.1053407 100.2639801  75.8846797
 115.5216103  99.9463630  75.3006095 121.9954388 100.1843717  76.7551282
 121.6917526  99.6299706  77.3561689 121.2933809 100.3635927  76.2679316
 121.8470598 100.1288500  76.7720987 121.0520485  97.4944237  71.3195984
 121.3280220  96.7763150  70.9073551 121.6519155  98.0929157  71.1117090
 121.1813750  97.4764608  71.2276745 120.0572739 107.3993438  81.4623379
 119.9493094 107.4095500  82.3285438 120.2668521 108.2248218  81.2728333
 120.0722850 107.5234513  81.5627471 124.5531006  95.1657755  69.5942579
 125.0074753  95.3368315  70.3190423 125.0271052  94.5525865  69.1940354
 124.6899326  95.1008640  69.6416340 118.0746531 104.6506080  78.9245317
 117.4834465 105.2915579  78.8948332 118.8367555 105.0743698  78.8976617
 118.0994792 104.8081919  78.9160464 118.4707154  95.8108078  79.5913335
 118.9308636  95.8847008  80.3288458 118.5163261  96.6089332  79.2413156
 118.5457710  95.9402225  79.6486091 120.1190504  96.4774773  84.1585362
 119.7276069  95.8308120  84.5941140 120.2876367  97.0686208  84.7779617
 120.0861414  96.4689041  84.3148068 121.8944026 101.8700289  70.6987586
 122.6386071 102.2574565  70.9370536 122.0404722 101.0257714  70.8628074
 122.0254611 101.8030762  70.7581556 123.8123601  93.6650548  75.7319447
 122.9659647  93.8373356  75.6060797 123.8094734  92.8599892  76.0685276
 123.6870751  93.5711577  75.7630574 124.8821902  97.4425762  76.5981505
 124.4081856  96.9167524  77.1086816 125.2540038  96.8955235  76.0296367
 124.8671791  97.2841759  76.5896652 115.2594932  99.4397269  81.9665051
 116.1220545  99.3392978  81.8802381 114.9286715  98.8591978  81.4050623
 115.3380128  99.3388896  81.8710457 118.6196718  98.2639718  78.6275469
 117.9949788  98.2758110  78.0201422 118.2842313  98.7399893  79.2766709
 118.4782210  98.3358235  78.6332038 118.8038467  96.6064836  64.6848154
 118.4551271  97.2584562  65.1479703 118.3234912  96.5921949  63.9572025
 118.6808711  96.7007890  64.6459245 115.3322393 106.3240178  80.0679233
 114.8022318 105.6332617  80.1174208 115.6047487 106.3150363  79.2391942
 115.2947116 106.2207310  79.9526649 124.7724936 104.8367693  77.7761904
 124.3452544 104.2117411  77.3427339 124.7649881 104.5542615  78.6020911
 124.7084077 104.7020473  77.8341731 117.8887463  99.8732866  80.8450338
 118.0480950  99.1176190  81.2502060 117.7080357 100.4223805  81.4991075
 117.8852822  99.8426679  81.0013044 123.1010646  95.7136447  77.9904438
 123.1253133  95.1796559  77.3017218 123.3522120  95.2053756  78.6530028
 123.1420565  95.5597351  77.9869082 110.6118236 102.9967942  77.4247582
 110.5061685 102.9514786  76.5599666 109.8618456 103.3421723  77.7061867
 110.4853839 103.0408850  77.3384911 119.3811968  94.4407265  77.3710182
 119.4210340  94.9416472  78.0844889 118.5561633  94.5317659  77.1016105
 119.2651494  94.5289082  77.4360720 121.5641581 104.0068005  85.4730476
 120.7137212 104.1439720  85.6088121 121.7269709 103.2731784  85.9178178
 121.4625445 103.9182107  85.5586076 120.8026332 100.9567775  79.6684081
 119.9718261 101.1241593  79.4619329 120.7477849 100.5803726  80.4532966
 120.6715746 100.9257507  79.7532609 118.6110115  94.4476668  85.3040492
 119.2362818  93.9038801  85.5769924 118.1560595  93.9671586  84.7348282
 118.6358375  94.2966149  85.2602085 119.1762375  99.2323367  70.1974199
 119.3165336  99.7295831  70.9002840 119.6744908  98.5309661  70.3388412
 119.2703456  99.2025346  70.3225778 119.2062598 100.0990478  67.5266775
 119.8407677 100.6950903  67.4616237 119.2888209  99.7993935  68.3412646
 119.3119149 100.1431386  67.6369862 120.7841581  96.0304453  67.5012217
 121.1057422  95.5507536  66.8471480 121.0468524  96.8404099  67.3103029
 120.8707606  96.0794351  67.3767710 124.0138553 107.0523328  81.0211034
 123.5063644 107.6059174  81.4651664 123.7165200 107.1131617  80.2029808
 123.8943438 107.1429639  80.9659490 115.7115586 102.2958319  70.7956321
 116.2207815 102.8922826  71.1767627 116.1849858 102.0284292  70.1132741
 115.8558961 102.3444134  70.7510844 124.6194958  91.8891747  73.2726274
 123.9763276  91.7389393  73.8411412 124.2794365  91.6434092  72.5075378
 124.4740036  91.8303869  73.2429289 118.0706117  98.9314577  73.6629502
 117.3518106  99.3478710  73.9302365 118.4418480  99.4968816  73.1121140
 118.0198049  99.0763859  73.6212309 123.8452692  97.9712577  69.0002881
 123.2517531  98.2929574  68.4487448 123.8827969  97.1253672  68.7923987
 123.7627081  97.8936905  68.8885653 121.0029737  99.7826555  82.0329732
 120.4908640  99.1747738  82.3914763 120.8309233 100.4983147  82.5003708
 120.9019374  99.7989854  82.1545955 115.8495451  98.2264130  84.6832094
 115.6798042  98.8865505  84.1380300 115.4061401  98.4370691  85.4044583
 115.7594785  98.3550112  84.7093723 119.7755271  96.4668628  73.7258827
 120.2512637  96.8285708  73.0909008 119.2743870  97.1225095  74.0058970
 119.7720630  96.6162817  73.6735568 124.8798807  97.7050799  84.4731987
 125.4370237  97.4764609  83.8410453 124.5559872  98.4656465  84.1967200
 124.9145217  97.7834636  84.3388484 112.7497516 101.1310995  79.9420583
 112.2024235 100.4611641  80.0601452 113.5389894 100.7640843  80.0064051
 112.7849700 100.9775982  79.9689284 122.5981924 100.7918453  85.4383994
 123.3493251 101.1070129  85.7523549 122.7904501 100.5897623  84.6117916
 122.7373339 100.8085834  85.3627390 121.8181924  98.6109828  67.0932211
 122.1980889  98.6289457  66.3083326 121.0774520  99.0563816  66.9723059
 121.7650762  98.6791602  66.9595779 111.5084485 100.3431803  77.0966606
 111.3306247  99.8908412  77.8221522 111.2203508 101.1457965  77.2805084
 111.4397439 100.3954361  77.2310109 122.6166678 105.4487334  68.4841001
 121.8078001 105.1254007  68.4374311 123.1241587 104.7420556  68.4169250
 122.5716345 105.2968650  68.4671296 113.2456955 102.8759527  74.2088366
 112.3802475 102.8645217  74.0971137 113.3455771 102.6889750  75.0559505
 113.1331122 102.8465588  74.3177310 122.7407980  92.8354943  82.3080378
 122.8735885  92.0385936  82.6361353 123.1253133  93.3621346  82.8878653
 122.8164309  92.7954860  82.4423881 125.8140335  89.7585269  78.9061471
 125.0086299  89.6482999  79.2229309 125.6847070  89.8597725  78.0491337
 125.6760468  89.7568939  78.8269511 121.8101095  94.8371356  69.7759843
 122.6316789  95.0069669  69.5341538 121.3470746  94.9918617  69.0526140
 121.8632257  94.8853089  69.6331487 120.3996427  92.8314118  80.5558272
 120.9440840  92.4905245  81.1462613 120.4533362  93.6899580  80.6979556
 120.4885546  92.9069377  80.6640145 116.2126985 106.5930534  77.4297079
 116.8171843 106.5526368  76.8010900 116.0054298 107.4401686  77.4601135
 116.2715883 106.7118537  77.3413196 111.4478268 105.5765152  77.2996003
 111.3502546 104.7661423  77.6086059 112.2307137 105.5556945  76.9142271
 111.5494404 105.4532242  77.2882866  52.9647971  -6.5519325  59.0632402
  52.2130871  -6.9303786  58.8348447  53.4133983  -6.5200891  58.3151212
  52.9197638  -6.6033717  58.9189904  57.9577222  -4.1779686  60.4329061
  58.3416602  -3.6092788  59.8933836  57.8936364  -4.9030176  59.9534877
  58.0050650  -4.2004223  60.2822923  54.3833467  -1.6223343  62.7310031
  55.0270923  -1.1810179  63.1206189  54.7089723  -2.4269917  62.6440289
  54.5265296  -1.6758148  62.7755508  49.3015096  -5.6394975  62.2303714
  48.8182675  -4.9144485  62.2063298  50.1138415  -5.3418845  62.3413872
  49.3505844  -5.4892621  62.2430994  52.1559294  -5.1238799  62.3823994
  52.8579873  -5.6386810  62.4396751  52.0756777  -4.7964648  63.1870869
  52.2483054  -5.1524573  62.5096786  48.9499033  -7.0075375  64.5447319
  48.9903178  -6.7360524  63.7167099  49.5093557  -6.4833467  64.9605107
  49.0382379  -6.8899620  64.4839208  53.1218364  -3.8289163  60.1380425
  52.9018659  -4.1191809  60.9307092  52.9012886  -4.4874208  59.6098337
  53.0565958  -3.9689455  60.1769334  55.2886320  -2.4559774  58.9211117
  55.9410378  -2.9883331  59.1502143  54.5911928  -2.8091121  59.3078991
  55.2817038  -2.5870251  59.0123285  54.1212296  -5.2251255  66.7848463
  54.2701860  -5.7848339  66.1321867  54.9012299  -5.1459253  67.1680981
  54.2586390  -5.2965689  66.7445412  56.0357231  -1.6468292  66.5210954
  56.5253162  -2.3457503  66.3386619  55.4641464  -1.9444422  67.1087012
  56.0241761  -1.7942068  66.5811995  57.1136361  -4.1885831  64.8608087
  56.8902016  -4.9467001  65.2292114  56.6246204  -4.1587809  64.1388527
  57.0079810  -4.2963606  64.8084828  55.7614818  -3.9685372  62.3145172
  55.3475217  -4.6311242  61.9249014  56.4462192  -3.8207514  61.7940866
  55.8013190  -4.0444714  62.1801669  52.7269288  -3.5276291  64.7158518
  53.0415847  -2.7139902  64.7236300  53.1362701  -3.9126072  65.3840677
  52.8337386  -3.4647588  64.8162610  63.9380555   8.9665983  59.0632402
  63.1863454   8.5881522  58.8348447  64.3866567   8.9984417  58.3151212
  63.8930222   8.9151591  58.9189904  72.8633132   5.6989791  72.9055627
  73.5699899   5.2041822  73.0342561  73.0521067   6.1398873  72.1758285
  72.9961037   5.6908142  72.8164672  69.3905515   9.3891353  54.4917949
  69.0556883  10.0668275  54.0562171  69.9032385   8.9996664  53.9034821
  69.4171096   9.4315931  54.3404741  68.9309806  11.3405622  60.4329061
  69.3149185  11.9092520  59.8933836  68.8668947  10.6155132  59.9534877
  68.9783233  11.3181085  60.2822923  72.3991236   1.4895309  65.9426822
  72.9447196   2.1680396  66.0020792  72.3408113   1.3482770  65.0828404
  72.4707151   1.5687311  65.8238883  65.5165311   8.9784376  61.3295175
  65.6175674   8.1684730  61.6392302  64.9207056   8.8841322  60.6994853
  65.4437850   8.8449404  61.2821413  74.1756305   2.9179917  56.8160550
  74.0595831   3.6687603  57.2452688  74.9712192   2.6603870  57.0656637
  74.2760894   2.9914763  56.9164642  65.3566051  13.8961965  62.7310031
  66.0003506  14.3375129  63.1206189  65.6822306  13.0915391  62.6440289
  65.4997879  13.8427159  62.7755508  58.7130355   5.0004662  60.9547508
  58.4780540   4.1672315  60.8479777  58.8515996   5.2809328  60.1408709
  58.6986018   4.9188166  60.8189863  61.0120443  -2.8309607  63.8531816
  60.3925474  -3.4216960  63.6841831  60.9104306  -2.2398172  63.2196139
  60.9058118  -2.8305525  63.7336805  66.0586630   6.9073940  58.1029892
  66.3802471   7.4479147  57.4991200  66.7058727   6.3370711  58.2352182
  66.2012686   6.9033115  58.0336928  60.7389576   0.7142674  66.0975385
  60.6148273   1.3005120  66.7325204  61.3907860   0.2202870  66.3987660
  60.8163225   0.7281479  66.2361314  68.2976274   5.2960380  58.1744070
  68.7369909   4.6877480  58.6198843  68.1480937   4.9167753  57.4029535
  68.3397740   5.1498851  58.1263238  65.7647917   3.8904391  65.3762896
  66.4096919   3.3976835  65.0573844  66.0049694   4.0329178  66.2028974
  65.8958502   3.8381834  65.4512429  68.3034008   6.7359297  65.0269789
  68.5857251   5.9410703  64.8056544  69.0320169   7.2139885  65.0474850
  68.4523572   6.6893894  64.9972804  71.8985610   3.6487561  55.1274840
  71.8136905   4.5048528  55.2724409  72.3869994   3.3731885  55.7956999
  71.9574508   3.7344882  55.2476921  72.8304044   0.2672355  56.6272575
  72.3015515   0.4831989  57.2869881  73.3529064   0.9608493  56.5473544
  72.8292497   0.4015492  56.7128174  78.2852097   5.8418659  62.0005619
  77.4549800   6.0529303  62.1639036  78.2361349   5.0155714  61.7247903
  78.1558832   5.7508266  61.9842985  64.7203651   4.1635572  55.4280043
  64.1360867   4.6685603  55.8345907  64.3173747   3.9377959  54.6876635
  64.5742955   4.2043820  55.3785068  60.2747680   9.8790333  62.2303714
  59.7915258  10.6040823  62.2063298  61.0870998  10.1766463  62.3413872
  60.3238428  10.0292687  62.2430994  66.3461834   8.6722514  64.8353529
  65.8288776   8.3129929  64.2314837  67.0436225   8.1484688  64.8459595
  66.3727415   8.5420202  64.7483787  70.0025426   9.1217328  70.7969702
  70.0908772   8.9343468  71.6447912  70.4315139   8.4754757  70.3974549
  70.0787528   8.9980335  70.8641453  67.5695886   8.4048488  69.7787364
  67.0066721   7.9921097  70.3027025  68.3316909   8.3301393  70.1980507
  67.5990334   8.3325888  69.9180364  69.1780866   0.4101224  53.9048963
  69.4176870   0.6179208  53.0924306  69.4996707  -0.3941267  54.0137908
  69.2618024   0.3215325  53.8009516  63.1291877  10.3946509  62.3823994
  63.8312457   9.8798498  62.4396751  63.0489360  10.7220660  63.1870869
  63.2215638  10.3660735  62.5096786  64.1770784   0.6322096  71.5104409
  64.3491288   0.5227990  72.3589691  64.7140141   1.2776501  71.2735602
  64.2815788   0.7114097  71.6009506  62.4542653   6.5852861  61.8909602
  63.2931552   6.8175794  61.9383364  62.4854422   5.7157172  61.8216638
  62.5824370   6.4909807  61.8874247  63.0795356   7.0053736  66.1922908
  63.6193581   6.8624867  66.8626280  62.3965302   7.4050487  66.5606934
  63.0587510   7.0433407  66.3457329  72.5036241   2.6844737  61.3867932
  73.2593756   3.1176251  61.4256841  72.6098565   2.0349506  61.9602568
  72.6306411   2.6522221  61.4765958  75.5416412   6.5118014  62.1370335
  75.1051644   6.5154756  62.8929307  75.2079327   7.1923513  61.7049913
  75.4279032   6.6130470  62.1851168  70.1145485   8.5526347  73.4613485
  70.8985902   8.6657195  73.8269228  69.9142080   7.7267484  73.6572171
  70.2011511   8.4473066  73.5447871  58.4832501   3.2254027  66.3457329
  58.2170916   2.4093144  66.5048320  58.4971065   3.2707182  65.4752845
  58.4457223   3.1110932  66.2410811  62.3890248  -1.9760889  52.9609087
  61.6748425  -2.2622709  53.3731520  62.8734216  -1.6364263  53.6015475
  62.3549611  -1.9679239  53.1164722  70.2715879  10.4636449  67.1079941
  69.4731124  10.2235949  67.3653810  70.7201890  10.5150842  67.8546989
  70.2190490  10.4358840  67.2564865  78.6760758   3.2298934  61.0289972
  79.3377192   2.6689602  60.9285881  78.0352170   2.7350965  61.3542663
  78.6789625   3.0735343  61.0622313  69.5637566   6.5269065  53.3370896
  69.9788714   6.1954089  52.6455391  68.7329495   6.2937967  53.2091032
  69.5025574   6.4440321  53.2161743  58.8925914   4.0112806  63.6269074
  58.7101488   3.9859692  62.7741366  59.6275583   4.4811744  63.6657982
  58.9739978   4.0774168  63.5066992  74.9625589   4.2464316  60.7701961
  75.1981178   4.3909515  59.9428812  75.1115152   5.0106724  61.1633475
  75.0191392   4.3803371  60.7065565  61.9571666   0.7297809  70.1351182
  62.6811638   0.7150840  70.6216077  62.0587803   1.4393164  69.6373150
  62.0789875   0.8322512  70.1329969  76.7916045   3.0865982  58.6071565
  77.1224262   3.6193622  58.0011660  77.3649133   3.1404870  59.2633516
  76.9249725   3.1735551  58.6149347  69.3316616   4.2096894  75.0000129
  68.5389596   4.5240406  75.1852749  69.4465543   4.4248362  74.1620914
  69.2312026   4.2880730  74.9038464  72.0047934   0.9330885  59.2895145
  72.0994789   1.6720179  59.7434771  71.3806778   0.5048360  59.7229710
  71.9256965   0.9792205  59.4203293  70.2600408   4.1117097  69.9385426
  70.8339270   3.4744342  70.0933990  70.1815212   4.1121180  69.0695084
  70.3333643   4.0182209  69.8331837  58.8596825   0.8906307  63.7768140
  59.4370327   0.7542758  64.4160385  58.1610887   0.4342091  64.0313724
  58.8417846   0.8028573  63.9090430  72.2570956   2.7779625  52.5232097
  72.1751118   2.8481812  53.3887084  72.8950676   3.3409369  52.3315838
  72.3390793   2.8718596  52.6222047  65.6164127   2.5440363  61.9906623
  65.3583371   1.7112097  61.9637923  65.6712610   2.7697976  61.1499124
  65.5863905   2.4538134  61.8626760  64.5898839   0.0978125  62.4771518
  64.0148430   0.2570293  63.1135479  64.2134515  -0.5386466  62.0139969
  64.4501651   0.0275938  62.5026077  54.3355658  -0.2581800  60.4915959
  54.4215910  -0.6349932  61.2729489  54.9631455  -0.6321355  60.0135917
  54.4412209  -0.3696318  60.5361436  69.3611066   2.8000079  55.5340704
  70.1751705   3.0914972  55.4223475  69.2970207   2.1459941  54.9598996
  69.4713805   2.7465274  55.4329541  75.5820556   5.4826075  69.9470279
  75.3459194   4.6514140  69.8282340  76.2263785   5.4311682  70.5325123
  75.6415227   5.3523763  70.0156173  65.2318974   6.2721596  60.6613016
  65.8692921   6.0333344  61.2064809  65.6574046   6.4758755  59.9266176
  65.3895141   6.2672607  60.6330173  59.9231617   8.5109933  64.5447319
  59.9635762   8.7824784  63.7167099  60.4826141   9.0351841  64.9605107
  60.0114963   8.6285688  64.4839208  65.8721789   1.4923886  54.9987905
  66.2566942   1.2731593  55.7504450  65.6233410   2.3186832  55.1288981
  65.8923862   1.5822032  55.1288981  76.6056977   5.2670524  66.0098574
  76.3002794   5.9998581  66.3711889  75.8863192   4.8608453  65.7291360
  76.4544319   5.3152257  66.0211711  67.6140446   6.7494019  62.3406802
  67.6879454   6.5869191  63.1948652  68.4309953   6.9384209  62.0967283
  67.7456805   6.7530761  62.4304827  61.3746203   7.0951882  59.3701245
  60.5484321   7.3413619  59.2435524  61.4358194   7.0163963  60.2363303
  61.2620370   7.1196831  59.4790190  66.1545032   9.7128762  57.0720275
  66.4443330   9.3217743  56.3479502  66.8848513   9.8945467  57.5125551
  66.3051916   9.6822576  57.0303082  66.7439777   4.5146508  68.1573406
  66.2451471   5.2262276  68.2358294  67.5540001   4.8347175  68.1191568
  66.7895884   4.6673357  68.1629974  64.0950948  11.6896144  60.1380425
  63.8751243  11.3993499  60.9307092  63.8745470  11.0311100  59.6098337
  64.0298542  11.5495853  60.1769334  63.0067895   3.7769461  62.4036127
  62.7181143   3.1506932  62.9381854  63.8751243   3.7189748  62.4700807
  63.0928147   3.6757005  62.4927081  66.2618903  13.0625534  58.9211117
  66.9142961  12.5301977  59.1502143  65.5644512  12.7094187  59.3078991
  66.2549621  12.9315057  59.0123285  63.2100168   5.4164712  58.3278492
  63.9646136   5.7977751  58.5413954  62.6170781   5.8675856  58.7825188
  63.2336882   5.5393539  58.4261370  74.2558822   5.3829948  58.2642097
  74.8216854   6.0423158  58.1800640  73.6086725   5.7279647  58.7358499
  74.2437578   5.5311890  58.3214853  64.5298395   6.5873273  63.7018607
  64.0079148   6.7273565  64.3870472  64.9172415   5.8283938  63.8920724
  64.5102096   6.4958797  63.8319684  61.5189579  -3.3620918  57.7713562
  61.2314374  -3.7319647  57.0345509  62.2060047  -2.8926063  57.5097267
  61.5778476  -3.3473949  57.6228637  70.7265400   8.3268733  57.6879176
  70.4852076   7.5936593  57.2806241  70.9066733   8.8755590  57.0345509
  70.7173024   8.2991124  57.5309399  65.9564720   3.6177292  59.1000098
  65.7607503   4.2252027  58.5060401  66.1799066   2.9245236  58.6191772
  65.9599361   3.6054818  58.9416179  64.3543250   0.5032030  59.2180966
  65.0765902   0.6673188  58.7584772  63.8751243   1.2241695  59.1120306
  64.3906981   0.6330260  59.1346580  62.0050867   2.9090103  68.3235106
  62.5171964   3.1874356  67.6743866  61.7187210   3.6479397  68.6897919
  62.0385730   3.0592456  68.2824984  76.1894282   2.0463816  61.8838893
  76.1028256   2.2019242  62.7373672  75.7344762   2.6901891  61.5098298
  76.1097538   2.1639571  61.9546000  59.0917773  -2.5839705  58.6198843
  59.1933910  -1.7813544  58.9479818  59.8873660  -2.7852370  58.3221923
  59.2245679  -2.4953807  58.6234198  59.9081505  -2.4692527  66.3619964
  59.7666997  -3.3208587  66.4864472  60.1922069  -2.4263867  65.5382170
  59.9289352  -2.5892777  66.2587588  73.9568147   6.0757922  64.2951234
  73.8182506   6.7738968  64.7999976  73.1768145   5.9206579  63.9387416
  73.8211373   6.1558089  64.3177508  72.2946232   2.3754298  70.5473616
  72.2894270   1.5034114  70.5516042  73.0007226   2.5742467  70.0743071
  72.3991236   2.2758172  70.4780651  66.0217125   2.1031282  69.9187436
  66.1660501   2.6832490  69.2830546  66.3692774   2.4807578  70.6237290
  66.0944586   2.2451986  69.9286431  68.1937042   1.3021450  67.7012567
  67.4460356   1.4952464  67.2960845  68.3478568   0.4766670  67.4636689
  68.1059470   1.2086561  67.6057973  65.0944880  10.2934053  66.7848463
  65.2434444   9.7336969  66.1321867  65.8744882  10.3726055  67.1680981
  65.2318974  10.2219619  66.7445412  75.4521519   5.4336176  55.0567733
  75.0728328   4.6473314  55.0497022  74.7887765   5.9823033  54.9139377
  75.2979994   5.3981000  55.0348530  67.6198181  10.4648696  68.0632953
  67.5441852   9.7957507  68.6183742  67.5488040  11.1666484  68.5773620
  67.5978788  10.4693604  68.2209802  68.2768428   8.9849695  58.8956559
  69.0418319   8.7159339  58.5739224  68.1746518   8.4999706  59.6126622
  68.3749923   8.8739260  58.9536387  70.7987088   6.0161879  50.8756509
  71.5660073   6.0762004  50.4662360  70.3518397   5.4442320  50.3912827
  70.8460515   5.9398455  50.7434219  71.6964884   4.8216535  63.1609241
  71.0209885   4.5901767  63.6622628  71.7057260   4.2137718  62.5351346
  71.5983388   4.6975460  63.1425393  68.8259028  -0.3365636  69.9173294
  68.7618169   0.5244320  69.7893431  68.9656215  -0.6533643  69.1168845
  68.8374498  -0.2565470  69.7801507  73.6981618   7.6781667  55.3919419
  73.7801456   8.4848653  55.0680870  74.1831360   7.6977626  56.1160192
  73.7818776   7.8002330  55.4506318  67.5078122   2.3566503  64.0589497
  67.0840371   2.5571002  63.3228515  67.3322977   1.5095351  64.1713797
  67.4189002   2.2615285  63.9663187  67.0089815  13.8717016  66.5210954
  67.4985745  13.1727805  66.3386619  66.4374047  13.5740886  67.1087012
  66.9974345  13.7243240  66.5811995  62.7960567   2.8518555  59.4917469
  62.9525186   2.7865357  60.3473461  63.1361160   3.6267107  59.2796149
  62.8693801   2.9567753  59.5872064  69.3339711   2.2276438  58.3610833
  69.8755257   1.7246819  58.8249453  69.6486270   2.1741633  57.5500318
  69.4604108   2.1455859  58.3094645  73.2056819   6.4379085  75.4737745
  74.0191684   6.1664234  75.6342877  73.0451785   6.1386625  74.6697941
  73.3026767   6.3534011  75.3783151  67.5026161   7.6193790  55.6450861
  67.5718981   6.7608328  55.7843861  68.2814616   7.8365670  55.3169885
  67.6279011   7.5246654  55.6168018  71.8933648  10.0431491  59.8587354
  71.5013440   9.7398206  59.1410220  72.0486721  10.8800581  59.6692308
  71.8587238  10.1215328  59.7243851  59.3694828   0.0353505  59.8078237
  59.7493793   0.4538050  59.1438504  58.7950193   0.6166961  60.1147080
  59.3406153   0.1831364  59.7554978  72.0573323   6.6081480  59.7993385
  71.6987978   6.7796123  60.5757417  71.5712034   7.0694685  59.2421383
  71.9332020   6.7020451  59.8318654  66.8461689   2.2880645  52.3393619
  67.1354213   3.0645528  52.6137193  66.9333487   1.7769377  53.0408118
  66.9015945   2.3272564  52.4836117  69.7421576   0.1361879  74.1345143
  70.2121207   0.7603996  74.5213017  69.7883456  -0.5321145  74.6938357
  69.8189452   0.1296559  74.2745214  73.2178063   7.4985376  70.7460585
  73.8557783   7.0045571  70.4123041  72.5752154   7.4262776  70.1612812
  73.2172289   7.4144384  70.6102940  73.2732319   8.1905184  67.3865942
  74.0624697   7.8394249  67.5068024  73.4475917   9.0041572  67.1242576
  73.4152601   8.2591041  67.3653810  63.0125630   1.6013910  64.4393731
  62.1713636   1.5017784  64.6472625  63.2215638   2.3709390  64.7908052
  62.9190322   1.7005953  64.5221046  60.4901197  -0.7766553  62.2678482
  60.0957894  -0.7023542  61.4928591  59.9341313  -0.3908607  62.8186843
  60.3504009  -0.7084779  62.2346141  66.8242294  -0.4704691  63.6891329
  66.5205432  -1.0248703  64.2901736  66.1221715  -0.2912481  63.2019363
  66.6758504  -0.5259909  63.7061034  64.8860645   6.7445030  68.3963426
  64.7781000   6.7547092  69.2625484  65.0956427   7.5699810  68.2068380
  64.9010757   6.8686104  68.4967518  62.9034437   3.9957672  65.8585364
  62.3122371   4.6367170  65.8288379  63.6655461   4.4195289  65.8316663
  62.9282698   4.1533510  65.8500511  79.0224859   3.8263442  66.8562642
  79.0807983   4.2750090  67.6022619  78.3891327   4.2362255  66.4192722
  78.9376154   3.9537176  66.9015190  72.6623954   9.4466984  63.2917388
  72.4643642   9.9357798  62.5973600  72.0411665   9.6508225  63.8701522
  72.5411518   9.5483522  63.2740612  66.7231932   1.2151880  57.6327633
  67.4673977   1.6026157  57.8710583  66.8692628   0.3709306  57.7968120
  66.8542517   1.1482353  57.6921602  60.0882838  -1.2151140  68.9005098
  60.9508451  -1.3155430  68.8142428  59.7574621  -1.7956430  68.3390670
  60.1668034  -1.3159513  68.8050504  74.5797756   3.0131136  68.8262637
  75.3031954   2.5603662  68.6473657  74.3147718   3.2935802  68.0434965
  74.6479029   2.9882104  68.6841352  63.4484624  -2.3908691  65.5615516
  62.8237694  -2.3790299  64.9541469  63.1130219  -1.9148515  66.2106756
  63.3070116  -2.3190174  65.5672084  60.1610300   5.6691770  67.0019280
  59.6310224   4.9784208  67.0514255  60.4335393   5.6601955  66.1731989
  60.1235022   5.5658901  66.8866696  71.1930390   6.2517472  55.7256963
  71.9164589   6.7175585  55.5821536  70.7530981   6.3191082  54.9754560
  71.2346082   6.3301309  55.5941744  70.3616545   3.1115014  66.9757652
  69.7473538   2.5673064  67.2706287  70.8783830   2.5979251  66.4963468
  70.3472208   2.9551423  66.9481880  69.6012842   4.1819284  64.7101950
  69.1740450   3.5569003  64.2767386  69.5937787   3.8994206  65.5360958
  69.5371983   4.0472065  64.7681778  62.7175369  -0.7815543  67.7790384
  62.8768856  -1.5372219  68.1842106  62.5368263  -0.2324603  68.4331122
  62.7140728  -0.8121729  67.9353090  55.4406142   2.3419534  64.3587629
  55.3349591   2.2966378  63.4939713  54.6906362   2.6873314  64.6401913
  55.3141745   2.3860442  64.2724958  66.3929487   3.3519597  72.4070523
  65.5425118   3.4891311  72.5428168  66.5557615   2.6183375  72.8518225
  66.2913351   3.2633698  72.4926123  65.6314238   0.3019367  66.6024128
  64.8006167   0.4693185  66.3959376  65.5765755  -0.0744682  67.3873013
  65.5003652   0.2709098  66.6872656  64.0050281  -1.4225042  57.1314245
  64.1453242  -0.9252577  57.8342887  64.5032814  -2.1238747  57.2728459
  64.0991362  -1.4523063  57.2565824  64.0350504  -0.5557931  54.4606822
  64.6695583   0.0402494  54.3956284  64.1176115  -0.8554473  55.2752692
  64.1407055  -0.5117022  54.5709909  68.8426459   6.3974919  67.9551080
  68.3351551   6.9510766  68.3991711  68.5453106   6.4583209  67.1369855
  68.7231344   6.4881230  67.8999537  60.5403492   1.6409910  57.7296368
  61.0495721   2.2374418  58.1107674  61.0137764   1.3735884  57.0472788
  60.6846867   1.6895726  57.6850891  71.4534240  10.3138177  55.8855024
  70.7363549  10.1399039  55.4202261  72.1040977  10.0790749  55.3530510
  71.4436090  10.2533969  55.7384242  68.0868945  11.3299477  64.8608087
  67.8634599  10.5718307  65.2292114  67.5978788  11.3597499  64.1388527
  67.9812394  11.2221702  64.8084828  62.8994023  -1.7233831  60.5969549
  62.1806013  -1.3069699  60.8642412  63.2706386  -1.1579593  60.0461187
  62.8485955  -1.5784550  60.5552356  70.1439934   5.4981210  72.4120021
  70.1035789   4.8530887  71.8265177  70.9563252   5.4417827  72.7245433
  70.2583088   5.3940176  72.3716970  66.7347402  11.5499935  62.3145172
  66.3207800  10.8874066  61.9249014  67.4194776  11.6977794  61.7940866
  66.7745773  11.4740594  62.1801669  70.1012696  10.7090021  63.0668788
  69.7028979  10.8192291  62.2989609  69.4863915  10.9172087  63.6495348
  69.9511585  10.7563589  63.0400088  65.8317643  -0.8721854  68.9669779
  65.3196546  -1.4800671  69.3254810  65.6597139  -0.1565261  69.4343754
  65.7307280  -0.8558555  69.0886002  60.6783358  -2.4284279  71.6172140
  60.5085948  -1.7682904  71.0720347  60.2349307  -2.2177717  72.3384630
  60.5882691  -2.2998296  71.6433770  77.8354538   5.2841987  56.4511879
  78.2188144   6.0333344  56.6809976  77.0398652   5.5307807  56.1923868
  77.7748321   5.4311681  56.4469453  57.5785422   0.4762587  66.8760630
  57.0312141  -0.1936767  66.9941499  58.3677800   0.1092435  66.9404098
  57.6137606   0.3227573  66.9029331  67.4269830   0.1370044  72.3724041
  68.1781157   0.4521721  72.6863595  67.6192407  -0.0650785  71.5457963
  67.5661245   0.1537426  72.2967437  56.3372391  -0.3116605  64.0306653
  56.1594153  -0.7639996  64.7561569  56.0491414   0.4909556  64.2145131
  56.2685345  -0.2594047  64.1650156  71.9995973   0.9441112  63.2684044
  72.4949638   0.2264107  63.2288064  71.1895748   0.6411910  63.1538531
  71.9539866   0.7938758  63.2457769  67.4454584   4.7938925  55.4181048
  66.6365907   4.4705599  55.3714358  67.9529493   4.0872147  55.3509297
  67.4004251   4.6420242  55.4011342  58.0744861   2.2211119  61.1428412
  57.2090381   2.2096809  61.0311184  58.1743677   2.0341341  61.9899552
  57.9619028   2.1917180  61.2517357  74.0647791   3.6944800  65.9561172
  74.4902863   3.1719222  65.4031597  73.7004711   4.2925637  65.4349795
  74.0734394   3.7055027  65.7970182  63.7001871  11.9909017  64.7158518
  64.0148430  12.8045406  64.7236300  64.1095285  11.6059236  65.3840677
  63.8069969  12.0537720  64.8162610  70.6526391   7.4079064  62.2862330
  71.1237569   8.1219327  62.4552315  70.9886569   6.8077814  62.8222199
  70.7721506   7.4250528  62.3894706  72.7403375   9.0180377  74.4654402
  72.8500341   8.2288938  74.8211149  73.0694272   8.9286313  73.6628740
  72.8055781   8.8886230  74.3996793  71.2900337   7.1996998  69.0490022
  70.7421283   6.5754882  68.7810088  71.7513366   7.3891270  68.3334102
  71.2767547   7.1356048  68.9040454  61.0414891   5.9382126  64.3637126
  61.6459749   5.8977960  63.7350947  60.8342204   6.7853278  64.3941182
  61.1003789   6.0570128  64.2753243  70.8558664   8.2048071  65.5799364
  71.6757037   8.0611037  65.8415659  70.5752741   8.8294270  66.1215802
  70.9355407   8.2758423  65.6987303  56.2766174   4.9216743  64.2336049
  56.1790452   4.1113015  64.5426106  57.0595043   4.9008536  63.8482318
  56.3782310   4.7983833  64.2222912  87.3272314  15.8612922  58.5442240
  87.2966318  16.7157559  58.7160509  87.9253663  15.5608215  59.1028384
  87.4109472  15.9429419  58.6517042  80.5271999  14.9488573  63.2995170
  79.6709894  15.1097072  63.3504287  80.5739652  14.0780637  63.3200231
  80.4071110  14.8439375  63.3101236  74.9113138  24.4851291  59.0632402
  74.1596038  24.1066830  58.8348447  75.3599150  24.5169725  58.3151212
  74.8662805  24.4336898  58.9189904  80.3638098  24.9076661  54.4917949
  80.0289467  25.5853582  54.0562171  80.8764969  24.5181972  53.9034821
  80.3903679  24.9501239  54.3404741  83.3723820  17.0080617  65.9426822
  83.9179780  17.6865704  66.0020792  83.3140696  16.8668078  65.0828404
  83.4439734  17.0872619  65.8238883  85.1488888  18.4365224  56.8160550
  85.0328414  19.1872911  57.2452688  85.9444775  18.1789178  57.0656637
  85.2493478  18.5100071  56.9164642  69.6862939  20.5189970  60.9547508
  69.4513123  19.6857622  60.8479777  69.8248580  20.7994636  60.1408709
  69.6718601  20.4373473  60.8189863  71.9853026  12.6875701  63.8531816
  71.3658058  12.0968348  63.6841831  71.8836890  13.2787136  63.2196139
  71.8790702  12.6879783  63.7336805  77.0319214  22.4259248  58.1029892
  77.3535055  22.9664455  57.4991200  77.6791310  21.8556019  58.2352182
  77.1745269  22.4218423  58.0336928  79.0820922  14.4275242  58.1864279
  79.7801087  14.6063370  58.6785742  79.3973255  13.9045582  57.5634668
  79.2316259  14.3769015  58.1666289  71.7122159  16.2327982  66.0975385
  71.5880856  16.8190428  66.7325204  72.3640444  15.7388178  66.3987660
  71.7895809  16.2466787  66.2361314  79.2708857  20.8145687  58.1744070
  79.7102493  20.2062788  58.6198843  79.1213520  20.4353061  57.4029535
  79.3130323  20.6684159  58.1263238  76.7380500  19.4089699  65.3762896
  77.3829503  18.9162142  65.0573844  76.9782277  19.5514486  66.2028974
  76.8691086  19.3567142  65.4512429  77.2547786   9.7967639  62.2685554
  76.9251116  10.2478783  61.5989252  76.5792787   9.7183802  62.8158560
  77.1058222   9.8518774  62.2508777  82.8718194  19.1672869  55.1274840
  82.7869489  20.0233835  55.2724409  83.3602577  18.8917193  55.7956999
  82.9307091  19.2530190  55.2476921  84.4624193   5.7853162  60.5135164
  84.1477634   6.4756641  60.9455587  83.9451135   5.7297944  59.8120665
  84.3388664   5.8788051  60.4732113  83.8036627  15.7857663  56.6272575
  83.2748099  16.0017296  57.2869881  84.3261647  16.4793801  56.5473544
  83.8025080  15.9200800  56.7128174  89.2584680  21.3603967  62.0005619
  88.4282383  21.5714611  62.1639036  89.2093932  20.5341022  61.7247903
  89.1291415  21.2693574  61.9842985  75.6936235  19.6820880  55.4280043
  75.1093450  20.1870911  55.8345907  75.2906330  19.4563267  54.6876635
  75.5475539  19.7229128  55.3785068  80.1513449  15.9286532  53.9048963
  80.3909453  16.1364516  53.0924306  80.4729290  15.1244040  54.0137908
  80.2350607  15.8400633  53.8009516  75.4603740   7.8579928  57.7508501
  76.2149708   8.2258245  57.5125552  75.2831274   8.2319482  58.5187681
  75.5458218   7.9678115  57.8293390  88.7538638  14.0074368  65.7956041
  87.9167059  14.0776555  66.0303635  88.7226869  14.0098863  64.9230343
  88.6256921  14.0184595  65.7015589  75.1503367  16.1507404  71.5104409
  75.3223871  16.0413298  72.3589691  75.6872725  16.7961809  71.2735602
  75.2548371  16.2299405  71.6009506  73.8160804  10.2650247  54.4486614
  73.6336378  10.4822127  53.6227607  74.6786417  10.3789259  54.5045229
  73.9165394  10.3140144  54.3341101  73.4275236  22.1038169  61.8909602
  74.2664136  22.3361102  61.9383364  73.4587005  21.2342480  61.8216638
  73.5556954  22.0095115  61.8874247  74.0527939  22.5239044  66.1922908
  74.5926164  22.3810175  66.8626280  73.3697886  22.9235795  66.5606934
  74.0320093  22.5618715  66.3457329  79.4960524   7.2676657  57.4835638
  80.2246684   7.0892612  57.0373794  79.5855416   8.1094737  57.6942816
  79.6167186   7.3660536  57.4489156  83.4768824  18.2030045  61.3867932
  84.2326339  18.6361559  61.4256841  83.5831149  17.5534814  61.9602568
  83.6038995  18.1707528  61.4765958  86.5148995  22.0303322  62.1370335
  86.0784227  22.0340064  62.8929307  86.1811911  22.7108821  61.7049913
  86.4011615  22.1315778  62.1851168  69.4565084  18.7439335  66.3457329
  69.1903500  17.9278451  66.5048320  69.4703649  18.7892490  65.4752845
  69.4189807  18.6296240  66.2410811  86.4346478   9.0717150  64.3799763
  87.0772387   9.1415254  64.9661678  86.6869499   8.4046373  63.8779305
  86.5668610   8.9843498  64.3927042  73.3622831  13.5424419  52.9609087
  72.6481008  13.2562599  53.3731520  73.8466800  13.8821045  53.6015475
  73.3282195  13.5506069  53.1164722  74.2063691  12.2817713  68.9924337
  73.5135488  11.8114693  69.2385069  74.8224018  12.0556018  69.5666044
  74.1948221  12.1784845  69.1133490  89.6493342  18.7484242  61.0289972
  90.3109776  18.1874910  60.9285881  89.0084753  18.2536272  61.3542663
  89.6522209  18.5920651  61.0622313  80.5370149  22.0454373  53.3370896
  80.9521298  21.7139397  52.6455391  79.7062079  21.8123275  53.2091032
  80.4758158  21.9625629  53.2161743  69.8658498  19.5298114  63.6269074
  69.6834071  19.5045000  62.7741366  70.6008167  19.9997052  63.6657982
  69.9472562  19.5959476  63.5066992  85.9358172  19.7649624  60.7701961
  86.1713761  19.9094823  59.9428812  86.0847736  20.5292032  61.1633475
  85.9923975  19.8988679  60.7065565  72.9304250  16.2483117  70.1351182
  73.6544222  16.2336148  70.6216077  73.0320386  16.9578472  69.6373150
  73.0522459  16.3507820  70.1329969  87.7648629  18.6051290  58.6071565
  88.0956846  19.1378930  58.0011660  88.3381717  18.6590178  59.2633516
  87.8982308  18.6920859  58.6149347  82.9780518  16.4516193  59.2895145
  83.0727372  17.1905487  59.7434771  82.3539362  16.0233668  59.7229710
  82.8989548  16.4977513  59.4203293  81.2332992  19.6302405  69.9385426
  81.8071854  18.9929650  70.0933990  81.1547796  19.6306488  69.0695084
  81.3066227  19.5367517  69.8331837  69.8329408  16.4091615  63.7768140
  70.4102911  16.2728066  64.4160385  69.1343470  15.9527399  64.0313724
  69.8150430  16.3213881  63.9090430  83.2303539  18.2964933  52.5232097
  83.1483702  18.3667120  53.3887084  83.8683260  18.8594676  52.3315838
  83.3123377  18.3903904  52.6222047  76.5896711  18.0625670  61.9906623
  76.3315955  17.2297405  61.9637923  76.6445193  18.2883283  61.1499124
  76.5596488  17.9723442  61.8626760  81.6697761  10.1654121  62.0910716
  80.9654087   9.6763307  62.2494635  81.7182735  10.1776596  61.2199160
  81.5727812  10.0943769  61.9850056  75.5631423  15.6163433  62.4771518
  74.9881014  15.7755601  63.1135479  75.1867099  14.9798842  62.0139969
  75.4234235  15.5461246  62.5026077  79.2304711  14.0886782  67.3363897
  78.8419144  13.6641000  66.6816088  78.5659410  14.3368932  67.8440923
  79.0751639  14.0625503  67.3151764  88.8727980  13.8461787  60.1111727
  88.6164545  13.0341728  59.9209609  89.7157294  13.8539354  59.8841914
  88.9594006  13.7273784  60.0496544  65.3088242  15.2603508  60.4915959
  65.3948493  14.8835376  61.2729489  65.9364039  14.8863953  60.0135917
  65.4144793  15.1488990  60.5361436  83.0531073   7.7861411  64.8487881
  83.4341585   7.1039582  65.2355755  82.2494357   7.4971013  64.6663545
  82.9907535   7.6428460  64.8791937  80.3343650  18.3185387  55.5340704
  81.1484288  18.6100280  55.4223475  80.2702791  17.6645249  54.9598996
  80.4446389  18.2650582  55.4329541  86.5553140  21.0011383  69.9470279
  86.3191777  20.1699448  69.8282340  87.1996369  20.9496990  70.5325123
  86.6147811  20.8709071  70.0156173  76.2051558  21.7906904  60.6613016
  76.8425505  21.5518652  61.2064809  76.6306629  21.9944063  59.9266176
  76.3627724  21.7857914  60.6330173  70.8964200  24.0295241  64.5447319
  70.9368346  24.3010092  63.7167099  71.4558724  24.5537149  64.9605107
  70.9847546  24.1470996  64.4839208  76.8454373  17.0109194  54.9987905
  77.2299526  16.7916901  55.7504450  76.5965993  17.8372139  55.1288981
  76.8656445  17.1007340  55.1288981  77.0122913  10.2915609  74.7150489
  76.6976354  11.0615172  74.4520052  76.6912846   9.7285865  74.1302716
  76.9181832  10.3225878  74.5891839  87.5789560  20.7855832  66.0098574
  87.2735377  21.5183889  66.3711889  86.8595776  20.3793761  65.7291360
  87.4276903  20.8337565  66.0211711  93.2791353  17.4248832  65.3366918
  93.2115853  17.4444792  64.4669504  93.2647015  18.2679160  65.5622588
  93.2670109  17.5522567  65.2419395  72.3478787  22.6137190  59.3701245
  71.5216904  22.8598927  59.2435524  72.4090778  22.5349271  60.2363303
  72.2352953  22.6382139  59.4790190  74.5654810   8.6806131  60.3296686
  73.6977236   8.7528730  60.3954295  74.8530015   9.4828210  60.5184661
  74.4794558   8.8100278  60.3671452  83.6887699   8.8283990  68.6608007
  84.4341291   8.6393801  68.2471433  83.2725004   9.3542228  68.1021864
  83.7372673   8.8786136  68.5172581  77.1277616  25.2314070  57.0720275
  77.4175914  24.8403051  56.3479502  77.8581096  25.4130775  57.5125551
  77.2784500  25.2007884  57.0303082  91.0649970  16.1993219  63.6113512
  91.6157891  15.5661288  63.8510604  91.0494085  16.7308611  64.3029017
  91.1435166  16.1842167  63.7492371  77.7172361  20.0331816  68.1573406
  77.2184054  20.7447584  68.2358294  78.5272585  20.3532482  68.1191568
  77.7628467  20.1858664  68.1629974  73.9800478  19.2954769  62.4036127
  73.6913727  18.6692240  62.9381854  74.8483826  19.2375056  62.4700807
  74.0660730  19.1942313  62.4927081  84.7678376  14.4389552  62.7218108
  84.4243142  13.7179887  63.0725358  84.8671419  14.2303403  61.8796467
  84.7320419  14.3013756  62.6489789  74.1832752  20.9350020  58.3278492
  74.9378720  21.3163059  58.5413954  73.5903364  21.3861164  58.7825188
  74.2069465  21.0578847  58.4261370  85.2291405  20.9015256  58.2642097
  85.7949438  21.5608466  58.1800640  84.5819309  21.2464954  58.7358499
  85.2170162  21.0497198  58.3214853  76.6439419  12.8912860  73.4535704
  75.8339194  13.1970640  73.3425546  77.1214105  13.6118443  73.5688288
  76.5942897  13.0427461  73.4542775  72.4922162  12.1564390  57.7713562
  72.2046958  11.7865660  57.0345509  73.1792631  12.6259245  57.5097267
  72.5511060  12.1711359  57.6228637  81.6997983  23.8454041  57.6879176
  81.4584659  23.1121901  57.2806241  81.8799316  24.3940898  57.0345509
  81.6905607  23.8176432  57.5309399  76.9297304  19.1362600  59.1000098
  76.7340087  19.7437335  58.5060401  77.1531649  18.4430544  58.6191772
  76.9331945  19.1240126  58.9416179  75.3275834  16.0217338  59.2180966
  76.0498486  16.1858496  58.7584772  74.8483827  16.7427003  59.1120306
  75.3639565  16.1515568  59.1346580  83.2869342  12.3581137  64.5977651
  82.4480442  12.3842416  64.3615915  83.3573709  13.0051872  65.1782998
  83.1737735  12.4577263  64.6486768  72.9783451  18.4275411  68.3235106
  73.4904548  18.7059664  67.6743866  72.6919793  19.1664705  68.6897919
  73.0118314  18.5777764  68.2824984  81.7338620   9.2566514  59.3305267
  82.4364973   9.0574262  58.8525226  81.4682809   8.4842456  59.6374111
  81.7985252   9.1129480  59.3050709  87.1626865  17.5649124  61.8838893
  87.0760840  17.7204550  62.7373672  86.7077345  18.2087199  61.5098298
  87.0830122  17.6824879  61.9546000  70.0650357  12.9345603  58.6198843
  70.1666493  13.7371764  58.9479818  70.8606244  12.7332938  58.3221923
  70.1978263  13.0231501  58.6234198  76.4967176  10.5201799  68.3836148
  76.3050373  10.5356934  69.2335571  77.3465772  10.7165474  68.3602803
  76.5942898  10.5516150  68.5059443  70.8814089  13.0492781  66.3619964
  70.7399581  12.1976721  66.4864472  71.1654652  13.0921441  65.5382170
  70.9021935  12.9292531  66.2587588  81.0352681  14.8859871  60.5064453
  80.7887396  14.8055622  61.3401242  81.3637804  14.1013339  60.3126980
  81.0473925  14.7586136  60.6011976  84.9300730  21.5943230  64.2951234
  84.7915090  22.2924276  64.7999976  84.1500728  21.4391887  63.9387416
  84.7943957  21.6743397  64.3177508  83.2678815  17.8939606  70.5473616
  83.2626854  17.0219422  70.5516042  83.9739809  18.0927775  70.0743071
  83.3723819  17.7943480  70.4780651  76.9949709  17.6216589  69.9187436
  77.1393084  18.2017798  69.2830546  77.3425357  17.9992886  70.6237290
  77.0677170  17.7637294  69.9286431  79.1669626  16.8206758  67.7012567
  78.4192940  17.0137772  67.2960845  79.3211151  15.9951977  67.4636689
  79.0792054  16.7271869  67.6057973  86.4254103  20.9521484  55.0567733
  86.0460912  20.1658622  55.0497022  85.7620348  21.5008341  54.9139377
  86.2712578  20.9166308  55.0348530  79.4071403  10.7157309  68.5907971
  79.8644017  11.4481283  68.7180763  79.4827732  10.2923774  69.3495227
  79.4862373  10.7614547  68.7209048  71.6504394  10.9623128  69.6797415
  71.1146584  10.3503486  69.9958182  71.7122159  11.5371264  70.3331081
  71.5800027  10.9570056  69.8232842  79.2501011  24.5035003  58.8956559
  80.0150902  24.2344647  58.5739224  79.1479101  24.0185013  59.6126622
  79.3482507  24.3924568  58.9536387  77.2853781  12.7059413  65.4349795
  76.4949856  12.5250873  65.7567131  77.6814404  11.9286365  65.4180090
  77.2270657  12.5646873  65.4802343  81.7719672  21.5347187  50.8756509
  82.5392657  21.5947312  50.4662360  81.3250981  20.9627628  50.3912827
  81.8193099  21.4583763  50.7434219  82.6697467  20.3401843  63.1609241
  81.9942469  20.1087075  63.6622628  82.6789843  19.7323026  62.5351346
  82.5715972  20.2160768  63.1425393  79.7991611  15.1819672  69.9173294
  79.7350752  16.0429628  69.7893431  79.9388799  14.8651665  69.1168845
  79.8107081  15.2619838  69.7801507  84.6714202  23.1966975  55.3919419
  84.7534039  24.0033961  55.0680870  85.1563944  23.2162934  56.1160192
  84.7551360  23.3187637  55.4506318  78.4810705  17.8751811  64.0589497
  78.0572954  18.0756310  63.3228515  78.3055560  17.0280659  64.1713797
  78.3921586  17.7800592  63.9663187  73.7693150  18.3703862  59.4917469
  73.9257769  18.3050665  60.3473461  74.1093743  19.1452415  59.2796149
  73.8426385  18.4753061  59.5872064  80.3072295  17.7461746  58.3610833
  80.8487840  17.2432127  58.8249453  80.6218854  17.6926941  57.5500318
  80.4336692  17.6641167  58.3094645  78.4758744  23.1379098  55.6450861
  78.5451565  22.2793636  55.7843861  79.2547200  23.3550978  55.3169885
  78.6011595  23.0431962  55.6168018  81.4561564  12.6398051  68.4133133
  81.6703534  12.0008965  67.8596487  80.8395463  13.0843874  67.9840995
  81.3966893  12.6108194  68.2683564  70.3427412  15.5538813  59.8078237
  70.7226376  15.9723358  59.1438504  69.7682776  16.1352269  60.1147080
  70.3138736  15.7016672  59.7554978  83.6200652  14.2487116  69.3516440
  82.8077334  13.9413006  69.4329613  84.0790587  13.7686116  69.9159152
  83.5681037  14.1323608  69.4471034  83.0305907  22.1266788  59.7993385
  82.6720562  22.2981431  60.5757417  82.5444618  22.5879993  59.2421383
  82.9064604  22.2205759  59.8318654  80.8476293   5.7497986  63.4020476
  79.9769851   5.7236707  63.3553785  81.1016634   5.5775178  62.5846322
  80.7569853   5.7208130  63.2740613  77.8194272  17.8065953  52.3393619
  78.1086797  18.5830836  52.6137193  77.9066071  17.2954685  53.0408118
  77.8748528  17.8457871  52.4836117  80.7154160  15.6547187  74.1345143
  81.1853791  16.2789304  74.5213017  80.7616040  14.9864163  74.6938357
  80.7922035  15.6481867  74.2745214  77.8725433   7.7604215  64.8593946
  77.3563922   7.0684406  64.9845525  77.3119362   8.4274992  64.8056545
  77.7131946   7.7567472  64.8700012  79.9417667   8.2997175  66.6886799
  79.5549420   8.3246206  67.4700329  79.4550604   7.7338853  66.2361315
  79.8130176   8.2192925  66.7374703  84.1910646  23.0170684  70.7460585
  84.8290367  22.5230879  70.4123041  83.5484738  22.9448084  70.1612812
  84.1904873  22.9329692  70.6102940  85.9167646  14.8659830  65.3126501
  85.4895254  14.7786178  64.5574601  85.2793699  14.9737605  65.8981345
  85.7597253  14.8692489  65.2871943  79.6074808   5.1864160  68.9797059
  80.2367926   5.7224460  68.7018129  79.7760671   5.0941519  69.8310624
  79.7252603   5.2525522  69.0645587  79.4088723   9.9735355  71.2523470
  80.2362153   9.7020504  71.3082085  79.4296569  10.7696197  71.6087288
  79.5341573  10.0515109  71.3138653  84.2464903  23.7090492  67.3865942
  85.0357281  23.3579557  67.5068024  84.4208501  24.5226880  67.1242576
  84.3885184  23.7776349  67.3653810  73.9858213  17.1199218  64.4393731
  73.1446220  17.0203092  64.6472625  74.1948221  17.8894698  64.7908052
  73.8922906  17.2191261  64.5221046  71.4633780  14.7418755  62.2678482
  71.0690478  14.8161766  61.4928591  70.9073897  15.1276701  62.8186843
  71.3236592  14.8100529  62.2346141  83.0998727   7.7200049  61.9482361
  83.3048320   7.6522356  62.7939358  82.7725151   8.5258870  61.8803538
  83.0813975   7.8285989  62.0642016  77.7974878  15.0480617  63.6891329
  77.4938016  14.4936605  64.2901736  77.0954299  15.2272827  63.2019363
  77.6491088  14.9925399  63.7061034  76.8540975  12.3581137  58.2536030
  77.1300709  11.6400049  57.8413598  77.4539644  12.9566057  58.0457136
  76.9834240  12.3401507  58.1616792  75.8593229  22.2630338  68.3963426
  75.7513584  22.2732400  69.2625484  76.0689011  23.0885118  68.2068380
  75.8743340  22.3871412  68.4967518  86.3532415   8.2731813  61.4285126
  85.7406728   8.7602215  61.8138858  86.4496590   7.5975304  61.9722777
  86.2770312   8.2450122  61.5663984  80.3551496  10.0294654  56.5282625
  80.8095242  10.2005214  57.2530470  80.8291541   9.4162765  56.1280401
  80.4919816   9.9645539  56.5756387  73.8767021  19.5142980  65.8585364
  73.2854954  20.1552478  65.8288379  74.6388045  19.9380597  65.8316663
  73.9015282  19.6718818  65.8500511  74.2727644  10.6744978  66.5253382
  74.7329125  10.7483907  67.2628505  74.3183751  11.4726232  66.1753203
  74.3478199  10.8039125  66.5826138  75.9210994  11.3411673  71.0925409
  75.5296559  10.6945020  71.5281186  76.0896856  11.9323108  71.7119664
  75.8881904  11.3325940  71.2488115  89.9957443  19.3448750  66.8562642
  90.0540566  19.7935398  67.6022619  89.3623910  19.7547562  66.4192722
  89.9108738  19.4722484  66.9015190  77.6964516  16.7337188  57.6327633
  78.4406561  17.1211465  57.8710583  77.8425212  15.8894614  57.7968120
  77.8275101  16.6667661  57.6921602  79.6144091   8.5287447  62.6659494
  78.7680136   8.7010255  62.5400844  79.6115224   7.7236791  63.0025322
  79.4891241   8.4348476  62.6970621  80.6842391  12.3062662  63.5321552
  80.2102346  11.7804424  64.0426863  81.0560527  11.7592135  62.9636414
  80.6692280  12.1478658  63.5236699  71.0615422  14.3034168  68.9005098
  71.9241035  14.2029878  68.8142428  70.7307205  13.7228878  68.3390670
  71.1400618  14.2025795  68.8050504  86.9479122  17.3665037  64.9428332
  86.7077345  16.5271452  64.9470759  87.4271129  17.4465204  65.6669106
  86.9831306  17.2546437  65.0503135  82.6125891  13.1999216  56.5947306
  82.0848910  13.2827960  55.9053015  83.0721599  13.9417088  56.5911950
  82.6027742  13.3219879  56.4922001  88.9484309  14.1466495  62.8957592
  88.7094079  14.1062329  62.0578376  89.1118210  14.9937647  63.0223313
  88.9374613  14.2658580  62.7911074  85.5530339  18.5316444  68.8262637
  86.2764538  18.0788970  68.6473657  85.2880302  18.8121110  68.0434965
  85.6211613  18.5067412  68.6841352  74.4217208  13.1276617  65.5615516
  73.7970278  13.1395009  64.9541469  74.0862802  13.6036792  66.2106756
  74.2802699  13.1995134  65.5672084  74.6058956  11.4701736  51.6188201
  74.2571761  12.1221461  52.0819750  74.1255402  11.4558849  50.8912072
  74.4829200  11.5644789  51.5799292  71.1342883  21.1877077  67.0019280
  70.6042808  20.4969516  67.0514255  71.4067976  21.1787263  66.1731989
  71.0967605  21.0844209  66.8866696  82.1662974  21.7702780  55.7256963
  82.8897173  22.2360893  55.5821536  81.7263565  21.8376389  54.9754560
  82.2078666  21.8486617  55.5941744  81.3349129  18.6300322  66.9757652
  80.7206122  18.0858372  67.2706287  81.8516414  18.1164559  66.4963468
  81.3204791  18.4736731  66.9481880  80.5745426  19.7004592  64.7101950
  80.1473034  19.0754311  64.2767386  80.5670370  19.4179514  65.5360958
  80.5104567  19.5657373  64.7681778  73.6907953  14.7369765  67.7790384
  73.8501440  13.9813089  68.1842106  73.5100847  15.2860705  68.4331122
  73.6873312  14.7063579  67.9353090  81.6328256   6.9031001  68.3341174
  81.1368817   7.0994675  67.6432741  82.3897318   7.3023669  68.1629976
  81.6715081   6.9908735  68.2061311  78.9031136  10.5773347  64.9244484
  78.9273623  10.0433459  64.2357264  79.1542609  10.0690655  65.5870075
  78.9441054  10.4234251  64.9209129  66.4138725  17.8604842  64.3587629
  66.3082174  17.8151686  63.4939713  65.6638945  18.2058622  64.6401913
  66.2874328  17.9045750  64.2724958  75.1832458   9.3044165  64.3050229
  75.2230829   9.8053371  65.0184936  74.3582122   9.3954559  64.0356152
  75.0671984   9.3925981  64.3700767  77.3662071  18.8704905  72.4070523
  76.5157701  19.0076619  72.5428168  77.5290198  18.1368683  72.8518225
  77.2645934  18.7819006  72.4926123  76.6046821  15.8204675  66.6024128
  75.7738751  15.9878493  66.3959376  76.5498338  15.4440626  67.3873013
  76.4736236  15.7894406  66.6872656  74.4130604   9.3113568  72.2380538
  75.0383308   8.7675700  72.5109971  73.9581084   8.8308485  71.6688329
  74.4378865   9.1603049  72.1942132  74.9782865  14.0960266  57.1314245
  75.1185826  14.5932730  57.8342887  75.4765398  13.3946561  57.2728459
  75.0723946  14.0662245  57.2565824  75.0083087  14.9627377  54.4606822
  75.6428167  15.5587802  54.3956284  75.0908698  14.6630835  55.2752692
  75.1139638  15.0068285  54.5709909  87.9865653  17.4942855  67.3293186
  88.5783493  18.1340105  67.3611385  88.4224648  16.7965891  67.6185253
  88.1384084  17.4861205  67.3774019  76.5862070  10.8941353  54.4352264
  76.9077911  10.4144435  53.7811527  76.8489014  11.7040999  54.2443076
  76.6728096  10.9431251  54.3107756  81.9821225  10.2813547  66.7975743
  82.4076297   9.8286073  66.1859270  81.3678218   9.7273617  67.0740531
  81.9549871  10.1327523  66.7480769  71.5136075  17.1595218  57.7296368
  72.0228305  17.7559726  58.1107674  71.9870348  16.8921192  57.0472788
  71.6579451  17.2081033  57.6850891  82.4266823  25.8323485  55.8855024
  81.7096133  25.6584347  55.4202261  83.0773561  25.5976057  55.3530510
  82.4168674  25.7719277  55.7384242  80.4215448   6.7528646  60.2066320
  79.7783766   6.6026293  60.7751459  80.0814855   6.5070992  59.4415425
  80.2760525   6.6940769  60.1769336  85.0114795  14.7088073  59.6296329
  84.3405984  15.2517776  59.5009395  85.7054545  15.1782929  59.3878024
  85.0143662  14.8586344  59.5751857  85.1742922  11.1643957  62.5386702
  85.5270532  10.7373680  63.2132501  84.3157723  11.0794800  62.6687779
  85.0992367  11.0888698  62.6581713  73.8726607  13.7951477  60.5969549
  73.1538596  14.2115609  60.8642412  74.2438969  14.3605715  60.0461187
  73.8218539  13.9400758  60.5552356  83.1726188  14.4279325  66.4871544
  83.1524115  14.2462621  67.3406323  83.2205389  15.2991344  66.4631128
  83.1760829  14.5295864  66.6094839  79.6473181  12.8349476  55.9342928
  79.0538021  13.1566473  55.3827495  79.6848459  11.9890572  55.7264034
  79.5647570  12.7573805  55.8225699  86.6066982   6.2862369  63.4671015
  86.0997847   5.5791508  63.3992192  87.4034416   5.9555558  63.5972091
  86.6494221   6.1335520  63.4770010  82.5230998  12.7928981  59.3644678
  82.2944691  12.8161682  58.5223037  82.7829074  11.9686448  59.4839689
  82.5277186  12.6745061  59.2569876  76.8050226  14.6463454  68.9669779
  76.2929129  14.0384637  69.3254810  76.6329723  15.3620047  69.4343754
  76.7039863  14.6626753  69.0886002  71.6515941  13.0901029  71.6172140
  71.4818531  13.7502404  71.0720347  71.2081891  13.3007591  72.3384630
  71.5615275  13.2187011  71.6433770  75.5775760  11.3305527  60.6598874
  76.0533127  11.6922607  60.0249055  75.0764360  11.9861995  60.9399017
  75.5741119  11.4799716  60.6075615  88.8087122  20.8027295  56.4511879
  89.1920728  21.5518652  56.6809976  88.0131235  21.0493115  56.1923868
  88.7480904  20.9496989  56.4469453  80.6819297  12.5687699  71.4072034
  81.2390727  12.3401508  70.7750500  80.3580362  13.3293364  71.1307247
  80.7165707  12.6471535  71.2728531  68.5518006  15.9947895  66.8760630
  68.0044725  15.3248540  66.9941499  69.3410384  15.6277743  66.9404098
  68.5870189  15.8412881  66.9029331  78.4002414  15.6555352  72.3724041
  79.1513741  15.9707029  72.6863595  78.5924990  15.4534523  71.5457963
  78.5393828  15.6722734  72.2967437  77.6202414  13.4746727  54.0272258
  78.0001378  13.4926356  53.2423373  76.8795010  13.9200716  53.9063105
  77.5671251  13.5428502  53.8935826  85.2487704  11.7828918  59.6147837
  85.2481931  11.6277575  60.4732113  85.0443884  12.6291905  59.5589222
  85.2187482  11.8849539  59.7335776  67.3104975  15.2068703  64.0306653
  67.1326736  14.7545312  64.7561569  67.0223997  16.0094864  64.2145131
  67.2417928  15.2591261  64.1650156  82.9728556  16.4626420  63.2684044
  83.4682221  15.7449415  63.2288064  82.1628332  16.1597218  63.1538531
  82.9272449  16.3124066  63.2457769  78.4187168  20.3124233  55.4181048
  77.6098490  19.9890907  55.3714358  78.9262077  19.6057455  55.3509297
  78.3736834  20.1605550  55.4011342  69.0477445  17.7396426  61.1428412
  68.1822964  17.7282117  61.0311184  69.1476261  17.5526649  61.9899552
  68.9351612  17.7102488  61.2517357  85.0380375  19.2130108  65.9561172
  85.4635447  18.6904529  65.4031597  84.6737295  19.8110945  65.4349795
  85.0466978  19.2240335  65.7970182  78.5428469   7.6991842  69.2420425
  78.6756375   6.9022836  69.5701400  78.9273622   8.2258245  69.8218700
  78.6184798   7.6591759  69.3763928  82.2632921  22.7182306  69.0490022
  81.7153867  22.0940190  68.7810088  82.7245950  22.9076578  68.3334102
  82.2500130  22.6541356  68.9040454  81.6160825   4.6222169  65.8401518
  80.8106788   4.5119898  66.1569356  81.4867560   4.7234624  64.9831384
  81.4780957   4.6205839  65.7609558  85.0726785  10.7867660  66.4341215
  84.4889774  11.2876867  66.0218782  85.3931079  10.2797217  65.8005538
  85.0339960  10.7859495  66.2799722  77.6121584   9.7008255  56.7099890
  78.4337279   9.8706568  56.4681584  77.1491235   9.8555516  55.9866187
  77.6652747   9.7489988  56.5671534  76.2016916   7.6951017  67.4898318
  76.7461329   7.3542144  68.0802660  76.2553852   8.5536479  67.6319603
  76.2906036   7.7706277  67.5980192  72.0147475  21.4567434  64.3637126
  72.6192332  21.4163268  63.7350947  71.8074788  22.3038586  64.3941182
  72.0736372  21.5755436  64.2753243  67.2498757  20.4402051  64.2336049
  67.1523035  19.6298323  64.5426106  68.0327627  20.4193844  63.8482318
  67.3514894  20.3169141  64.2222912  98.3004897  31.3798230  58.5442240
  98.2698902  32.2342867  58.7160509  98.8986246  31.0793523  59.1028384
  98.3842055  31.4614727  58.6517042  96.1221472  33.9550532  56.8160550
  96.0060998  34.7058219  57.2452688  96.9177359  33.6974486  57.0656637
  96.2226061  34.0285379  56.9164642  88.2280369  25.3152947  62.2685554
  87.8983699  25.7664091  61.5989252  87.5525371  25.2369110  62.8158560
  88.0790805  25.3704082  62.2508777  93.8450778  34.6858177  55.1274840
  93.7602073  35.5419143  55.2724409  94.3335161  34.4102501  55.7956999
  93.9039675  34.7715498  55.2476921  95.4356777  21.3038470  60.5135164
  95.1210218  21.9941949  60.9455587  94.9183719  21.2483252  59.8120665
  95.3121247  21.3973359  60.4732113  94.7769211  31.3042971  56.6272575
  94.2480682  31.5202604  57.2869881  95.2994231  31.9979109  56.5473544
  94.7757664  31.4386108  56.7128174 100.2317264  36.8789275  62.0005619
  99.4014967  37.0899919  62.1639036 100.1826516  36.0526330  61.7247903
 100.1023999  36.7878882  61.9842985  91.1246033  31.4471840  53.9048963
  91.3642037  31.6549823  53.0924306  91.4461874  30.6429348  54.0137908
  91.2083191  31.3585941  53.8009516  86.4336323  23.3765235  57.7508501
  87.1882291  23.7443553  57.5125552  86.2563858  23.7504790  58.5187681
  86.5190802  23.4863423  57.8293390  99.7271222  29.5259676  65.7956041
  98.8899643  29.5961863  66.0303635  99.6959453  29.5284171  64.9230343
  99.5989504  29.5369903  65.7015589  84.7893388  25.7835554  54.4486614
  84.6068961  26.0007435  53.6227607  85.6519001  25.8974567  54.5045229
  84.8897977  25.8325452  54.3341101  90.4693107  22.7861965  57.4835638
  91.1979268  22.6077920  57.0373794  90.5588000  23.6280045  57.6942816
  90.5899769  22.8845844  57.4489156  94.4501408  33.7215352  61.3867932
  95.2058923  34.1546867  61.4256841  94.5563732  33.0720122  61.9602568
  94.5771578  33.6892836  61.4765958  97.4881579  37.5488630  62.1370335
  97.0516811  37.5525372  62.8929307  97.1544494  38.2294129  61.7049913
  97.3744199  37.6501086  62.1851168  97.4079062  24.5902458  64.3799763
  98.0504970  24.6600562  64.9661678  97.6602083  23.9231680  63.8779305
  97.5401194  24.5028806  64.3927042  84.3355415  29.0609727  52.9609087
  83.6213592  28.7747907  53.3731520  84.8199384  29.4006353  53.6015475
  84.3014778  29.0691377  53.1164722 100.6225925  34.2669550  61.0289972
 101.2842359  33.7060218  60.9285881  99.9817337  33.7721580  61.3542663
 100.6254793  34.1105959  61.0622313  91.5102733  37.5639681  53.3370896
  91.9253881  37.2324705  52.6455391  90.6794662  37.3308583  53.2091032
  91.4490742  37.4810937  53.2161743  96.9090756  35.2834932  60.7701961
  97.1446345  35.4280131  59.9428812  97.0580319  36.0477340  61.1633475
  96.9656559  35.4173986  60.7065565  98.7381213  34.1236598  58.6071565
  99.0689430  34.6564238  58.0011660  99.3114301  34.1775486  59.2633516
  98.8714892  34.2106167  58.6149347  93.9513102  31.9701501  59.2895145
  94.0459956  32.7090795  59.7434771  93.3271945  31.5418976  59.7229710
  93.8722132  32.0162821  59.4203293  94.2036123  33.8150240  52.5232097
  94.1216286  33.8852428  53.3887084  94.8415843  34.3779984  52.3315838
  94.2855960  33.9089212  52.6222047  92.6430344  25.6839429  62.0910716
  91.9386671  25.1948615  62.2494635  92.6915319  25.6961904  61.2199160
  92.5460396  25.6129077  61.9850056  99.8460564  29.3647095  60.1111727
  99.5897129  28.5527036  59.9209609 100.6889878  29.3724662  59.8841914
  99.9326589  29.2459092  60.0496544  94.0263656  23.3046719  64.8487881
  94.4074168  22.6224890  65.2355755  93.2226941  23.0156321  64.6663545
  93.9640118  23.1613767  64.8791937 104.2523936  32.9434140  65.3366918
 104.1848436  32.9630099  64.4669504 104.2379599  33.7864468  65.5622588
 104.2402693  33.0707875  65.2419395  85.5387394  24.1991439  60.3296686
  84.6709819  24.2714038  60.3954295  85.8262598  25.0013518  60.5184661
  85.4527142  24.3285586  60.3671452  94.6620283  24.3469298  68.6608007
  95.4073875  24.1579108  68.2471433  94.2457587  24.8727536  68.1021864
  94.7105257  24.3971443  68.5172581 102.0382553  31.7178527  63.6113512
 102.5890475  31.0846596  63.8510604 102.0226669  32.2493919  64.3029017
 102.1167750  31.7027475  63.7492371  95.7410960  29.9574860  62.7218108
  95.3975726  29.2365195  63.0725358  95.8404002  29.7488711  61.8796467
  95.7053003  29.8199063  62.6489789  96.2023989  36.4200564  58.2642097
  96.7682021  37.0793774  58.1800640  95.5551892  36.7650262  58.7358499
  96.1902745  36.5682506  58.3214853  92.6730567  39.3639348  57.6879176
  92.4317243  38.6307209  57.2806241  92.8531900  39.9126205  57.0345509
  92.6638191  39.3361740  57.5309399  92.7071203  24.7751822  59.3305267
  93.4097556  24.5759570  58.8525226  92.4415392  24.0027764  59.6374111
  92.7717836  24.6314788  59.3050709  98.1359449  33.0834432  61.8838893
  98.0493423  33.2389858  62.7373672  97.6809929  33.7272507  61.5098298
  98.0562706  33.2010187  61.9546000  87.4699760  26.0387107  68.3836148
  87.2782957  26.0542242  69.2335571  88.3198356  26.2350781  68.3602803
  87.5675482  26.0701458  68.5059443  97.3986687  36.4706792  55.0567733
  97.0193495  35.6843930  55.0497022  96.7352932  37.0193649  54.9139377
  97.2445161  36.4351616  55.0348530  94.8531313  19.4132492  62.4601814
  94.9714881  19.8708955  61.7269117  94.6793488  18.6077753  62.1738032
  94.8450484  19.3626264  62.3102748  92.7452255  37.0532495  50.8756509
  93.5125240  37.1132620  50.4662360  92.2983564  36.4812936  50.3912827
  92.7925683  36.9769070  50.7434219  95.6446785  38.7152283  55.3919419
  95.7266623  39.5219269  55.0680870  96.1296528  38.7348242  56.1160192
  95.7283943  38.8372945  55.4506318  94.0038490  37.6452096  59.7993385
  93.6453145  37.8166738  60.5757417  93.5177201  38.1065301  59.2421383
  93.8797187  37.7391067  59.8318654  91.8208876  21.2683294  63.4020476
  90.9502434  21.2422015  63.3553785  92.0749218  21.0960486  62.5846322
  91.7302436  21.2393438  63.2740613  88.7926856  33.3251261  52.3393619
  89.0819381  34.1016143  52.6137193  88.8798655  32.8139992  53.0408118
  88.8481112  33.3643179  52.4836117  88.8458017  23.2789523  64.8593946
  88.3296505  22.5869714  64.9845525  88.2851946  23.9460300  64.8056545
  88.6864530  23.2752780  64.8700012  90.9150250  23.8182483  66.6886799
  90.5282003  23.8431514  67.4700329  90.4283188  23.2524161  66.2361315
  90.7862759  23.7378233  66.7374703  96.8900230  30.3845138  65.3126501
  96.4627838  30.2971486  64.5574601  96.2526283  30.4922913  65.8981345
  96.7329837  30.3877797  65.2871943  90.5807392  20.7049468  68.9797059
  91.2100510  21.2409768  68.7018129  90.7493255  20.6126827  69.8310624
  90.6985187  20.7710830  69.0645587  90.3821307  25.4920663  71.2523470
  91.2094736  25.2205812  71.3082085  90.4029153  26.2881504  71.6087288
  90.5074157  25.5700417  71.3138653  94.0731310  23.2385357  61.9482361
  94.2780904  23.1707664  62.7939358  93.7457734  24.0444178  61.8803538
  94.0546558  23.3471297  62.0642016  97.3264998  23.7917121  61.4285126
  96.7139312  24.2787523  61.8138858  97.4229173  23.1160612  61.9722777
  97.2502896  23.7635430  61.5663984  91.3284079  25.5479962  56.5282625
  91.7827826  25.7190522  57.2530470  91.8024125  24.9348073  56.1280401
  91.4652399  25.4830847  56.5756387 100.9690026  34.8634058  66.8562642
 101.0273150  35.3120706  67.6022619 100.3356494  35.2732870  66.4192722
 100.8841321  34.9907792  66.9015190  90.5876675  24.0472755  62.6659494
  89.7412720  24.2195563  62.5400844  90.5847807  23.2422099  63.0025322
  90.4623825  23.9533784  62.6970621  91.6574975  27.8247970  63.5321552
  91.1834929  27.2989732  64.0426863  92.0293111  27.2777442  62.9636414
  91.6424864  27.6663966  63.5236699  97.9211706  32.8850345  64.9428332
  97.6809929  32.0456760  64.9470759  98.4003713  32.9650512  65.6669106
  97.9563889  32.7731745  65.0503135  93.5858475  28.7184524  56.5947306
  93.0581493  28.8013268  55.9053015  94.0454183  29.4602396  56.5911950
  93.5760325  28.8405187  56.4922001  99.9216893  29.6651802  62.8957592
  99.6826663  29.6247637  62.0578376 100.0850794  30.5122954  63.0223313
  99.9107196  29.7843887  62.7911074  85.5791540  26.9887044  51.6188201
  85.2304344  27.6406769  52.0819750  85.0987986  26.9744157  50.8912072
  85.4561784  27.0830097  51.5799292  93.1395557  37.2888088  55.7256963
  93.8629756  37.7546201  55.5821536  92.6996148  37.3561697  54.9754560
  93.1811249  37.3671924  55.5941744  92.6060840  22.4216309  68.3341174
  92.1101401  22.6179983  67.6432741  93.3629902  22.8208977  68.1629976
  92.6447664  22.5094042  68.2061311  89.8763719  26.0958655  64.9244484
  89.9006206  25.5618767  64.2357264  90.1275193  25.5875963  65.5870075
  89.9173638  25.9419559  64.9209129  85.3863188  24.8298876  72.2380538
  86.0115891  24.2861008  72.5109971  84.9313668  24.3493793  71.6688329
  85.4111449  24.6788357  72.1942132  87.5594654  26.4126661  54.4352264
  87.8810495  25.9329743  53.7811527  87.8221598  27.2226307  54.2443076
  87.6460679  26.4616559  54.3107756  93.3999407  41.3508793  55.8855024
  92.6828717  41.1769655  55.4202261  94.0506144  41.1161365  55.3530510
  93.3901257  41.2904585  55.7384242  91.3948032  22.2713954  60.2066320
  90.7516350  22.1211601  60.7751459  91.0547439  22.0256300  59.4415425
  91.2493109  22.2126077  60.1769336  95.9847378  30.2273381  59.6296329
  95.3138568  30.7703083  59.5009395  96.6787128  30.6968237  59.3878024
  95.9876246  30.3771652  59.5751857  96.1475506  26.6829265  62.5386702
  96.5003116  26.2558988  63.2132501  95.2890307  26.5980108  62.6687779
  96.0724950  26.6074005  62.6581713  90.6205765  28.3534784  55.9342928
  90.0270604  28.6751781  55.3827495  90.6581043  27.5075880  55.7264034
  90.5380154  28.2759113  55.8225699  97.5799566  21.8047677  63.4671015
  97.0730430  21.0976816  63.3992192  98.3766999  21.4740866  63.5972091
  97.6226805  21.6520828  63.4770010  93.4963582  28.3114289  59.3644678
  93.2677275  28.3346990  58.5223037  93.7561658  27.4871756  59.4839689
  93.5009770  28.1930369  59.2569876  99.7819706  36.3212603  56.4511879
 100.1653311  37.0703959  56.6809976  98.9863819  36.5678423  56.1923868
  99.7213488  36.4682297  56.4469453  88.5934997  28.9932035  54.0272258
  88.9733962  29.0111664  53.2423373  87.8527593  29.4386024  53.9063105
  88.5403835  29.0613810  53.8935826  96.2220288  27.3014226  59.6147837
  96.2214514  27.1462883  60.4732113  96.0176468  28.1477213  59.5589222
  96.1920066  27.4034847  59.7335776  93.9461140  31.9811728  63.2684044
  94.4414805  31.2634723  63.2288064  93.1360915  31.6782526  63.1538531
  93.9005033  31.8309374  63.2457769  89.5161053  23.2177150  69.2420425
  89.6488959  22.4208144  69.5701400  89.9006206  23.7443553  69.8218700
  89.5917382  23.1777067  69.3763928  92.5893408  20.1407476  65.8401518
  91.7839372  20.0305206  66.1569356  92.4600144  20.2419932  64.9831384
  92.4513541  20.1391147  65.7609558  96.0459369  26.3052968  66.4341215
  95.4622358  26.8062175  66.0218782  96.3663663  25.7982525  65.8005538
  96.0072544  26.3044803  66.2799722  88.5854168  25.2193563  56.7099890
  89.4069862  25.3891876  56.4681584  88.1223819  25.3740824  55.9866187
  88.6385330  25.2675296  56.5671534  87.1749500  23.2136325  67.4898318
  87.7193913  22.8727452  68.0802660  87.2286436  24.0721787  67.6319603
  87.2638619  23.2891585  67.5980192 109.2737481  46.8983538  58.5442240
 109.2431485  47.7528175  58.7160509 109.8718830  46.5978831  59.1028384
 109.3574639  46.9800035  58.6517042 102.4737166  45.9859189  63.2995170
 101.6175061  46.1467688  63.3504287 102.5204820  45.1151253  63.3200231
 102.3536277  45.8809991  63.3101236 105.7830882  52.2545715  72.9055627
 106.4897650  51.7597746  73.0342561 105.9718818  52.6954796  72.1758285
 105.9158788  52.2464065  72.8164672 102.3103265  55.9447277  54.4917949
 101.9754634  56.6224198  54.0562171 102.8230136  55.5552588  53.9034821
 102.3368847  55.9871855  54.3404741 101.8507557  57.8961545  60.4329061
 102.2346936  58.4648444  59.8933836 101.7866698  57.1711056  59.9534877
 101.8980984  57.8737009  60.2822923 107.0954056  49.4735840  56.8160550
 106.9793581  50.2243526  57.2452688 107.8909942  49.2159794  57.0656637
 107.1958645  49.5470687  56.9164642 101.0286089  45.4645858  58.1864279
 101.7266254  45.6433986  58.6785742 101.3438422  44.9416198  57.5634668
 101.1781426  45.4139630  58.1666289 101.2231759  53.2915221  65.0269789
 101.5055002  52.4966627  64.8056544 101.9517919  53.7695808  65.0474850
 101.3721323  53.2449818  64.9972804 104.8183361  50.2043485  55.1274840
 104.7334656  51.0604451  55.2724409 105.3067744  49.9287809  55.7956999
 104.8772258  50.2900806  55.2476921 106.4089361  36.8223778  60.5135164
 106.0942802  37.5127256  60.9455587 105.8916302  36.7668560  59.8120665
 106.2853831  36.9158666  60.4732113 105.7501794  46.8228279  56.6272575
 105.2213266  47.0387912  57.2869881 106.2726814  47.5164417  56.5473544
 105.7490247  46.9571416  56.7128174 111.2049847  52.3974583  62.0005619
 110.3747550  52.6085227  62.1639036 111.1559100  51.5711638  61.7247903
 111.0756583  52.3064190  61.9842985  97.6401402  50.7191496  55.4280043
  97.0558617  51.2241527  55.8345907  97.2371497  50.4933882  54.6876635
  97.4940706  50.7599744  55.3785068 102.0978617  46.9657148  53.9048963
 102.3374620  47.1735131  53.0924306 102.4194458  46.1614656  54.0137908
 102.1815774  46.8771249  53.8009516  97.4068907  38.8950543  57.7508501
  98.1614875  39.2628860  57.5125552  97.2296441  39.2690098  58.5187681
  97.4923385  39.0048731  57.8293390 110.7003806  45.0444984  65.7956041
 109.8632227  45.1147171  66.0303635 110.6692036  45.0469479  64.9230343
 110.5722088  45.0555211  65.7015589  95.7625971  41.3020862  54.4486614
  95.5801545  41.5192743  53.6227607  96.6251584  41.4159875  54.5045229
  95.8630561  41.3510760  54.3341101 101.4425691  38.3047273  57.4835638
 102.1711851  38.1263228  57.0373794 101.5320584  39.1465353  57.6942816
 101.5632353  38.4031151  57.4489156 105.4233991  49.2400660  61.3867932
 106.1791506  49.6732175  61.4256841 105.5296316  48.5905430  61.9602568
 105.5504162  49.2078144  61.4765958 108.4614162  53.0673938  62.1370335
 108.0249394  53.0710680  62.8929307 108.1277078  53.7479437  61.7049913
 108.3476782  53.1686393  62.1851168 108.3811645  40.1087765  64.3799763
 109.0237554  40.1785870  64.9661678 108.6334666  39.4416988  63.8779305
 108.5133777  40.0214114  64.3927042  95.3087998  44.5795035  52.9609087
  94.5946176  44.2933215  53.3731520  95.7931967  44.9191661  53.6015475
  95.2747362  44.5876685  53.1164722 103.1913629  57.0192373  67.1079941
 102.3928875  56.7791873  67.3653810 103.6399641  57.0706765  67.8546989
 103.1388241  56.9914764  67.2564865 111.5958509  49.7854858  61.0289972
 112.2574943  49.2245526  60.9285881 110.9549921  49.2906888  61.3542663
 111.5987376  49.6291267  61.0622313 102.4835316  53.0824989  53.3370896
 102.8986465  52.7510013  52.6455391 101.6527246  52.8493891  53.2091032
 102.4223325  52.9996245  53.2161743 107.8823339  50.8020240  60.7701961
 108.1178929  50.9465439  59.9428812 108.0312903  51.5662648  61.1633475
 107.9389143  50.9359294  60.7065565 109.7113796  49.6421906  58.6071565
 110.0422013  50.1749546  58.0011660 110.2846884  49.6960794  59.2633516
 109.8447475  49.7291475  58.6149347 104.9245685  47.4886809  59.2895145
 105.0192540  48.2276103  59.7434771 104.3004529  47.0604284  59.7229710
 104.8454715  47.5348129  59.4203293 105.1768707  49.3335548  52.5232097
 105.0948869  49.4037736  53.3887084 105.8148427  49.8965292  52.3315838
 105.2588544  49.4274519  52.6222047 110.8193148  44.8832403  60.1111727
 110.5629712  44.0712344  59.9209609 111.6622462  44.8909970  59.8841914
 110.9059173  44.7644400  60.0496544 102.2808817  49.3556003  55.5340704
 103.0949456  49.6470895  55.4223475 102.2167958  48.7015865  54.9598996
 102.3911556  49.3021197  55.4329541 108.5018307  52.0381999  69.9470279
 108.2656944  51.2070064  69.8282340 109.1461536  51.9867606  70.5325123
 108.5612978  51.9079687  70.0156173  98.7919540  48.0479810  54.9987905
  99.1764693  47.8287517  55.7504450  98.5431160  48.8742755  55.1288981
  98.8121613  48.1377956  55.1288981 109.5254728  51.8226448  66.0098574
 109.2200545  52.5554504  66.3711889 108.8060943  51.4164377  65.7291360
 109.3742070  51.8708181  66.0211711 115.2256520  48.4619448  65.3366918
 115.1581020  48.4815407  64.4669504 115.2112182  49.3049775  65.5622588
 115.2135276  48.5893183  65.2419395 105.6352866  39.8654606  68.6608007
 106.3806458  39.6764416  68.2471433 105.2190171  40.3912844  68.1021864
 105.6837840  39.9156751  68.5172581 113.0115137  47.2363834  63.6113512
 113.5623059  46.6031904  63.8510604 112.9959252  47.7679227  64.3029017
 113.0900333  47.2212783  63.7492371 106.7143543  45.4760168  62.7218108
 106.3708309  44.7550503  63.0725358 106.8136586  45.2674019  61.8796467
 106.6785586  45.3384371  62.6489789 107.1756572  51.9385872  58.2642097
 107.7414605  52.5979082  58.1800640 106.5284476  52.2835570  58.7358499
 107.1635329  52.0867814  58.3214853  94.4387329  43.1935006  57.7713562
  94.1512125  42.8236276  57.0345509  95.1257798  43.6629861  57.5097267
  94.4976227  43.2081975  57.6228637 103.6463150  54.8824656  57.6879176
 103.4049826  54.1492517  57.2806241 103.8264483  55.4311513  57.0345509
 103.6370774  54.8547048  57.5309399  97.2741001  47.0587954  59.2180966
  97.9963653  47.2229112  58.7584772  96.7948994  47.7797619  59.1120306
  97.3104732  47.1886184  59.1346580 105.2334509  43.3951753  64.5977651
 104.3945609  43.4213032  64.3615915 105.3038876  44.0422488  65.1782998
 105.1202902  43.4947879  64.6486768 103.6803787  40.2937130  59.3305267
 104.3830140  40.0944878  58.8525226 103.4147976  39.5213072  59.6374111
 103.7450419  40.1500096  59.3050709 109.1092032  48.6019740  61.8838893
 109.0226007  48.7575166  62.7373672 108.6542512  49.2457815  61.5098298
 109.0295289  48.7195495  61.9546000 102.9817849  45.9230487  60.5064453
 102.7352563  45.8426238  61.3401242 103.3102972  45.1383955  60.3126980
 102.9939092  45.7956752  60.6011976 106.8765897  52.6313846  64.2951234
 106.7380257  53.3294892  64.7999976 106.0965895  52.4762503  63.9387416
 106.7409124  52.7114013  64.3177508 108.3719270  51.9892100  55.0567733
 107.9926079  51.2029238  55.0497022 107.7085516  52.5378957  54.9139377
 108.2177745  51.9536924  55.0348530 105.8263896  34.9317800  62.4601814
 105.9447464  35.3894263  61.7269117 105.6526072  34.1263061  62.1738032
 105.8183067  34.8811572  62.3102748 103.7184839  52.5717803  50.8756509
 104.4857824  52.6317928  50.4662360 103.2716148  51.9998244  50.3912827
 103.7658266  52.4954378  50.7434219 104.6162634  51.3772459  63.1609241
 103.9407636  51.1457691  63.6622628 104.6255011  50.7693641  62.5351346
 104.5181139  51.2531384  63.1425393 106.6179369  54.2337591  55.3919419
 106.6999206  55.0404577  55.0680870 107.1029111  54.2533550  56.1160192
 106.7016527  54.3558253  55.4506318 100.4275872  48.9122427  64.0589497
 100.0038121  49.1126926  63.3228515 100.2520727  48.0651275  64.1713797
 100.3386753  48.8171208  63.9663187 102.2537462  48.7832362  58.3610833
 102.7953007  48.2802743  58.8249453 102.5684021  48.7297557  57.5500318
 102.3801859  48.7011783  58.3094645 106.1254569  52.9935009  75.4737745
 106.9389435  52.7220158  75.6342877 105.9649536  52.6942549  74.6697941
 106.2224518  52.9089935  75.3783151 104.8131399  56.5987415  59.8587354
 104.4211191  56.2954130  59.1410220 104.9684471  57.4356505  59.6692308
 104.7784989  56.6771251  59.7243851 104.9771074  53.1637404  59.7993385
 104.6185729  53.3352046  60.5757417 104.4909785  53.6250609  59.2421383
 104.8529771  53.2576375  59.8318654 102.7941460  36.7868602  63.4020476
 101.9235018  36.7607323  63.3553785 103.0481801  36.6145794  62.5846322
 102.7035020  36.7578746  63.2740613  99.7659439  48.8436569  52.3393619
 100.0551964  49.6201451  52.6137193  99.8531238  48.3325300  53.0408118
  99.8213696  48.8828487  52.4836117 106.1375813  54.0541299  70.7460585
 106.7755534  53.5601495  70.4123041 105.4949905  53.9818700  70.1612812
 106.1370040  53.9700308  70.6102940 107.8632813  45.9030445  65.3126501
 107.4360421  45.8156794  64.5574601 107.2258866  46.0108221  65.8981345
 107.7062421  45.9063105  65.2871943 106.1930070  54.7461108  67.3865942
 106.9822448  54.3950172  67.5068024 106.3673668  55.5597496  67.1242576
 106.3350352  54.8146965  67.3653810 105.0463894  38.7570664  61.9482361
 105.2513487  38.6892972  62.7939358 104.7190318  39.5629486  61.8803538
 105.0279142  38.8656605  62.0642016  98.8006142  43.3951752  58.2536030
  99.0765877  42.6770665  57.8413598  99.4004812  43.9936672  58.0457136
  98.9299407  43.3772123  58.1616792 108.2997582  39.3102429  61.4285126
 107.6871895  39.7972831  61.8138858 108.3961757  38.6345920  61.9722777
 108.2235479  39.2820737  61.5663984 102.3016663  41.0665270  56.5282625
 102.7560409  41.2375830  57.2530470 102.7756709  40.4533381  56.1280401
 102.4384983  41.0016155  56.5756387 111.9422610  50.3819365  66.8562642
 112.0005733  50.8306014  67.6022619 111.3089077  50.7918178  66.4192722
 111.8573905  50.5093100  66.9015190 105.5821704  56.0022907  63.2917388
 105.3841393  56.4913722  62.5973600 104.9609415  56.2064149  63.8701522
 105.4609269  56.1039446  63.2740612  99.6429683  47.7707804  57.6327633
 100.3871728  48.1582080  57.8710583  99.7890379  46.9265230  57.7968120
  99.7740268  47.7038277  57.6921602 108.8944289  48.4035653  64.9428332
 108.6542512  47.5642068  64.9470759 109.3736296  48.4835820  65.6669106
 108.9296473  48.2917053  65.0503135 104.5591058  44.2369832  56.5947306
 104.0314077  44.3198576  55.9053015 105.0186766  44.9787704  56.5911950
 104.5492909  44.3590494  56.4922001 110.8949476  45.1837110  62.8957592
 110.6559246  45.1432945  62.0578376 111.0583377  46.0308262  63.0223313
 110.8839780  45.3029195  62.7911074 107.4995506  49.5687060  68.8262637
 108.2229705  49.1159586  68.6473657 107.2345469  49.8491725  68.0434965
 107.5676780  49.5438028  68.6841352  96.5524123  42.5072352  51.6188201
  96.2036928  43.1592077  52.0819750  96.0720569  42.4929465  50.8912072
  96.4294367  42.6015405  51.5799292 104.1128141  52.8073396  55.7256963
 104.8362340  53.2731509  55.5821536 103.6728732  52.8747005  54.9754560
 104.1543833  52.8857232  55.5941744 102.5210593  50.7375208  64.7101950
 102.0938201  50.1124927  64.2767386 102.5135537  50.4550130  65.5360958
 102.4569734  50.6027989  64.7681778  96.9248032  45.1330882  57.1314245
  97.0650993  45.6303346  57.8342887  97.4230565  44.4317177  57.2728459
  97.0189113  45.1032861  57.2565824  96.9548255  45.9997993  54.4606822
  97.5893334  46.5958418  54.3956284  97.0373865  45.7001451  55.2752692
  97.0604806  46.0438901  54.5709909 109.9330820  48.5313471  67.3293186
 110.5248661  49.1710721  67.3611385 110.3689815  47.8336507  67.6185253
 110.0849252  48.5231821  67.3774019  98.5327237  41.9311969  54.4352264
  98.8543078  41.4515051  53.7811527  98.7954181  42.7411615  54.2443076
  98.6193263  41.9801866  54.3107756  93.4601242  48.1965834  57.7296368
  93.9693472  48.7930341  58.1107674  93.9335515  47.9291808  57.0472788
  93.6044618  48.2451649  57.6850891 104.3731990  56.8694101  55.8855024
 103.6561300  56.6954963  55.4202261 105.0238728  56.6346673  55.3530510
 104.3633841  56.8089893  55.7384242 102.3680615  37.7899262  60.2066320
 101.7248933  37.6396909  60.7751459 102.0280022  37.5441608  59.4415425
 102.2225693  37.7311385  60.1769336 106.9579962  45.7458689  59.6296329
 106.2871152  46.2888391  59.5009395 107.6519712  46.2153544  59.3878024
 106.9608829  45.8956960  59.5751857 107.1208089  42.2014573  62.5386702
 107.4735699  41.7744296  63.2132501 106.2622891  42.1165416  62.6687779
 107.0457534  42.1259313  62.6581713 105.1191355  45.4649941  66.4871544
 105.0989282  45.2833237  67.3406323 105.1670556  46.3361960  66.4631128
 105.1225996  45.5666480  66.6094839 103.0210446  57.2645945  63.0668788
 102.6226730  57.3748215  62.2989609 102.4061666  57.4728011  63.6495348
 102.8709336  57.3119513  63.0400088 101.5938349  43.8720092  55.9342928
 101.0003188  44.1937089  55.3827495 101.6313626  43.0261188  55.7264034
 101.5112738  43.7944421  55.8225699 108.5532149  37.3232985  63.4671015
 108.0463014  36.6162124  63.3992192 109.3499583  36.9926173  63.5972091
 108.5959388  37.1706136  63.4770010 104.4696165  43.8299597  59.3644678
 104.2409858  43.8532298  58.5223037 104.7294241  43.0057064  59.4839689
 104.4742353  43.7115677  59.2569876 110.7552289  51.8397911  56.4511879
 111.1385895  52.5889267  56.6809976 109.9596402  52.0863731  56.1923868
 110.6946071  51.9867605  56.4469453  99.5667581  44.5117343  54.0272258
  99.9466546  44.5296972  53.2423373  98.8260177  44.9571332  53.9063105
  99.5136419  44.5799118  53.8935826 107.1952871  42.8199534  59.6147837
 107.1947098  42.6648191  60.4732113 106.9909051  43.6662521  59.5589222
 107.1652649  42.9220155  59.7335776 104.9193723  47.4997036  63.2684044
 105.4147389  46.7820031  63.2288064 104.1093499  47.1967834  63.1538531
 104.8737617  47.3494682  63.2457769 100.3652335  51.3494849  55.4181048
  99.5563658  51.0261523  55.3714358 100.8727244  50.6428071  55.3509297
 100.3202002  51.1976166  55.4011342 106.9845542  50.2500723  65.9561172
 107.4100614  49.7275145  65.4031597 106.6202462  50.8481561  65.4349795
 106.9932145  50.2610950  65.7970182 103.5724142  53.9634988  62.2862330
 104.0435320  54.6775250  62.4552315 103.9084320  53.3633738  62.8222199
 103.6919257  53.9806452  62.3894706 105.6601126  55.5736301  74.4654402
 105.7698092  54.7844862  74.8211149 105.9892023  55.4842237  73.6628740
 105.7253532  55.4442154  74.3996793 103.5625992  35.6592784  65.8401518
 102.7571955  35.5490514  66.1569356 103.4332727  35.7605240  64.9831384
 103.4246125  35.6576454  65.7609558 107.0191952  41.8238276  66.4341215
 106.4354941  42.3247483  66.0218782 107.3396246  41.3167833  65.8005538
 106.9805128  41.8230111  66.2799722  99.5586751  40.7378871  56.7099890
 100.3802446  40.9077184  56.4681584  99.0956402  40.8926132  55.9866187
  99.6117914  40.7860604  56.5671534 103.7756414  54.7603995  65.5799364
 104.5954788  54.6166961  65.8415659 103.4950492  55.3850193  66.1215802
 103.8553158  54.8314347  65.6987303 120.2470065  62.4168846  58.5442240
 120.2164069  63.2713483  58.7160509 120.8451413  62.1164139  59.1028384
 120.3307223  62.4985343  58.6517042 113.4469749  61.5044497  63.2995170
 112.5907645  61.6652996  63.3504287 113.4937403  60.6336561  63.3200231
 113.3268861  61.3995299  63.3101236 107.8310889  71.0407215  59.0632402
 107.0793789  70.6622753  58.8348447 108.2796901  71.0725649  58.3151212
 107.7860556  70.9892822  58.9189904 116.7563466  67.7731023  72.9055627
 117.4630233  67.2783054  73.0342561 116.9451401  68.2140104  72.1758285
 116.8891372  67.7649373  72.8164672 113.2835849  71.4632585  54.4917949
 112.9487218  72.1409506  54.0562171 113.7962720  71.0737896  53.9034821
 113.3101430  71.5057163  54.3404741 112.8240140  73.4146853  60.4329061
 113.2079520  73.9833752  59.8933836 112.7599282  72.6896364  59.9534877
 112.8713568  73.3922317  60.2822923 116.2921571  63.5636541  65.9426822
 116.8377531  64.2421628  66.0020792 116.2338447  63.4224002  65.0828404
 116.3637485  63.6428543  65.8238883 109.4095645  71.0525607  61.3295175
 109.5106008  70.2425961  61.6392302 108.8137391  70.9582554  60.6994853
 109.3368184  70.9190635  61.2821413 118.0686639  64.9921148  56.8160550
 117.9526165  65.7428834  57.2452688 118.8642526  64.7345102  57.0656637
 118.1691229  65.0655995  56.9164642 109.2496385  75.9703196  62.7310031
 109.8933840  76.4116361  63.1206189 109.5752641  75.1656623  62.6440289
 109.3928214  75.9168391  62.7755508 102.6060690  67.0745894  60.9547508
 102.3710874  66.2413546  60.8479777 102.7446330  67.3550560  60.1408709
 102.5916352  66.9929397  60.8189863 104.9050777  59.2431624  63.8531816
 104.2855809  58.6524272  63.6841831 104.8034641  59.8343060  63.2196139
 104.7988453  59.2435707  63.7336805 109.9516965  68.9815171  58.1029892
 110.2732806  69.5220379  57.4991200 110.5989061  68.4111943  58.2352182
 110.0943020  68.9774346  58.0336928 112.0018673  60.9831166  58.1864279
 112.6998837  61.1619294  58.6785742 112.3171005  60.4601506  57.5634668
 112.1514010  60.9324938  58.1666289 104.6319910  62.7883906  66.0975385
 104.5078607  63.3746352  66.7325204 105.2838195  62.2944102  66.3987660
 104.7093559  62.8022711  66.2361314 112.1906608  67.3701611  58.1744070
 112.6300244  66.7618712  58.6198843 112.0411271  66.9908985  57.4029535
 112.2328074  67.2240082  58.1263238 109.6578251  65.9645623  65.3762896
 110.3027254  65.4718066  65.0573844 109.8980028  66.1070410  66.2028974
 109.7888836  65.9123065  65.4512429 112.1964343  68.8100529  65.0269789
 112.4787585  68.0151935  64.8056544 112.9250503  69.2881116  65.0474850
 112.3453906  68.7635126  64.9972804 110.1745536  56.3523563  62.2685554
 109.8448866  56.8034706  61.5989252 109.4990538  56.2739726  62.8158560
 110.0255973  56.4074698  62.2508777 115.7915945  65.7228793  55.1274840
 115.7067240  66.5789759  55.2724409 116.2800328  65.4473117  55.7956999
 115.8504842  65.8086114  55.2476921 117.3821944  52.3409086  60.5135164
 117.0675385  53.0312564  60.9455587 116.8648886  52.2853868  59.8120665
 117.2586415  52.4343974  60.4732113 116.7234378  62.3413587  56.6272575
 116.1945849  62.5573220  57.2869881 117.2459398  63.0349725  56.5473544
 116.7222831  62.4756724  56.7128174 122.1782431  67.9159891  62.0005619
 121.3480134  68.1270535  62.1639036 122.1291683  67.0896946  61.7247903
 122.0489166  67.8249497  61.9842985 108.6133986  66.2376804  55.4280043
 108.0291201  66.7426835  55.8345907 108.2104081  66.0119190  54.6876635
 108.4673290  66.2785052  55.3785068 104.1678014  71.9531565  62.2303714
 103.6845593  72.6782054  62.2063298 104.9801333  72.2507695  62.3413872
 104.2168762  72.1033918  62.2430994 110.2392168  70.7463745  64.8353529
 109.7219110  70.3871160  64.2314837 110.9366560  70.2225920  64.8459595
 110.2657750  70.6161433  64.7483787 113.8955760  71.1958559  70.7969702
 113.9839106  71.0084700  71.6447912 114.3245473  70.5495989  70.3974549
 113.9717863  71.0721567  70.8641453 111.4626220  70.4789719  69.7787364
 110.8997055  70.0662329  70.3027025 112.2247244  70.4042625  70.1980507
 111.4920669  70.4067120  69.9180364 113.0711200  62.4842456  53.9048963
 113.3107204  62.6920439  53.0924306 113.3927041  61.6799964  54.0137908
 113.1548358  62.3956557  53.8009516 108.3801490  54.4135851  57.7508501
 109.1347458  54.7814168  57.5125552 108.2029025  54.7875406  58.5187681
 108.4655969  54.5234039  57.8293390 107.0222212  72.4687741  62.3823994
 107.7242791  71.9539730  62.4396751 106.9419695  72.7961892  63.1870869
 107.1145972  72.4401967  62.5096786 121.6736389  60.5630292  65.7956041
 120.8364810  60.6332479  66.0303635 121.6424620  60.5654787  64.9230343
 121.5454672  60.5740519  65.7015589 108.0701118  62.7063327  71.5104409
 108.2421622  62.5969222  72.3589691 108.6070476  63.3517733  71.2735602
 108.1746122  62.7855329  71.6009506 106.7358555  56.8206170  54.4486614
 106.5534128  57.0378051  53.6227607 107.5984168  56.9345183  54.5045229
 106.8363145  56.8696068  54.3341101 106.3472987  68.6594093  61.8909602
 107.1861886  68.8917025  61.9383364 106.3784756  67.7898404  61.8216638
 106.4754705  68.5651039  61.8874247 106.9725690  69.0794968  66.1922908
 107.5123915  68.9366099  66.8626280 106.2895636  69.4791719  66.5606934
 106.9517844  69.1174639  66.3457329 112.4158274  53.8232581  57.4835638
 113.1444435  53.6448536  57.0373794 112.5053167  54.6650661  57.6942816
 112.5364936  53.9216459  57.4489156 116.3966575  64.7585968  61.3867932
 117.1524090  65.1917483  61.4256841 116.5028899  64.1090738  61.9602568
 116.5236746  64.7263452  61.4765958 119.4346746  68.5859246  62.1370335
 118.9981978  68.5895988  62.8929307 119.1009662  69.2664745  61.7049913
 119.3209366  68.6871701  62.1851168 114.0075820  70.6267578  73.4613485
 114.7916236  70.7398426  73.8269228 113.8072414  69.8008716  73.6572171
 114.0941845  70.5214298  73.5447871 102.3762835  65.2995259  66.3457329
 102.1101250  64.4834375  66.5048320 102.3901399  65.3448414  65.4752845
 102.3387557  65.1852163  66.2410811 119.3544229  55.6273073  64.3799763
 119.9970137  55.6971178  64.9661678 119.6067250  54.9602296  63.8779305
 119.4866361  55.5399422  64.3927042 106.2820582  60.0980343  52.9609087
 105.5678759  59.8118522  53.3731520 106.7664551  60.4376969  53.6015475
 106.2479945  60.1061993  53.1164722 107.1261441  58.8373637  68.9924337
 106.4333238  58.3670617  69.2385069 107.7421769  58.6111941  69.5666044
 107.1145971  58.7340769  69.1133490 114.1646213  72.5377680  67.1079941
 113.3661459  72.2977181  67.3653810 114.6132225  72.5892073  67.8546989
 114.1120824  72.5100072  67.2564865 122.5691092  65.3040165  61.0289972
 123.2307526  64.7430834  60.9285881 121.9282504  64.8092196  61.3542663
 122.5719960  65.1476575  61.0622313 113.4567900  68.6010297  53.3370896
 113.8719048  68.2695321  52.6455391 112.6259830  68.3679199  53.2091032
 113.3955909  68.5181553  53.2161743 102.7856249  66.0854038  63.6269074
 102.6031822  66.0600924  62.7741366 103.5205918  66.5552976  63.6657982
 102.8670313  66.1515400  63.5066992 118.8555923  66.3205548  60.7701961
 119.0911512  66.4650747  59.9428812 119.0045487  67.0847956  61.1633475
 118.9121726  66.4544602  60.7065565 105.8502000  62.8039041  70.1351182
 106.5741973  62.7892071  70.6216077 105.9518137  63.5134396  69.6373150
 105.9720209  62.9063744  70.1329969 120.6846380  65.1607214  58.6071565
 121.0154597  65.6934854  58.0011660 121.2579468  65.2146102  59.2633516
 120.8180059  65.2476783  58.6149347 113.2246950  66.2838125  75.0000129
 112.4319931  66.5981637  75.1852749 113.3395877  66.4989594  74.1620914
 113.1242360  66.3621962  74.9038464 115.8978269  63.0072117  59.2895145
 115.9925123  63.7461411  59.7434771 115.2737112  62.5789592  59.7229710
 115.8187299  63.0533437  59.4203293 114.1530743  66.1858329  69.9385426
 114.7269604  65.5485573  70.0933990 114.0745546  66.1862412  69.0695084
 114.2263978  66.0923441  69.8331837 102.7527159  62.9647539  63.7768140
 103.3300662  62.8283989  64.4160385 102.0541221  62.5083323  64.0313724
 102.7348180  62.8769805  63.9090430 116.1501290  64.8520856  52.5232097
 116.0681453  64.9223043  53.3887084 116.7881011  65.4150600  52.3315838
 116.2321127  64.9459827  52.6222047 109.5094461  64.6181594  61.9906623
 109.2513706  63.7853329  61.9637923 109.5642944  64.8439207  61.1499124
 109.4794239  64.5279366  61.8626760 114.5895511  56.7210045  62.0910716
 113.8851838  56.2319230  62.2494635 114.6380486  56.7332519  61.2199160
 114.4925563  56.6499693  61.9850056 108.4829173  62.1719357  62.4771518
 107.9078765  62.3311525  63.1135479 108.1064850  61.5354766  62.0139969
 108.3431986  62.1017170  62.5026077 112.1502462  60.6442706  67.3363897
 111.7616895  60.2196924  66.6816088 111.4857160  60.8924856  67.8440923
 111.9949390  60.6181427  67.3151764 121.7925731  60.4017711  60.1111727
 121.5362296  59.5897652  59.9209609 122.6355045  60.4095278  59.8841914
 121.8791757  60.2829708  60.0496544 115.9728824  54.3417335  64.8487881
 116.3539335  53.6595506  65.2355755 115.1692108  54.0526937  64.6663545
 115.9105285  54.1984383  64.8791937 113.2541400  64.8741311  55.5340704
 114.0682039  65.1656203  55.4223475 113.1900542  64.2201173  54.9598996
 113.3644139  64.8206505  55.4329541 119.4750890  67.5567307  69.9470279
 119.2389528  66.7255372  69.8282340 120.1194119  67.5052914  70.5325123
 119.5345561  67.4264995  70.0156173 109.1249309  68.3462828  60.6613016
 109.7623256  68.1074576  61.2064809 109.5504380  68.5499987  59.9266176
 109.2825475  68.3413838  60.6330173 103.8161951  70.5851165  64.5447319
 103.8566096  70.8566016  63.7167099 104.3756475  71.1093073  64.9605107
 103.9045297  70.7026920  64.4839208 109.7652124  63.5665118  54.9987905
 110.1497276  63.3472825  55.7504450 109.5163744  64.3928063  55.1288981
 109.7854196  63.6563264  55.1288981 109.9320664  56.8471533  74.7150489
 109.6174105  57.6171096  74.4520052 109.6110597  56.2841789  74.1302716
 109.8379583  56.8781802  74.5891839 120.4987311  67.3411756  66.0098574
 120.1933128  68.0739812  66.3711889 119.7793527  66.9349685  65.7291360
 120.3474653  67.3893489  66.0211711 111.5070781  68.8235251  62.3406802
 111.5809789  68.6610423  63.1948652 112.3240287  69.0125440  62.0967283
 111.6387139  68.8271993  62.4304827 105.2676537  69.1693114  59.3701245
 104.4414655  69.4154851  59.2435524 105.3288528  69.0905194  60.2363303
 105.1550704  69.1938063  59.4790190 107.4852561  55.2362055  60.3296686
 106.6174986  55.3084654  60.3954295 107.7727765  56.0384133  60.5184661
 107.3992309  55.3656202  60.3671452 116.6085450  55.3839914  68.6608007
 117.3539042  55.1949724  68.2471433 116.1922754  55.9098152  68.1021864
 116.6570424  55.4342059  68.5172581 110.0475366  71.7869994  57.0720275
 110.3373665  71.3958975  56.3479502 110.7778847  71.9686699  57.5125551
 110.1982250  71.7563808  57.0303082 123.9847721  62.7549142  63.6113512
 124.5355642  62.1217211  63.8510604 123.9691836  63.2864535  64.3029017
 124.0632917  62.7398091  63.7492371 110.6370111  66.5887740  68.1573406
 110.1381805  67.3003507  68.2358294 111.4470336  66.9088406  68.1191568
 110.6826218  66.7414588  68.1629974 107.9881282  73.7637376  60.1380425
 107.7681577  73.4734731  60.9307092 107.7675804  73.1052331  59.6098337
 107.9228876  73.6237085  60.1769334 106.8998229  65.8510693  62.4036127
 106.6111478  65.2248164  62.9381854 107.7681577  65.7930980  62.4700807
 106.9858481  65.7498237  62.4927081 117.6876127  60.9945476  62.7218108
 117.3440893  60.2735811  63.0725358 117.7869169  60.7859327  61.8796467
 117.6518170  60.8569679  62.6489789 110.1549238  75.1366766  58.9211117
 110.8073296  74.6043208  59.1502143 109.4574846  74.7835418  59.3078991
 110.1479956  75.0056289  59.0123285 107.1030502  67.4905944  58.3278492
 107.8576470  67.8718983  58.5413954 106.5101115  67.9417087  58.7825188
 107.1267216  67.6134771  58.4261370 118.1489156  67.4571180  58.2642097
 118.7147189  68.1164390  58.1800640 117.5017059  67.8020878  58.7358499
 118.1367912  67.6053121  58.3214853 109.5637169  59.4468784  73.4535704
 108.7536945  59.7526564  73.3425546 110.0411856  60.1674366  73.5688288
 109.5140648  59.5983385  73.4542775 108.4228729  68.6614505  63.7018607
 107.9009483  68.8014797  64.3870472 108.8102749  67.9025169  63.8920724
 108.4032430  68.5700029  63.8319684 105.4119913  58.7120314  57.7713562
 105.1244709  58.3421584  57.0345509 106.0990381  59.1815169  57.5097267
 105.4708810  58.7267283  57.6228637 114.6195734  70.4009964  57.6879176
 114.3782410  69.6677825  57.2806241 114.7997067  70.9496821  57.0345509
 114.6103358  70.3732355  57.5309399 109.8495055  65.6918524  59.1000098
 109.6537837  66.2993259  58.5060401 110.0729400  64.9986468  58.6191772
 109.8529696  65.6796050  58.9416179 108.2473585  62.5773262  59.2180966
 108.9696237  62.7414420  58.7584772 107.7681577  63.2982927  59.1120306
 108.2837315  62.7071492  59.1346580 116.2067092  58.9137061  64.5977651
 115.3678193  58.9398340  64.3615915 116.2771460  59.5607796  65.1782998
 116.0935486  59.0133187  64.6486768 105.8981201  64.9831334  68.3235106
 106.4102298  65.2615588  67.6743866 105.6117544  65.7220628  68.6897919
 105.9316064  65.1333688  68.2824984 114.6536370  55.8122438  59.3305267
 115.3562723  55.6130186  58.8525226 114.3880559  55.0398380  59.6374111
 114.7183003  55.6685404  59.3050709 120.0824616  64.1205048  61.8838893
 119.9958591  64.2760474  62.7373672 119.6275096  64.7643123  61.5098298
 120.0027873  64.2380803  61.9546000 102.9848108  59.4901526  58.6198843
 103.0864244  60.2927688  58.9479818 103.7803994  59.2888862  58.3221923
 103.1176013  59.5787425  58.6234198 109.4164927  57.0757723  68.3836148
 109.2248124  57.0912857  69.2335571 110.2663523  57.2721397  68.3602803
 109.5140649  57.1072074  68.5059443 103.8011840  59.6048705  66.3619964
 103.6597332  58.7532645  66.4864472 104.0852403  59.6477365  65.5382170
 103.8219686  59.4848455  66.2587588 113.9550432  61.4415795  60.5064453
 113.7085146  61.3611546  61.3401242 114.2835555  60.6569263  60.3126980
 113.9671676  61.3142060  60.6011976 117.8498481  68.1499154  64.2951234
 117.7112840  68.8480200  64.7999976 117.0698479  67.9947811  63.9387416
 117.7141708  68.2299321  64.3177508 116.1876566  64.4495529  70.5473616
 116.1824605  63.5775346  70.5516042 116.8937560  64.6483699  70.0743071
 116.2921570  64.3499404  70.4780651 109.9147459  64.1772513  69.9187436
 110.0590835  64.7573721  69.2830546 110.2623108  64.5548810  70.6237290
 109.9874921  64.3193217  69.9286431 112.0867377  63.3762682  67.7012567
 111.3390691  63.5693696  67.2960845 112.2408902  62.5507901  67.4636689
 111.9989804  63.2827793  67.6057973 108.9875214  72.3675285  66.7848463
 109.1364778  71.8078201  66.1321867 109.7675216  72.4467287  67.1680981
 109.1249308  72.2960851  66.7445412 119.3451854  67.5077408  55.0567733
 118.9658663  66.7214546  55.0497022 118.6818099  68.0564265  54.9139377
 119.1910329  67.4722232  55.0348530 111.5128515  72.5389928  68.0632953
 111.4372186  71.8698739  68.6183742 111.4418374  73.2407716  68.5773620
 111.4909122  72.5434835  68.2209802 112.3269154  57.2713232  68.5907971
 112.7841768  58.0037207  68.7180763 112.4025483  56.8479698  69.3495227
 112.4060124  57.3170470  68.7209048 104.5702145  57.5179052  69.6797415
 104.0344334  56.9059410  69.9958182 104.6319910  58.0927188  70.3331081
 104.4997778  57.5125980  69.8232842 116.7996480  50.4503108  62.4601814
 116.9180048  50.9079571  61.7269117 116.6258655  49.6448369  62.1738032
 116.7915651  50.3996880  62.3102748 112.1698762  71.0590927  58.8956559
 112.9348653  70.7900571  58.5739224 112.0676852  70.5740937  59.6126622
 112.2680257  70.9480492  58.9536387 110.2051532  59.2615336  65.4349795
 109.4147606  59.0806796  65.7567131 110.6012155  58.4842289  65.4180090
 110.1468408  59.1202797  65.4802343 114.6917422  68.0903111  50.8756509
 115.4590408  68.1503236  50.4662360 114.2448731  67.5183552  50.3912827
 114.7390850  68.0139686  50.7434219 115.5895218  66.8957766  63.1609241
 114.9140220  66.6642999  63.6622628 115.5987594  66.2878949  62.5351346
 115.4913723  66.7716692  63.1425393 112.7189362  61.7375595  69.9173294
 112.6548503  62.5985552  69.7893431 112.8586550  61.4207589  69.1168845
 112.7304832  61.8175762  69.7801507 117.5911953  69.7522899  55.3919419
 117.6731790  70.5589885  55.0680870 118.0761695  69.7718858  56.1160192
 117.6749110  69.8743561  55.4506318 111.4008456  64.4307735  64.0589497
 110.9770705  64.6312234  63.3228515 111.2253311  63.5836583  64.1713797
 111.3119336  64.3356516  63.9663187 110.9020149  75.9458248  66.5210954
 111.3916080  75.2469037  66.3386619 110.3304382  75.6482118  67.1087012
 110.8904679  75.7984471  66.5811995 106.6890901  64.9259786  59.4917469
 106.8455520  64.8606589  60.3473461 107.0291494  65.7008339  59.2796149
 106.7624136  65.0308984  59.5872064 113.2270045  64.3017670  58.3610833
 113.7685591  63.7988051  58.8249453 113.5416604  64.2482864  57.5500318
 113.3534443  64.2197091  58.3094645 117.0987153  68.5120317  75.4737745
 117.9122018  68.2405466  75.6342877 116.9382119  68.2127857  74.6697941
 117.1957101  68.4275243  75.3783151 111.3956495  69.6935021  55.6450861
 111.4649315  68.8349560  55.7843861 112.1744950  69.9106902  55.3169885
 111.5209345  69.5987885  55.6168018 114.3759315  59.1953974  68.4133133
 114.5901284  58.5564889  67.8596487 113.7593214  59.6399798  67.9840995
 114.3164644  59.1664118  68.2683564 115.7863983  72.1172723  59.8587354
 115.3943774  71.8139438  59.1410220 115.9417055  72.9541813  59.6692308
 115.7517573  72.1956559  59.7243851 103.2625162  62.1094737  59.8078237
 103.6424127  62.5279282  59.1438504 102.6880527  62.6908192  60.1147080
 103.2336487  62.2572595  59.7554978 116.5398403  60.8043039  69.3516440
 115.7275085  60.4968930  69.4329613 116.9988337  60.3242040  69.9159152
 116.4878788  60.6879532  69.4471034 115.9503657  68.6822711  59.7993385
 115.5918312  68.8537354  60.5757417 115.4642368  69.1435917  59.2421383
 115.8262354  68.7761683  59.8318654 113.7674043  52.3053910  63.4020476
 112.8967601  52.2792631  63.3553785 114.0214385  52.1331102  62.5846322
 113.6767604  52.2764054  63.2740613 110.7392023  64.3621877  52.3393619
 111.0284548  65.1386759  52.6137193 110.8263822  63.8510608  53.0408118
 110.7946279  64.4013795  52.4836117 113.6351910  62.2103111  74.1345143
 114.1051542  62.8345227  74.5213017 113.6813791  61.5420086  74.6938357
 113.7119786  62.2037791  74.2745214 110.7923184  54.3160138  64.8593946
 110.2761673  53.6240330  64.9845525 110.2317113  54.9830915  64.8056545
 110.6329697  54.3123396  64.8700012 112.8615417  54.8553098  66.6886799
 112.4747171  54.8802130  67.4700329 112.3748355  54.2894777  66.2361315
 112.7327926  54.7748849  66.7374703 117.1108397  69.5726607  70.7460585
 117.7488117  69.0786803  70.4123041 116.4682488  69.5004008  70.1612812
 117.1102623  69.4885616  70.6102940 118.8365397  61.4215753  65.3126501
 118.4093005  61.3342102  64.5574601 118.1991450  61.5293529  65.8981345
 118.6795004  61.4248413  65.2871943 112.5272559  51.7420084  68.9797059
 113.1565677  52.2780384  68.7018129 112.6958422  51.6497443  69.8310624
 112.6450354  51.8081446  69.0645587 112.3286474  56.5291279  71.2523470
 113.1559903  56.2576427  71.3082085 112.3494320  57.3252120  71.6087288
 112.4539324  56.6071033  71.3138653 117.1662653  70.2646416  67.3865942
 117.9555032  69.9135480  67.5068024 117.3406251  71.0782804  67.1242576
 117.3082935  70.3332273  67.3653810 106.9055964  63.6755141  64.4393731
 106.0643970  63.5759016  64.6472625 107.1145972  64.4450622  64.7908052
 106.8120656  63.7747185  64.5221046 104.3831531  61.2974678  62.2678482
 103.9888229  61.3717690  61.4928591 103.8271648  61.6832625  62.8186843
 104.2434343  61.3656453  62.2346141 116.0196478  54.2755972  61.9482361
 116.2246071  54.2078280  62.7939358 115.6922902  55.0814794  61.8803538
 116.0011726  54.3841913  62.0642016 110.7172629  61.6036541  63.6891329
 110.4135766  61.0492529  64.2901736 110.0152050  61.7828751  63.2019363
 110.5688839  61.5481323  63.7061034 109.7738726  58.9137060  58.2536030
 110.0498460  58.1955973  57.8413598 110.3737395  59.5121980  58.0457136
 109.9031990  58.8957431  58.1616792 108.7790980  68.8186261  68.3963426
 108.6711335  68.8288323  69.2625484 108.9886761  69.6441042  68.2068380
 108.7941091  68.9427336  68.4967518 119.2730165  54.8287737  61.4285126
 118.6604479  55.3158139  61.8138858 119.3694340  54.1531227  61.9722777
 119.1968063  54.8006045  61.5663984 113.2749246  56.5850578  56.5282625
 113.7292993  56.7561138  57.2530470 113.7489292  55.9718688  56.1280401
 113.4117566  56.5201463  56.5756387 106.7964772  66.0698904  65.8585364
 106.2052705  66.7108402  65.8288379 107.5585795  66.4936521  65.8316663
 106.8213032  66.2274742  65.8500511 107.1925395  57.2300901  66.5253382
 107.6526876  57.3039831  67.2628505 107.2381501  58.0282156  66.1753203
 107.2675950  57.3595049  66.5826138 108.8408744  57.8967596  71.0925409
 108.4494309  57.2500943  71.5281186 109.0094607  58.4879032  71.7119664
 108.8079655  57.8881864  71.2488115 122.9155193  65.9004673  66.8562642
 122.9738317  66.3491322  67.6022619 122.2821661  66.3103486  66.4192722
 122.8306488  66.0278408  66.9015190 116.5554288  71.5208215  63.2917388
 116.3573977  72.0099030  62.5973600 115.9341999  71.7249457  63.8701522
 116.4341852  71.6224754  63.2740612 110.6162266  63.2893112  57.6327633
 111.3604311  63.6767388  57.8710583 110.7622962  62.4450537  57.7968120
 110.7472851  63.2223585  57.6921602 112.5341842  55.0843371  62.6659494
 111.6877887  55.2566179  62.5400844 112.5312974  54.2792715  63.0025322
 112.4088992  54.9904400  62.6970621 113.6040142  58.8618585  63.5321552
 113.1300096  58.3360347  64.0426863 113.9758278  58.3148058  62.9636414
 113.5890031  58.7034582  63.5236699 103.9813172  60.8590092  68.9005098
 104.8438785  60.7585801  68.8142428 103.6504955  60.2784801  68.3390670
 104.0598369  60.7581719  68.8050504 119.8676873  63.9220961  64.9428332
 119.6275096  63.0827376  64.9470759 120.3468880  64.0021128  65.6669106
 119.9029056  63.8102361  65.0503135 115.5323642  59.7555140  56.5947306
 115.0046660  59.8383884  55.9053015 115.9919350  60.4973011  56.5911950
 115.5225492  59.8775802  56.4922001 121.8682060  60.7022418  62.8957592
 121.6291830  60.6618252  62.0578376 122.0315961  61.5493570  63.0223313
 121.8572363  60.8214503  62.7911074 118.4728090  65.0872368  68.8262637
 119.1962289  64.6344894  68.6473657 118.2078052  65.3677033  68.0434965
 118.5409363  65.0623336  68.6841352 107.3414958  59.6832541  65.5615516
 106.7168028  59.6950933  64.9541469 107.0060553  60.1592716  66.2106756
 107.2000450  59.7551058  65.5672084 107.5256707  58.0257660  51.6188201
 107.1769511  58.6777385  52.0819750 107.0453153  58.0114773  50.8912072
 107.4026951  58.1200713  51.5799292 104.0540634  67.7433001  67.0019280
 103.5240558  67.0525440  67.0514255 104.3265727  67.7343187  66.1731989
 104.0165356  67.6400133  66.8866696 115.0860724  68.3258704  55.7256963
 115.8094923  68.7916817  55.5821536 114.6461315  68.3932313  54.9754560
 115.1276417  68.4042540  55.5941744 114.2546879  65.1856246  66.9757652
 113.6403873  64.6414296  67.2706287 114.7714164  64.6720482  66.4963468
 114.2402542  65.0292655  66.9481880 113.4943177  66.2560516  64.7101950
 113.0670785  65.6310235  64.2767386 113.4868121  65.9735438  65.5360958
 113.4302318  66.1213297  64.7681778 106.6105704  61.2925689  67.7790384
 106.7699190  60.5369013  68.1842106 106.4298597  61.8416628  68.4331122
 106.6071063  61.2619503  67.9353090 114.5526007  53.4586925  68.3341174
 114.0566568  53.6550599  67.6432741 115.3095069  53.8579593  68.1629976
 114.5912831  53.5464658  68.2061311 111.8228886  57.1329270  64.9244484
 111.8471373  56.5989383  64.2357264 112.0740360  56.6246579  65.5870075
 111.8638805  56.9790174  64.9209129  99.3336476  64.4160765  64.3587629
  99.2279925  64.3707610  63.4939713  98.5836696  64.7614546  64.6401913
  99.2072079  64.4601674  64.2724958 108.1030208  55.8600089  64.3050229
 108.1428580  56.3609295  65.0184936 107.2779873  55.9510482  64.0356152
 107.9869734  55.9481905  64.3700767 110.2859821  65.4260829  72.4070523
 109.4355452  65.5632543  72.5428168 110.4487949  64.6924607  72.8518225
 110.1843685  65.3374930  72.4926123 109.5244572  62.3760598  66.6024128
 108.6936502  62.5434416  66.3959376 109.4696089  61.9996549  67.3873013
 109.3933987  62.3450330  66.6872656 107.3328355  55.8669491  72.2380538
 107.9581059  55.3231624  72.5109971 106.8778835  55.3864409  71.6688329
 107.3576616  55.7158973  72.1942132 107.8980616  60.6516190  57.1314245
 108.0383577  61.1488654  57.8342887 108.3963149  59.9502484  57.2728459
 107.9921697  60.6218169  57.2565824 107.9280838  61.5183301  54.4606822
 108.5625918  62.1143726  54.3956284 108.0106449  61.2186759  55.2752692
 108.0337389  61.5624209  54.5709909 120.9063404  64.0498778  67.3293186
 121.4981244  64.6896029  67.3611385 121.3422398  63.3521815  67.6185253
 121.0581835  64.0417129  67.3774019 109.5059821  57.4497276  54.4352264
 109.8275662  56.9700359  53.7811527 109.7686765  58.2596923  54.2443076
 109.5925846  57.4987174  54.3107756 112.7356794  68.4716151  67.9551080
 112.2281885  69.0251998  68.3991711 112.4383440  68.5324441  67.1369855
 112.6161679  68.5622462  67.8999537 114.9018976  56.8369470  66.7975743
 115.3274047  56.3841997  66.1859270 114.2875969  56.2829541  67.0740531
 114.8747621  56.6883447  66.7480769 104.4333826  63.7151142  57.7296368
 104.9426055  64.3115649  58.1107674 104.9068098  63.4477115  57.0472788
 104.5777202  63.7636957  57.6850891 115.3464574  72.3879409  55.8855024
 114.6293884  72.2140271  55.4202261 115.9971312  72.1531981  55.3530510
 115.3366425  72.3275201  55.7384242 113.3413199  53.3084570  60.2066320
 112.6981517  53.1582217  60.7751459 113.0012606  53.0626915  59.4415425
 113.1958276  53.2496693  60.1769336 117.9312545  61.2643997  59.6296329
 117.2603735  61.8073699  59.5009395 118.6252296  61.7338852  59.3878024
 117.9341413  61.4142268  59.5751857 111.9799279  73.4040709  64.8608087
 111.7564933  72.6459538  65.2292114 111.4909122  73.4338730  64.1388527
 111.8742728  73.2962934  64.8084828 118.0940673  57.7199881  62.5386702
 118.4468283  57.2929604  63.2132501 117.2355474  57.6350724  62.6687779
 118.0190117  57.6444621  62.6581713 106.7924358  60.3507400  60.5969549
 106.0736347  60.7671533  60.8642412 107.1636720  60.9161639  60.0461187
 106.7416289  60.4956682  60.5552356 116.0923939  60.9835249  66.4871544
 116.0721866  60.8018544  67.3406323 116.1403139  61.8547268  66.4631128
 116.0958580  61.0851788  66.6094839 114.0370268  67.5722441  72.4120021
 113.9966123  66.9272118  71.8265177 114.8493587  67.5159059  72.7245433
 114.1513422  67.4681408  72.3716970 110.6277736  73.6241167  62.3145172
 110.2138135  72.9615297  61.9249014 111.3125110  73.7719026  61.7940866
 110.6676108  73.5481825  62.1801669 113.9943030  72.7831252  63.0668788
 113.5959313  72.8933523  62.2989609 113.3794250  72.9913319  63.6495348
 113.8441919  72.8304820  63.0400088 112.5670932  59.3905400  55.9342928
 111.9735771  59.7122397  55.3827495 112.6046210  58.5446496  55.7264034
 112.4845321  59.3129729  55.8225699 119.5264733  52.8418293  63.4671015
 119.0195597  52.1347432  63.3992192 120.3232167  52.5111481  63.5972091
 119.5691972  52.6891444  63.4770010 115.4428749  59.3484905  59.3644678
 115.2142442  59.3717606  58.5223037 115.7026825  58.5242372  59.4839689
 115.4474937  59.2300985  59.2569876 109.7247977  61.2019378  68.9669779
 109.2126880  60.5940561  69.3254810 109.5527473  61.9175970  69.4343754
 109.6237614  61.2182677  69.0886002 104.5713692  59.6456953  71.6172140
 104.4016282  60.3058328  71.0720347 104.1279642  59.8563514  72.3384630
 104.4813025  59.7742935  71.6433770 108.4973511  57.8861451  60.6598874
 108.9730877  58.2478531  60.0249055 107.9962111  58.5417919  60.9399017
 108.4938870  58.0355640  60.6075615 121.7284873  67.3583219  56.4511879
 122.1118479  68.1074575  56.6809976 120.9328986  67.6049039  56.1923868
 121.6678655  67.5052913  56.4469453 113.6017047  59.1243622  71.4072034
 114.1588478  58.8957432  70.7750500 113.2778112  59.8849288  71.1307247
 113.6363458  59.2027459  71.2728531 101.4715756  62.5503819  66.8760630
 100.9242476  61.8804464  66.9941499 102.2608134  62.1833667  66.9404098
 101.5067940  62.3968805  66.9029331 111.3200165  62.2111276  72.3724041
 112.0711492  62.5262953  72.6863595 111.5122741  62.0090447  71.5457963
 111.4591579  62.2278658  72.2967437 110.5400164  60.0302651  54.0272258
 110.9199129  60.0482280  53.2423373 109.7992760  60.4756640  53.9063105
 110.4869002  60.0984425  53.8935826 118.1685455  58.3384842  59.6147837
 118.1679681  58.1833499  60.4732113 117.9641635  59.1847829  59.5589222
 118.1385233  58.4405463  59.7335776 100.2302726  61.7624626  64.0306653
 100.0524487  61.3101235  64.7561569  99.9421748  62.5650788  64.2145131
 100.1615679  61.8147184  64.1650156 115.8926307  63.0182344  63.2684044
 116.3879972  62.3005339  63.2288064 115.0826083  62.7153142  63.1538531
 115.8470200  62.8679990  63.2457769 111.3384918  66.8680157  55.4181048
 110.5296241  66.5446831  55.3714358 111.8459827  66.1613379  55.3509297
 111.2934585  66.7161473  55.4011342 101.9675196  64.2952350  61.1428412
 101.1020715  64.2838041  61.0311184 102.0674012  64.1082573  61.9899552
 101.8549363  64.2658411  61.2517357 117.9578126  65.7686031  65.9561172
 118.3833197  65.2460453  65.4031597 117.5935046  66.3666869  65.4349795
 117.9664728  65.7796258  65.7970182 107.5932206  74.0650249  64.7158518
 107.9078765  74.8786637  64.7236300 108.0025619  73.6800468  65.3840677
 107.7000304  74.1278951  64.8162610 114.5456725  69.4820296  62.2862330
 115.0167903  70.1960558  62.4552315 114.8816904  68.8819046  62.8222199
 114.6651840  69.4991760  62.3894706 116.6333710  71.0921609  74.4654402
 116.7430675  70.3030170  74.8211149 116.9624606  71.0027545  73.6628740
 116.6986116  70.9627462  74.3996793 111.4626220  54.2547766  69.2420425
 111.5954126  53.4578760  69.5701400 111.8471373  54.7814169  69.8218700
 111.5382549  54.2147683  69.3763928 115.1830672  69.2738230  69.0490022
 114.6351618  68.6496113  68.7810088 115.6443700  69.4632502  68.3334102
 115.1697881  69.2097280  68.9040454 114.5358575  51.1778092  65.8401518
 113.7304539  51.0675822  66.1569356 114.4065311  51.2790548  64.9831384
 114.3978708  51.1761762  65.7609558 117.9924536  57.3423584  66.4341215
 117.4087525  57.8432791  66.0218782 118.3128830  56.8353140  65.8005538
 117.9537711  57.3415419  66.2799722 110.5319335  56.2564179  56.7099890
 111.3535029  56.4262492  56.4681584 110.0688986  56.4111440  55.9866187
 110.5850497  56.3045912  56.5671534 109.1214667  54.2506941  67.4898318
 109.6659080  53.9098068  68.0802660 109.1751603  55.1092403  67.6319603
 109.2103786  54.3262201  67.5980192 104.9345226  68.0123357  64.3637126
 105.5390083  67.9719191  63.7350947 104.7272538  68.8594509  64.3941182
 104.9934123  68.1311360  64.2753243 114.7488998  70.2789302  65.5799364
 115.5687372  70.1352269  65.8415659 114.4683075  70.9035501  66.1215802
 114.8285741  70.3499655  65.6987303 100.1696508  66.9957975  64.2336049
 100.0720786  66.1854246  64.5426106 100.9525378  66.9749768  63.8482318
 100.2712644  66.8725065  64.2222912 124.4202333  77.0229805  63.2995170
 123.5640229  77.1838303  63.3504287 124.4669987  76.1521869  63.3200231
 124.3001445  76.9180607  63.3101236 118.8043473  86.5592523  59.0632402
 118.0526372  86.1808061  58.8348447 119.2529484  86.5910957  58.3151212
 118.7593140  86.5078130  58.9189904 124.2568433  86.9817893  54.4917949
 123.9219801  87.6594814  54.0562171 124.7695303  86.5923204  53.9034821
 124.2834014  87.0242471  54.3404741 123.7972724  88.9332161  60.4329061
 124.1812103  89.5019060  59.8933836 123.7331865  88.2081672  59.9534877
 123.8446151  88.9107625  60.2822923 120.3828229  86.5710915  61.3295175
 120.4838592  85.7611269  61.6392302 119.7869974  86.4767862  60.6994853
 120.3100768  86.4375943  61.2821413 120.2228969  91.4888504  62.7310031
 120.8666424  91.9301668  63.1206189 120.5485224  90.6841931  62.6440289
 120.3660797  91.4353699  62.7755508 113.5793273  82.5931202  60.9547508
 113.3443458  81.7598854  60.8479777 113.7178914  82.8735867  60.1408709
 113.5648936  82.5114705  60.8189863 115.8783361  74.7616932  63.8531816
 115.2588392  74.1709580  63.6841831 115.7767224  75.3528368  63.2196139
 115.7721036  74.7621015  63.7336805 120.9249548  84.5000479  58.1029892
 121.2465389  85.0405687  57.4991200 121.5721645  83.9297251  58.2352182
 121.0675603  84.4959654  58.0336928 122.9751256  76.5016474  58.1864279
 123.6731421  76.6804602  58.6785742 123.2903589  75.9786814  57.5634668
 123.1246594  76.4510246  58.1666289 115.6052494  78.3069214  66.0975385
 115.4811191  78.8931660  66.7325204 116.2570778  77.8129410  66.3987660
 115.6826143  78.3208019  66.2361314 123.1639192  82.8886919  58.1744070
 123.6032827  82.2804020  58.6198843 123.0143855  82.5094293  57.4029535
 123.2060657  82.7425390  58.1263238 120.6310835  81.4830931  65.3762896
 121.2759837  80.9903374  65.0573844 120.8712612  81.6255718  66.2028974
 120.7621420  81.4308373  65.4512429 123.1696926  84.3285837  65.0269789
 123.4520169  83.5337243  64.8056544 123.8983086  84.8066424  65.0474850
 123.3186490  84.2820434  64.9972804 121.1478120  71.8708871  62.2685554
 120.8181450  72.3220014  61.5989252 120.4723122  71.7925034  62.8158560
 120.9988556  71.9260006  62.2508777 119.5866569  81.7562111  55.4280043
 119.0023785  82.2612143  55.8345907 119.1836664  81.5304498  54.6876635
 119.4405873  81.7970360  55.3785068 115.1410598  87.4716873  62.2303714
 114.6578176  88.1967362  62.2063298 115.9533916  87.7693003  62.3413872
 115.1901346  87.6219226  62.2430994 121.2124752  86.2649053  64.8353529
 120.6951694  85.9056468  64.2314837 121.9099143  85.7411228  64.8459595
 121.2390333  86.1346741  64.7483787 124.8688344  86.7143867  70.7969702
 124.9571690  86.5270008  71.6447912 125.2978056  86.0681297  70.3974549
 124.9450446  86.5906875  70.8641453 122.4358804  85.9975027  69.7787364
 121.8729639  85.5847637  70.3027025 123.1979827  85.9227933  70.1980507
 122.4653252  85.9252428  69.9180364 124.0443784  78.0027764  53.9048963
 124.2839787  78.2105747  53.0924306 124.3659625  77.1985272  54.0137908
 124.1280942  77.9141865  53.8009516 119.3534074  69.9321159  57.7508501
 120.1080042  70.2999476  57.5125552 119.1761609  70.3060714  58.5187681
 119.4388552  70.0419347  57.8293390 117.9954795  87.9873048  62.3823994
 118.6975374  87.4725038  62.4396751 117.9152278  88.3147200  63.1870869
 118.0878556  87.9587275  62.5096786 119.0433702  78.2248635  71.5104409
 119.2154205  78.1154530  72.3589691 119.5803059  78.8703041  71.2735602
 119.1478706  78.3040637  71.6009506 117.7091139  72.3391478  54.4486614
 117.5266712  72.5563359  53.6227607 118.5716752  72.4530491  54.5045229
 117.8095728  72.3881376  54.3341101 117.3205571  84.1779400  61.8909602
 118.1594470  84.4102333  61.9383364 117.3517340  83.3083712  61.8216638
 117.4487288  84.0836347  61.8874247 117.9458274  84.5980276  66.1922908
 118.4856499  84.4551407  66.8626280 117.2628220  84.9977026  66.5606934
 117.9250427  84.6359947  66.3457329 123.3890858  69.3417889  57.4835638
 124.1177018  69.1633844  57.0373794 123.4785751  70.1835969  57.6942816
 123.5097520  69.4401767  57.4489156 124.9808403  86.1452886  73.4613485
 125.7648820  86.2583734  73.8269228 124.7804998  85.3194023  73.6572171
 125.0674429  86.0399606  73.5447871 113.3495419  80.8180566  66.3457329
 113.0833834  80.0019683  66.5048320 113.3633983  80.8633722  65.4752845
 113.3120141  80.7037471  66.2410811 117.2553166  75.6165651  52.9609087
 116.5411343  75.3303830  53.3731520 117.7397134  75.9562277  53.6015475
 117.2212529  75.6247301  53.1164722 118.0994025  74.3558945  68.9924337
 117.4065822  73.8855924  69.2385069 118.7154352  74.1297249  69.5666044
 118.0878555  74.2526077  69.1133490 125.1378797  88.0562988  67.1079941
 124.3394042  87.8162488  67.3653810 125.5864808  88.1077381  67.8546989
 125.0853408  88.0285380  67.2564865 124.4300484  84.1195605  53.3370896
 124.8451632  83.7880629  52.6455391 123.5992413  83.8864507  53.2091032
 124.3688492  84.0366861  53.2161743 113.7588832  81.6039346  63.6269074
 113.5764406  81.5786232  62.7741366 114.4938501  82.0738284  63.6657982
 113.8402896  81.6700708  63.5066992 116.8234584  78.3224349  70.1351182
 117.5474556  78.3077379  70.6216077 116.9250721  79.0319704  69.6373150
 116.9452793  78.4249052  70.1329969 124.1979533  81.8023433  75.0000129
 123.4052514  82.1166945  75.1852749 124.3128461  82.0174902  74.1620914
 124.0974944  81.8807270  74.9038464 125.1263326  81.7043637  69.9385426
 125.7002188  81.0670881  70.0933990 125.0478130  81.7047720  69.0695084
 125.1996561  81.6108748  69.8331837 113.7259743  78.4832847  63.7768140
 114.3033245  78.3469297  64.4160385 113.0273804  78.0268631  64.0313724
 113.7080764  78.3955113  63.9090430 120.4827045  80.1366902  61.9906623
 120.2246289  79.3038637  61.9637923 120.5375528  80.3624515  61.1499124
 120.4526823  80.0464673  61.8626760 125.5628095  72.2395353  62.0910716
 124.8584422  71.7504538  62.2494635 125.6113069  72.2517827  61.2199160
 125.4658147  72.1685001  61.9850056 119.4561757  77.6904665  62.4771518
 118.8811348  77.8496833  63.1135479 119.0797433  77.0540074  62.0139969
 119.3164569  77.6202478  62.5026077 123.1235046  76.1628014  67.3363897
 122.7349478  75.7382232  66.6816088 122.4589744  76.4110164  67.8440923
 122.9681973  76.1366735  67.3151764 109.2018576  77.3344739  60.4915959
 109.2878828  76.9576608  61.2729489 109.8294373  76.9605185  60.0135917
 109.3075127  77.2230222  60.5361436 124.2273984  80.3926619  55.5340704
 125.0414623  80.6841511  55.4223475 124.1633125  79.7386481  54.9598996
 124.3376723  80.3391813  55.4329541 120.0981892  83.8648136  60.6613016
 120.7355839  83.6259884  61.2064809 120.5236964  84.0685295  59.9266176
 120.2558058  83.8599146  60.6330173 114.7894535  86.1036473  64.5447319
 114.8298680  86.3751324  63.7167099 115.3489059  86.6278381  64.9605107
 114.8777880  86.2212228  64.4839208 120.7384707  79.0850426  54.9987905
 121.1229860  78.8658133  55.7504450 120.4896328  79.9113371  55.1288981
 120.7586780  79.1748572  55.1288981 120.9053248  72.3656841  74.7150489
 120.5906689  73.1356404  74.4520052 120.5843180  71.8027097  74.1302716
 120.8112167  72.3967110  74.5891839 122.4803364  84.3420559  62.3406802
 122.5542372  84.1795730  63.1948652 123.2972870  84.5310748  62.0967283
 122.6119723  84.3457301  62.4304827 116.2409121  84.6878421  59.3701245
 115.4147238  84.9340159  59.2435524 116.3021112  84.6090502  60.2363303
 116.1283288  84.7123370  59.4790190 118.4585145  70.7547362  60.3296686
 117.5907570  70.8269962  60.3954295 118.7460349  71.5569441  60.5184661
 118.3724893  70.8841510  60.3671452 121.0207950  87.3055302  57.0720275
 121.3106248  86.9144283  56.3479502 121.7511431  87.4872007  57.5125551
 121.1714834  87.2749115  57.0303082 121.6102695  82.1073048  68.1573406
 121.1114389  82.8188815  68.2358294 122.4202919  82.4273714  68.1191568
 121.6558802  82.2599896  68.1629974 118.9613865  89.2822684  60.1380425
 118.7414161  88.9920039  60.9307092 118.7408387  88.6237639  59.6098337
 118.8961460  89.1422392  60.1769334 117.8730813  81.3696001  62.4036127
 117.5844061  80.7433472  62.9381854 118.7414161  81.3116288  62.4700807
 117.9591065  81.2683545  62.4927081 121.1281821  90.6552074  58.9211117
 121.7805879  90.1228516  59.1502143 120.4307430  90.3020726  59.3078991
 121.1212539  90.5241597  59.0123285 118.0763086  83.0091252  58.3278492
 118.8309054  83.3904291  58.5413954 117.4833699  83.4602395  58.7825188
 118.0999800  83.1320079  58.4261370 120.5369753  74.9654092  73.4535704
 119.7269529  75.2711872  73.3425546 121.0144440  75.6859674  73.5688288
 120.4873232  75.1168693  73.4542775 119.3961313  84.1799813  63.7018607
 118.8742066  84.3200105  64.3870472 119.7835333  83.4210477  63.8920724
 119.3765014  84.0885337  63.8319684 116.3852497  74.2305622  57.7713562
 116.0977292  73.8606892  57.0345509 117.0722965  74.7000477  57.5097267
 116.4441394  74.2452591  57.6228637 125.5928318  85.9195272  57.6879176
 125.3514993  85.1863133  57.2806241 125.7729650  86.4682129  57.0345509
 125.5835942  85.8917663  57.5309399 120.8227638  81.2103832  59.1000098
 120.6270421  81.8178567  58.5060401 121.0461984  80.5171776  58.6191772
 120.8262279  81.1981358  58.9416179 119.2206168  78.0958570  59.2180966
 119.9428820  78.2599728  58.7584772 118.7414161  78.8168235  59.1120306
 119.2569899  78.2256800  59.1346580 116.8713785  80.5016642  68.3235106
 117.3834882  80.7800896  67.6743866 116.5850128  81.2405936  68.6897919
 116.9048648  80.6518996  68.2824984 113.9580691  75.0086834  58.6198843
 114.0596828  75.8112996  58.9479818 114.7536578  74.8074170  58.3221923
 114.0908597  75.0972733  58.6234198 120.3897510  72.5943031  68.3836148
 120.1980707  72.6098165  69.2335571 121.2396106  72.7906705  68.3602803
 120.4873232  72.6257382  68.5059443 114.7744423  75.1234012  66.3619964
 114.6329915  74.2717953  66.4864472 115.0584987  75.1662673  65.5382170
 114.7952269  75.0033762  66.2587588 124.9283016  76.9601103  60.5064453
 124.6817730  76.8796854  61.3401242 125.2568139  76.1754570  60.3126980
 124.9404259  76.8327368  60.6011976 120.8880043  79.6957821  69.9187436
 121.0323419  80.2759029  69.2830546 121.2355692  80.0734118  70.6237290
 120.9607504  79.8378525  69.9286431 123.0599960  78.8947990  67.7012567
 122.3123274  79.0879004  67.2960845 123.2141486  78.0693209  67.4636689
 122.9722388  78.8013101  67.6057973 119.9607798  87.8860593  66.7848463
 120.1097362  87.3263509  66.1321867 120.7407800  87.9652595  67.1680981
 120.0981892  87.8146159  66.7445412 122.4861099  88.0575236  68.0632953
 122.4104770  87.3884046  68.6183742 122.4150958  88.7593024  68.5773620
 122.4641705  88.0620143  68.2209802 123.3001737  72.7898540  68.5907971
 123.7574351  73.5222515  68.7180763 123.3758066  72.3665006  69.3495227
 123.3792707  72.8355778  68.7209048 115.5434729  73.0364360  69.6797415
 115.0076918  72.4244718  69.9958182 115.6052493  73.6112496  70.3331081
 115.4730361  73.0311288  69.8232842 123.1431346  86.5776235  58.8956559
 123.9081237  86.3085879  58.5739224 123.0409435  86.0926245  59.6126622
 123.2412841  86.4665799  58.9536387 121.1784115  74.7800644  65.4349795
 120.3880190  74.5992104  65.7567131 121.5744738  74.0027597  65.4180090
 121.1200991  74.6388105  65.4802343 123.6921946  77.2560903  69.9173294
 123.6281087  78.1170860  69.7893431 123.8319133  76.9392897  69.1168845
 123.7037416  77.3361070  69.7801507 122.3741039  79.9493043  64.0589497
 121.9503289  80.1497542  63.3228515 122.1985895  79.1021891  64.1713797
 122.2851920  79.8541824  63.9663187 121.8752733  91.4643556  66.5210954
 122.3648663  90.7654345  66.3386619 121.3036965  91.1667426  67.1087012
 121.8637263  91.3169779  66.5811995 117.6623484  80.4445094  59.4917469
 117.8188104  80.3791897  60.3473461 118.0024078  81.2193647  59.2796149
 117.7356719  80.5494292  59.5872064 124.2002629  79.8202978  58.3610833
 124.7418174  79.3173359  58.8249453 124.5149188  79.7668172  57.5500318
 124.3267026  79.7382399  58.3094645 122.3689079  85.2120329  55.6450861
 122.4381899  84.3534868  55.7843861 123.1477534  85.4292210  55.3169885
 122.4941929  85.1173193  55.6168018 125.3491898  74.7139282  68.4133133
 125.5633868  74.0750196  67.8596487 124.7325798  75.1585106  67.9840995
 125.2897228  74.6849426  68.2683564 114.2357746  77.6280045  59.8078237
 114.6156711  78.0464590  59.1438504 113.6613111  78.2093500  60.1147080
 114.2069071  77.7757903  59.7554978 124.7406627  67.8239218  63.4020476
 123.8700185  67.7977939  63.3553785 124.9946968  67.6516410  62.5846322
 124.6500187  67.7949362  63.2740613 121.7124606  79.8807185  52.3393619
 122.0017131  80.6572067  52.6137193 121.7996405  79.3695916  53.0408118
 121.7678863  79.9199103  52.4836117 124.6084494  77.7288419  74.1345143
 125.0784125  78.3530535  74.5213017 124.6546374  77.0605394  74.6938357
 124.6852370  77.7223099  74.2745214 121.7655768  69.8345446  64.8593946
 121.2494256  69.1425638  64.9845525 121.2049696  70.5016223  64.8056545
 121.6062281  69.8308704  64.8700012 123.8348001  70.3738406  66.6886799
 123.4479754  70.3987438  67.4700329 123.3480938  69.8080085  66.2361315
 123.7060510  70.2934157  66.7374703 123.5005143  67.2605392  68.9797059
 124.1298261  67.7965692  68.7018129 123.6691005  67.1682751  69.8310624
 123.6182937  67.3266754  69.0645587 123.3019058  72.0476587  71.2523470
 124.1292487  71.7761735  71.3082085 123.3226904  72.8437428  71.6087288
 123.4271908  72.1256341  71.3138653 117.8788547  79.1940449  64.4393731
 117.0376554  79.0944324  64.6472625 118.0878555  79.9635930  64.7908052
 117.7853240  79.2932493  64.5221046 115.3564114  76.8159986  62.2678482
 114.9620812  76.8902998  61.4928591 114.8004231  77.2017933  62.8186843
 115.2166927  76.8841761  62.2346141 121.6905212  77.1221849  63.6891329
 121.3868350  76.5677837  64.2901736 120.9884633  77.3014059  63.2019363
 121.5421422  77.0666631  63.7061034 120.7471309  74.4322368  58.2536030
 121.0231044  73.7141281  57.8413598 121.3469979  75.0307288  58.0457136
 120.8764574  74.4142739  58.1616792 119.7523563  84.3371569  68.3963426
 119.6443918  84.3473631  69.2625484 119.9619345  85.1626350  68.2068380
 119.7673674  84.4612644  68.4967518 124.2481830  72.1035886  56.5282625
 124.7025576  72.2746446  57.2530470 124.7221876  71.4903996  56.1280401
 124.3850150  72.0386771  56.5756387 117.7697355  81.5884212  65.8585364
 117.1785289  82.2293710  65.8288379 118.5318379  82.0121829  65.8316663
 117.7945616  81.7460050  65.8500511 118.1657978  72.7486209  66.5253382
 118.6259460  72.8225139  67.2628505 118.2114085  73.5467463  66.1753203
 118.2408533  72.8780356  66.5826138 119.8141328  73.4152904  71.0925409
 119.4226893  72.7686251  71.5281186 119.9827191  74.0064340  71.7119664
 119.7812238  73.4067172  71.2488115 121.5894850  78.8078420  57.6327633
 122.3336895  79.1952696  57.8710583 121.7355546  77.9635845  57.7968120
 121.7205435  78.7408893  57.6921602 123.5074425  70.6028679  62.6659494
 122.6610470  70.7751487  62.5400844 123.5045558  69.7978023  63.0025322
 123.3821575  70.5089708  62.6970621 124.5772726  74.3803893  63.5321552
 124.1032680  73.8545655  64.0426863 124.9490862  73.8333366  62.9636414
 124.5622615  74.2219890  63.5236699 114.9545756  76.3775400  68.9005098
 115.8171369  76.2771109  68.8142428 114.6237539  75.7970109  68.3390670
 115.0330952  76.2767027  68.8050504 118.3147542  75.2017849  65.5615516
 117.6900612  75.2136241  64.9541469 117.9793137  75.6778024  66.2106756
 118.1733034  75.2736366  65.5672084 118.4989291  73.5442968  51.6188201
 118.1502095  74.1962693  52.0819750 118.0185736  73.5300081  50.8912072
 118.3759535  73.6386021  51.5799292 115.0273217  83.2618309  67.0019280
 114.4973142  82.5710748  67.0514255 115.2998311  83.2528494  66.1731989
 114.9897940  83.1585441  66.8866696 125.2279463  80.7041554  66.9757652
 124.6136456  80.1599604  67.2706287 125.7446748  80.1905790  66.4963468
 125.2135125  80.5477963  66.9481880 124.4675760  81.7745824  64.7101950
 124.0403368  81.1495542  64.2767386 124.4600705  81.4920746  65.5360958
 124.4034901  81.6398604  64.7681778 117.5838287  76.8110997  67.7790384
 117.7431774  76.0554321  68.1842106 117.4031181  77.3601936  68.4331122
 117.5803646  76.7804811  67.9353090 122.7961470  72.6514578  64.9244484
 122.8203957  72.1174691  64.2357264 123.0472943  72.1431887  65.5870075
 122.8371389  72.4975482  64.9209129 110.3069060  79.9346073  64.3587629
 110.2012509  79.8892918  63.4939713 109.5569280  80.2799854  64.6401913
 110.1804663  79.9786981  64.2724958 119.0762792  71.3785397  64.3050229
 119.1161164  71.8794603  65.0184936 118.2512457  71.4695790  64.0356152
 118.9602318  71.4667213  64.3700767 121.2592405  80.9446137  72.4070523
 120.4088035  81.0817851  72.5428168 121.4220533  80.2109915  72.8518225
 121.1576268  80.8560238  72.4926123 120.4977155  77.8945906  66.6024128
 119.6669085  78.0619724  66.3959376 120.4428673  77.5181857  67.3873013
 120.3666570  77.8635638  66.6872656 118.3060939  71.3854799  72.2380538
 118.9313642  70.8416932  72.5109971 117.8511419  70.9049717  71.6688329
 118.3309199  71.2344281  72.1942132 118.8713199  76.1701498  57.1314245
 119.0116160  76.6673962  57.8342887 119.3695732  75.4687792  57.2728459
 118.9654280  76.1403477  57.2565824 118.9013422  77.0368609  54.4606822
 119.5358501  77.6329034  54.3956284 118.9839032  76.7372067  55.2752692
 119.0069973  77.0809517  54.5709909 120.4792405  72.9682584  54.4352264
 120.8008246  72.4885667  53.7811527 120.7419348  73.7782230  54.2443076
 120.5658430  73.0172482  54.3107756 123.7089377  83.9901459  67.9551080
 123.2014468  84.5437306  68.3991711 123.4116024  84.0509749  67.1369855
 123.5894262  84.0807770  67.8999537 115.4066410  79.2336450  57.7296368
 115.9158639  79.8300957  58.1107674 115.8800682  78.9662423  57.0472788
 115.5509785  79.2822265  57.6850891 124.3145782  68.8269878  60.2066320
 123.6714100  68.6767525  60.7751459 123.9745189  68.5812223  59.4415425
 124.1690860  68.7682001  60.1769336 122.9531863  88.9226017  64.8608087
 122.7297517  88.1644846  65.2292114 122.4641706  88.9524038  64.1388527
 122.8475312  88.8148241  64.8084828 117.7656941  75.8692708  60.5969549
 117.0468930  76.2856841  60.8642412 118.1369304  76.4346947  60.0461187
 117.7148873  76.0141990  60.5552356 125.0102852  83.0907749  72.4120021
 124.9698707  82.4457426  71.8265177 125.8226170  83.0344367  72.7245433
 125.1246005  82.9866716  72.3716970 121.6010320  89.1426475  62.3145172
 121.1870718  88.4800605  61.9249014 122.2857694  89.2904334  61.7940866
 121.6408691  89.0667133  62.1801669 124.9675614  88.3016560  63.0668788
 124.5691897  88.4118831  62.2989609 124.3526833  88.5098627  63.6495348
 124.8174503  88.3490128  63.0400088 123.5403516  74.9090708  55.9342928
 122.9468355  75.2307705  55.3827495 123.5778793  74.0631804  55.7264034
 123.4577905  74.8315036  55.8225699 120.6980561  76.7204686  68.9669779
 120.1859464  76.1125869  69.3254810 120.5260057  77.4361278  69.4343754
 120.5970198  76.7367985  69.0886002 115.5446275  75.1642261  71.6172140
 115.3748866  75.8243636  71.0720347 115.1012225  75.3748822  72.3384630
 115.4545609  75.2928243  71.6433770 119.4706095  73.4046759  60.6598874
 119.9463461  73.7663839  60.0249055 118.9694694  74.0603227  60.9399017
 119.4671454  73.5540948  60.6075615 124.5749631  74.6428930  71.4072034
 125.1321061  74.4142740  70.7750500 124.2510696  75.4034596  71.1307247
 124.6096041  74.7212767  71.2728531 112.4448340  78.0689127  66.8760630
 111.8975059  77.3989772  66.9941499 113.2340718  77.7018974  66.9404098
 112.4800524  77.9154113  66.9029331 122.2932748  77.7296584  72.3724041
 123.0444075  78.0448261  72.6863595 122.4855325  77.5275755  71.5457963
 122.4324162  77.7463965  72.2967437 121.5132748  75.5487959  54.0272258
 121.8931713  75.5667588  53.2423373 120.7725344  75.9941948  53.9063105
 121.4601586  75.6169733  53.8935826 111.2035309  77.2809934  64.0306653
 111.0257070  76.8286543  64.7561569 110.9154332  78.0836096  64.2145131
 111.1348263  77.3332492  64.1650156 122.3117502  82.3865465  55.4181048
 121.5028825  82.0632139  55.3714358 122.8192411  81.6798687  55.3509297
 122.2667169  82.2346781  55.4011342 112.9407779  79.8137658  61.1428412
 112.0753299  79.8023349  61.0311184 113.0406595  79.6267881  61.9899552
 112.8281946  79.7843719  61.2517357 118.5664789  89.5835557  64.7158518
 118.8811348  90.3971945  64.7236300 118.9758202  89.1985775  65.3840677
 118.6732887  89.6464259  64.8162610 122.4358804  69.7733074  69.2420425
 122.5686709  68.9764068  69.5701400 122.8203956  70.2999477  69.8218700
 122.5115133  69.7332991  69.3763928 125.5091159  66.6963400  65.8401518
 124.7037123  66.5861130  66.1569356 125.3797894  66.7975856  64.9831384
 125.3711292  66.6947070  65.7609558 121.5051919  71.7749487  56.7099890
 122.3267613  71.9447800  56.4681584 121.0421570  71.9296748  55.9866187
 121.5583081  71.8231220  56.5671534 120.0947251  69.7692249  67.4898318
 120.6391663  69.4283376  68.0802660 120.1484186  70.6277711  67.6319603
 120.1836370  69.8447509  67.5980192 115.9077809  83.5308665  64.3637126
 116.5122667  83.4904499  63.7350947 115.7005122  84.3779817  64.3941182
 115.9666707  83.6496668  64.2753243 111.1429092  82.5143283  64.2336049
 111.0453370  81.7039554  64.5426106 111.9257961  82.4935076  63.8482318
 111.2445228  82.3910373  64.2222912 124.5525857  98.1116510  60.9547508
 124.3176041  97.2784162  60.8479777 124.6911498  98.3921175  60.1408709
 124.5381519  98.0300013  60.8189863 124.3228002  96.3365874  66.3457329
 124.0566417  95.5204991  66.5048320 124.3366566  96.3819030  65.4752845
 124.2852725  96.2222779  66.2410811 124.7321416  97.1224654  63.6269074
 124.5496989  97.0971540  62.7741366 125.4671085  97.5923592  63.6657982
 124.8135480  97.1886016  63.5066992 124.6992326  94.0018154  63.7768140
 125.2765829  93.8654605  64.4160385 124.0006388  93.5453939  64.0313724
 124.6813348  93.9140421  63.9090430 120.1751159  92.8530047  60.4915959
 120.2611411  92.4761916  61.2729489 120.8026957  92.4790493  60.0135917
 120.2807710  92.7415530  60.5361436 124.9313275  90.5272142  58.6198843
 125.0329411  91.3298304  58.9479818 125.7269162  90.3259478  58.3221923
 125.0641180  90.6158041  58.6234198 125.2090329  93.1465353  59.8078237
 125.5889294  93.5649897  59.1438504 124.6345694  93.7278808  60.1147080
 125.1801654  93.2943211  59.7554978 121.2801643  95.4531381  64.3587629
 121.1745092  95.4078226  63.4939713 120.5301863  95.7985162  64.6401913
 121.1537246  95.4972289  64.2724958 123.4180923  93.5874435  66.8760630
 122.8707643  92.9175080  66.9941499 124.2073302  93.2204282  66.9404098
 123.4533107  93.4339421  66.9029331 122.1767893  92.7995242  64.0306653
 121.9989654  92.3471851  64.7561569 121.8886915  93.6021404  64.2145131
 122.1080846  92.8517800  64.1650156 123.9140363  95.3322966  61.1428412
 123.0485882  95.3208657  61.0311184 124.0139179  95.1453189  61.9899552
 123.8014530  95.3029027  61.2517357 122.1161675  98.0328591  64.2336049
 122.0185953  97.2224862  64.5426106 122.8990545  98.0120384  63.8482318
 122.2177812  97.9095681  64.2222912  74.6063962   1.4229423  45.9972449
  73.8546862   1.0444961  45.7688494  75.0549974   1.4547856  45.2491259
  74.5613629   1.3715030  45.8529951  79.5993214   3.7969061  47.3669108
  79.9832593   4.3655959  46.8273883  79.5352355   3.0718571  46.8874924
  79.6466641   3.7744524  47.2162970  76.0249458   6.3525404  49.6650077
  76.6686914   6.7938568  50.0546236  76.3505714   5.5478830  49.5780336
  76.1681287   6.2990599  49.7095555  70.9431088   2.3353772  49.1643761
  70.4598666   3.0604262  49.1403345  71.7554406   2.6329902  49.2753919
  70.9921835   2.4856126  49.1771040  73.7975285   2.8509948  49.3164041
  74.4995864   2.3361937  49.3736798  73.7172768   3.1784099  50.1210916
  73.8899045   2.8224174  49.4436833  70.5915024   0.9673372  51.4787366
  70.6319169   1.2388223  50.6507146  71.1509548   1.4915280  51.8945154
  70.6798370   1.0849127  51.4179254  76.8228439   2.1692201  44.0060322
  77.1126738   1.7781182  43.2819549  77.5531920   2.3508906  44.4465597
  76.9735324   2.1386015  43.9643129  74.7634355   4.1459584  47.0720472
  74.5434650   3.8556938  47.8647139  74.5428877   3.4874539  46.5438384
  74.6981949   4.0059292  47.1109380  76.9302311   5.5188974  45.8551164
  77.5826369   4.9865416  46.0842190  76.2327919   5.1657626  46.2419038
  76.9233029   5.3878496  45.9463332  75.7628288   2.7497492  53.7188509
  75.9117851   2.1900408  53.0661914  76.5428290   2.8289494  54.1021028
  75.9002381   2.6783058  53.6785459  78.2881588   2.9212135  54.9973000
  78.2125259   2.2520946  55.5523788  78.2171447   3.6229924  55.5113666
  78.2662195   2.9257043  55.1549848  77.6773223   6.3280455  53.4551001
  78.1669153   5.6291244  53.2726666  77.1057455   6.0304325  54.0427058
  77.6657752   6.1806679  53.5152042  78.7552352   3.7862916  51.7948134
  78.5318007   3.0281746  52.1632160  78.2662196   3.8160938  51.0728574
  78.6495801   3.6785141  51.7424875  77.4030809   4.0063375  49.2485219
  76.9891208   3.3437505  48.8589060  78.0878183   4.1541233  48.7280913
  77.4429181   3.9304033  49.1141716  80.7696103   3.1653460  50.0008835
  80.3712386   3.2755730  49.2329656  80.1547323   3.3735526  50.5835395
  80.6194993   3.2127028  49.9740135  74.3685279   4.4472456  51.6498565
  74.6831838   5.2608845  51.6576346  74.7778692   4.0622675  52.3180724
  74.4753377   4.5101159  51.7502656  85.5796546  16.9414730  45.9972449
  84.8279446  16.5630269  45.7688494  86.0282558  16.9733164  45.2491259
  85.5346213  16.8900338  45.8529951  94.5049123  13.6738538  59.8395673
  95.2115890  13.1790569  59.9682608  94.6937058  14.1147620  59.1098331
  94.6377028  13.6656889  59.7504719  91.0321506  17.3640100  41.4257996
  90.6972874  18.0417022  40.9902218  91.5448376  16.9745411  40.8374868
  91.0587087  17.4064678  41.2744787  90.5725797  19.3154369  47.3669108
  90.9565176  19.8841267  46.8273883  90.5084938  18.5903879  46.8874924
  90.6199224  19.2929832  47.2162970  94.0407227   9.4644057  52.8766869
  94.5863187  10.1429143  52.9360839  93.9824104   9.3231517  52.0168450
  94.1123142   9.5436058  52.7578929  87.1581302  16.9533123  48.2635221
  87.2591665  16.1433477  48.5732349  86.5623047  16.8590069  47.6334900
  87.0853841  16.8198151  48.2161460  95.8172296  10.8928664  43.7500597
  95.7011822  11.6436350  44.1792735  96.6128183  10.6352617  43.9996684
  95.9176885  10.9663511  43.8504688  86.9982042  21.8710712  49.6650077
  87.6419497  22.3123876  50.0546236  87.3238297  21.0664138  49.5780336
  87.1413870  21.8175907  49.7095555  80.3546346  12.9753409  47.8887555
  80.1196531  12.1421062  47.7819824  80.4931987  13.2558075  47.0748756
  80.3402009  12.8936913  47.7529910  82.6536434   5.1439140  50.7871863
  82.0341466   4.5531787  50.6181877  82.5520297   5.7350575  50.1536186
  82.5474109   5.1443222  50.6676852  87.7002621  14.8822687  45.0369939
  88.0218463  15.4227894  44.4331247  88.3474718  14.3119458  45.1692229
  87.8428677  14.8781862  44.9676974  89.7504330   6.8838682  45.1204326
  90.4484494   7.0626809  45.6125789  90.0656662   6.3609021  44.4974715
  89.8999667   6.8332454  45.1006336  82.3805567   8.6891421  53.0315432
  82.2564264   9.2753867  53.6665251  83.0323851   8.1951617  53.3327707
  82.4579216   8.7030226  53.1701361  89.9392265  13.2709127  45.1084117
  90.3785900  12.6626227  45.5538890  89.7896928  12.8916500  44.3369582
  89.9813731  13.1247598  45.0603285  87.4063908  11.8653138  52.3102943
  88.0512910  11.3725582  51.9913891  87.6465685  12.0077925  53.1369021
  87.5374493  11.8130581  52.3852476  89.9449999  14.7108044  51.9609835
  90.2273242  13.9159450  51.7396591  90.6736160  15.1888632  51.9814896
  90.0939563  14.6642641  51.9312850  93.5401601  11.6236308  42.0614887
  93.4552897  12.4797275  42.2064455  94.0285985  11.3480632  42.7297046
  93.5990499  11.7093629  42.1816968  94.4720035   8.2421102  43.5612622
  93.9431506   8.4580736  44.2209928  94.9945055   8.9357241  43.4813591
  94.4708488   8.3764239  43.6468221  99.9268088  13.8167407  48.9345666
  99.0965791  14.0278050  49.0979083  99.8777340  12.9904461  48.6587950
  99.7974823  13.7257013  48.9183032  86.3619642  12.1384319  42.3620090
  85.7776858  12.6434350  42.7685954  85.9589738  11.9126706  41.6216682
  86.2158946  12.1792567  42.3125115  81.9163671  17.8539080  49.1643761
  81.4331249  18.5789570  49.1403345  82.7286989  18.1515210  49.2753919
  81.9654419  18.0041434  49.1771040  87.9877825  16.6471261  51.7693576
  87.4704767  16.2878676  51.1654884  88.6852216  16.1233435  51.7799642
  88.0143406  16.5168949  51.6823834  91.6441417  17.0966075  57.7309749
  91.7324763  16.9092215  58.5787959  92.0731130  16.4503504  57.3314595
  91.7203520  16.9729082  57.7981500  89.2111877  16.3797235  56.7127411
  88.6482712  15.9669845  57.2367072  89.9732900  16.3050140  57.1320554
  89.2406326  16.3074635  56.8520411  90.8196857   8.3849971  40.8389010
  91.0592861   8.5927955  40.0264353  91.1412698   7.5807480  40.9477955
  90.9034015   8.2964072  40.7349563  84.7707868  18.3695256  49.3164041
  85.4728448  17.8547245  49.3736798  84.6905351  18.6969407  50.1210916
  84.8631629  18.3409482  49.4436833  85.8186775   8.6070843  58.4444456
  85.9907279   8.4976737  59.2929738  86.3556132   9.2525248  58.2075648
  85.9231779   8.6862844  58.5349553  84.0958644  14.5601608  48.8249649
  84.9347543  14.7924541  48.8723411  84.1270413  13.6905919  48.7556684
  84.2240361  14.4658554  48.8214294  84.7211347  14.9802483  53.1262955
  85.2609572  14.8373614  53.7966327  84.0381293  15.3799234  53.4946981
  84.7003501  15.0182154  53.2797376  94.1452232  10.6593484  48.3207979
  94.9009747  11.0924998  48.3596888  94.2514556  10.0098253  48.8942615
  94.2722402  10.6270968  48.4106005  97.1832403  14.4866761  49.0710382
  96.7467635  14.4903503  49.8269353  96.8495318  15.1672260  48.6389959
  97.0695023  14.5879217  49.1191214  91.7561476  16.5275094  60.3953532
  92.5401893  16.6405942  60.7609274  91.5558071  15.7016231  60.5912218
  91.8427502  16.4221813  60.4787918  80.1248492  11.2002774  53.2797376
  79.8586907  10.3841891  53.4388366  80.1387056  11.2455929  52.4092892
  80.0873214  11.0859679  53.1750858  84.0306239   5.9987858  39.8949134
  83.3164416   5.7126038  40.3071567  84.5150208   6.3384484  40.5355522
  83.9965602   6.0069508  40.0504769  91.9131870  18.4385196  54.0419988
  91.1147116  18.1984696  54.2993856  92.3617881  18.4899589  54.7887035
  91.8606481  18.4107587  54.1904912 100.3176749  11.2047681  47.9630019
 100.9793183  10.6438349  47.8625928  99.6768161  10.7099712  48.2882710
 100.3205617  11.0484090  47.9962359  91.2053557  14.5017812  40.2710942
  91.6204705  14.1702836  39.5795438  90.3745486  14.2686714  40.1431079
  91.1441565  14.4189068  40.1501790  80.5341906  11.9861553  50.5609120
  80.3517479  11.9608439  49.7081413  81.2691574  12.4560491  50.5998029
  80.6155969  12.0522915  50.4407039  96.6041580  12.2213063  47.7042008
  96.8397169  12.3658262  46.8768859  96.7531143  12.9855471  48.0973522
  96.6607383  12.3552118  47.6405612  83.5987657   8.7046556  57.0691229
  84.3227630   8.6899587  57.5556124  83.7003794   9.4141911  56.5713197
  83.7205866   8.8071259  57.0670016  98.4332036  11.0614729  45.5411612
  98.7640254  11.5942369  44.9351707  99.0065125  11.1153617  46.1973563
  98.5665716  11.1484298  45.5489393  90.9732607  12.1845641  61.9340176
  90.1805587  12.4989153  62.1192796  91.0881534  12.3997109  61.0960961
  90.8728017  12.2629477  61.8378511  93.6463926   8.9079632  46.2235192
  93.7410780   9.6468926  46.6774817  93.0222769   8.4797107  46.6569756
  93.5672956   8.9540952  46.3543339  91.9016399  12.0865844  56.8725473
  92.4755261  11.4493089  57.0274037  91.8231203  12.0869927  56.0035130
  91.9749634  11.9930956  56.7671884  80.5012816   8.8655054  50.7108187
  81.0786319   8.7291505  51.3500432  79.8026878   8.4090838  50.9653771
  80.4833837   8.7777320  50.8430477  93.8986947  10.7528372  39.4572144
  93.8167109  10.8230559  40.3227131  94.5366667  11.3158116  39.2655884
  93.9806784  10.8467343  39.5562093  87.2580118  10.5189110  48.9246670
  86.9999362   9.6860844  48.8977970  87.3128601  10.7446723  48.0839171
  87.2279896  10.4286881  48.7966807  86.2314830   8.0726872  49.4111565
  85.6564421   8.2319040  50.0475526  85.8550507   7.4362281  48.9480015
  86.0917643   8.0024685  49.4366123  89.8988119   6.5450221  54.2703943
  89.5102552   6.1204439  53.6156135  89.2342817   6.7932371  54.7780970
  89.7435047   6.5188942  54.2491811  75.9771649   7.7166947  47.4256006
  76.0631901   7.3398815  48.2069535  76.6047447   7.3427392  46.9475964
  76.0828200   7.6052429  47.4701483  91.0027057  10.7748826  42.4680750
  91.8167696  11.0663719  42.3563522  90.9386198  10.1208688  41.8939043
  91.1129796  10.7214021  42.3669588  97.2236547  13.4574822  56.8810326
  96.9875185  12.6262887  56.7622387  97.8679776  13.4060429  57.4665170
  97.2831218  13.3272510  56.9496220  86.8734965  14.2470343  47.5953062
  87.5108912  14.0082091  48.1404856  87.2990037  14.4507502  46.8606223
  87.0311132  14.2421354  47.5670220  81.5647608  16.4858680  51.4787366
  81.6051753  16.7573531  50.6507146  82.1242132  17.0100588  51.8945154
  81.6530954  16.6034435  51.4179254  87.5137780   9.4672633  41.9327952
  87.8982933   9.2480340  42.6844497  87.2649401  10.2935579  42.0629028
  87.5339853   9.5570779  42.0629028  98.2472968  13.2419271  52.9438620
  97.9418785  13.9747328  53.3051936  97.5279184  12.8357200  52.6631407
  98.0960310  13.2901004  52.9551758  89.2556437  14.7242766  49.2746849
  89.3295446  14.5617938  50.1288699  90.0725944  14.9132956  49.0307330
  89.3872796  14.7279508  49.3644874  83.0162194  15.0700629  46.3041292
  82.1900312  15.3162366  46.1775571  83.0774185  14.9912710  47.1703350
  82.9036361  15.0945578  46.4130237  87.7961023  17.6877509  44.0060322
  88.0859321  17.2966490  43.2819549  88.5264504  17.8694214  44.4465597
  87.9467907  17.6571323  43.9643129  88.3855768  12.4895255  55.0913453
  87.8867462  13.2011023  55.1698341  89.1955993  12.8095922  55.0531615
  88.4311875  12.6422104  55.0970021  85.7366939  19.6644892  47.0720472
  85.5167234  19.3742246  47.8647139  85.5161461  19.0059847  46.5438384
  85.6714533  19.5244600  47.1109380  84.6483886  11.7518208  49.3376173
  84.3597134  11.1255679  49.8721901  85.5167234  11.6938495  49.4040854
  84.7344138  11.6505752  49.4267128  87.9034894  21.0374281  45.8551164
  88.5558952  20.5050724  46.0842190  87.2060503  20.6842934  46.2419038
  87.8965612  20.9063804  45.9463332  84.8516159  13.3913459  45.2618538
  85.6062127  13.7726498  45.4754001  84.2586772  13.8424603  45.7165235
  84.8752873  13.5142286  45.3601417  95.8974813  13.3578695  45.1982143
  96.4632845  14.0171905  45.1140686  95.2502716  13.7028394  45.6698546
  95.8853569  13.5060637  45.2554900  87.3122826   5.3476299  60.3875751
  86.5022602   5.6534079  60.2765593  87.7897513   6.0681882  60.5028335
  87.2626305   5.4990901  60.3882822  86.1714386  14.5622020  50.6358654
  85.6495139  14.7022312  51.3210519  86.5588406  13.8032685  50.8260771
  86.1518087  14.4707544  50.7659730  83.1605570   4.6127829  44.7053609
  82.8730366   4.2429100  43.9685556  83.8476038   5.0822684  44.4437313
  83.2194467   4.6274799  44.5568684  92.3681391  16.3017480  44.6219223
  92.1268067  15.5685340  44.2146288  92.5482724  16.8504337  43.9685556
  92.3589015  16.2739871  44.4649446  87.5980711  11.5926039  46.0340145
  87.4023494  12.2000774  45.4400448  87.8215057  10.8993983  45.5531819
  87.6015352  11.5803565  45.8756226  85.9959241   8.4780777  46.1521013
  86.7181893   8.6421935  45.6924819  85.5167234   9.1990442  46.0460353
  86.0322972   8.6079007  46.0686627  83.6466858  10.8838850  55.2575153
  84.1587955  11.1623103  54.6083913  83.3603201  11.6228144  55.6237966
  83.6801721  11.0341203  55.2165031  97.8310273  10.0212563  48.8178940
  97.7444247  10.1767989  49.6713719  97.3760753  10.6650638  48.4438345
  97.7513529  10.1388318  48.8886047  80.7333764   5.3909042  45.5538890
  80.8349901   6.1935203  45.8819865  81.5289651   5.1896378  45.2561970
  80.8661670   5.4794940  45.5574245  81.5497497   5.5056220  53.2960011
  81.4082988   4.6540160  53.4204519  81.8338060   5.5484880  52.4722217
  81.5705343   5.3855970  53.1927635  95.5984138  14.0506669  51.2291281
  95.4598497  14.7487715  51.7340023  94.8184136  13.8955326  50.8727462
  95.4627365  14.1306836  51.2517555  93.9362223  10.3503045  57.4813662
  93.9310261   9.4782861  57.4856089  94.6423217  10.5491214  57.0083118
  94.0407227  10.2506919  57.4120698  87.6633116  10.0780029  56.8527483
  87.8076492  10.6581237  56.2170593  88.0108765  10.4556325  57.5577337
  87.7360578  10.2200733  56.8626477  89.8353034   9.2770197  54.6352614
  89.0876348   9.4701211  54.2300892  89.9894559   8.4515417  54.3976735
  89.7475461   9.1835308  54.5398020  86.7360871  18.2682800  53.7188509
  86.8850435  17.7085716  53.0661914  87.5160873  18.3474802  54.1021028
  86.8734965  18.1968366  53.6785459  97.0937511  13.4084923  41.9907780
  96.7144319  12.6222061  41.9837069  96.4303756  13.9571780  41.8479424
  96.9395985  13.3729747  41.9688577  89.2614172  18.4397443  54.9973000
  89.1857843  17.7706254  55.5523788  89.1904031  19.1415231  55.5113666
  89.2394779  18.4442351  55.1549848  89.9184419  16.9598442  45.8296606
  90.6834310  16.6908086  45.5079270  89.8162509  16.4748453  46.5466669
  90.0165914  16.8488007  45.8876434  92.4403079  13.9910626  37.8096555
  93.2076064  14.0510751  37.4002407  91.9934388  13.4191067  37.3252874
  92.4876506  13.9147202  37.6774266  93.3380875  12.7965282  50.0949288
  92.6625877  12.5650514  50.5962675  93.3473251  12.1886465  49.4691393
  93.2399379  12.6724207  50.0765440  90.4675019   7.6383111  56.8513341
  90.4034160   8.4993067  56.7233477  90.6072206   7.3215104  56.0508892
  90.4790489   7.7183277  56.7141554  95.3397609  15.6530414  42.3259466
  95.4217447  16.4597400  42.0020917  95.8247352  15.6726373  43.0500239
  95.4234767  15.7751077  42.3846364  89.1494113  10.3315250  50.9929544
  88.7256362  10.5319749  50.2568562  88.9738968   9.4844098  51.1053844
  89.0604993  10.2364032  50.9003234  88.6505806  21.8465763  53.4551001
  89.1401736  21.1476552  53.2726666  88.0790038  21.5489633  54.0427058
  88.6390336  21.6991987  53.5152042  84.4376558  10.8267302  46.4257516
  84.5941177  10.7614104  47.2813508  84.7777151  11.6015854  46.2136196
  84.5109792  10.9316500  46.5212110  90.9755702  10.2025185  45.2950879
  91.5171248   9.6995566  45.7589500  91.2902261  10.1490380  44.4840365
  91.1020099  10.1204606  45.2434692  94.8472810  14.4127832  62.4077792
  95.6607675  14.1412981  62.5682924  94.6867776  14.1135372  61.6037988
  94.9442758  14.3282758  62.3123198  89.1442152  15.5942537  42.5790907
  89.2134972  14.7357075  42.7183908  89.9230607  15.8114418  42.2509932
  89.2695002  15.4995401  42.5508065  93.5349640  18.0180238  46.7927401
  93.1429431  17.7146953  46.0750267  93.6902712  18.8549328  46.6032355
  93.5003229  18.0964075  46.6583898  81.0110819   8.0102252  46.7418283
  81.3909784   8.4286797  46.0778551  80.4366184   8.5915708  47.0487127
  80.9822144   8.1580111  46.6895024  93.6989314  14.5830227  46.7333431
  93.3403969  14.7544870  47.5097464  93.2128025  15.0443432  46.1761430
  93.5748011  14.6769198  46.7658700  88.4877680  10.2629392  39.2733666
  88.7770205  11.0394275  39.5477240  88.5749479   9.7518124  39.9748165
  88.5431936  10.3021311  39.4176164  91.3837567   8.1110626  61.0685189
  91.8537198   8.7352743  61.4553063  91.4299447   7.4427602  61.6278404
  91.4605443   8.1045307  61.2085261  94.8594054  15.4734123  57.6800632
  95.4973774  14.9794318  57.3463088  94.2168145  15.4011523  57.0952859
  94.8588280  15.3893131  57.5442987  94.9148310  16.1653931  54.3205989
  95.7040688  15.8142996  54.4408071  95.0891908  16.9790319  54.0582623
  95.0568592  16.2339788  54.2993857  84.6541621   9.5762657  51.3733778
  83.8129627   9.4766531  51.5812672  84.8631629  10.3458137  51.7248098
  84.5606313   9.6754700  51.4561093  82.1317188   7.1982194  49.2018528
  81.7373885   7.2725206  48.4268638  81.5757304   7.5840140  49.7526890
  81.9920000   7.2663968  49.1686188  88.4658286   7.5044056  50.6231375
  88.1621423   6.9500044  51.2241783  87.7637706   7.6836266  50.1359410
  88.3174495   7.4488838  50.6401081  86.5276637  14.7193777  55.3303473
  86.4196991  14.7295839  56.1965531  86.7372418  15.5448557  55.1408427
  86.5426748  14.8434851  55.4307565  84.5450429  11.9706419  52.7925411
  83.9538362  12.6115917  52.7628426  85.3071452  12.3944036  52.7656710
  84.5698689  12.1282257  52.7840558 100.6640850  11.8012189  53.7902689
 100.7223974  12.2498837  54.5362665 100.0307318  12.2111002  53.3532769
 100.5792145  11.9285923  53.8355237  94.3039945  17.4215731  50.2257435
  94.1059633  17.9106545  49.5313647  93.6827656  17.6256972  50.8041569
  94.1827509  17.5232269  50.2080658  88.3647923   9.1900627  44.5667679
  89.1089968   9.5774904  44.8050629  88.5108619   8.3458053  44.7308167
  88.4958508   9.1231100  44.6261649  81.7298829   6.7597607  55.8345145
  82.5924442   6.6593317  55.7482474  81.3990612   6.1792317  55.2730717
  81.8084025   6.6589234  55.7390550  97.6162530   9.8228476  51.8768379
  97.3760752   8.9834892  51.8810806  98.0954537   9.9028643  52.6009153
  97.6514713   9.7109876  51.9843182  96.2213747  10.9879883  55.7602684
  96.9447946  10.5352409  55.5813703  95.9563709  11.2684549  54.9775011
  96.2895020  10.9630851  55.6181399  85.0900615   5.5840056  52.4955563
  84.4653685   5.5958448  51.8881515  84.7546210   6.0600232  53.1446803
  84.9486107   5.6558573  52.5012131  81.8026291  13.6440517  53.9359327
  81.2726215  12.9532955  53.9854302  82.0751384  13.6350702  53.1072036
  81.7651013  13.5407648  53.8206743  92.8346381  14.2266219  42.6597010
  93.5580580  14.6924332  42.5161583  92.3946972  14.2939829  41.9094607
  92.8762073  14.3050056  42.5281791  92.0032536  11.0863761  53.9097699
  91.3889529  10.5421811  54.2046334  92.5199821  10.5727998  53.4303515
  91.9888199  10.9300170  53.8821927  91.2428833  12.1568031  51.6441997
  90.8156441  11.5317750  51.2107433  91.2353778  11.8742953  52.4701004
  91.1787975  12.0220812  51.7021825  84.3591360   7.1933204  54.7130431
  84.5184847   6.4376528  55.1182153  84.1784254   7.7424144  55.3671169
  84.3556719   7.1627018  54.8693137  77.0822133  10.3168281  51.2927675
  76.9765582  10.2715125  50.4279759  76.3322353  10.6622061  51.5741960
  76.9557736  10.3609189  51.2065005  88.0345478  11.3268344  59.3410570
  87.1841109  11.4640058  59.4768215  88.1973606  10.5932122  59.7858272
  87.9329342  11.2382445  59.4266169  87.2730229   8.2768114  53.5364175
  86.4422158   8.4441932  53.3299423  87.2181746   7.9004065  54.3213060
  87.1419644   8.2457845  53.6212703  85.6466272   6.5523705  44.0654292
  85.7869234   7.0496170  44.7682934  86.1448805   5.8510000  44.2068506
  85.7407353   6.5225684  44.1905871  85.6766495   7.4190816  41.3946869
  86.3111574   8.0151241  41.3296331  85.7592106   7.1194274  42.2092739
  85.7823046   7.4631725  41.5049956  90.4842451  14.3723666  54.8891127
  89.9767542  14.9259513  55.3331758  90.1869097  14.4331956  54.0709902
  90.3647335  14.4629977  54.8339584  82.1819483   9.6158657  44.6636415
  82.6911712  10.2123165  45.0447721  82.6553755   9.3484631  43.9812835
  82.3262858   9.6644473  44.6190938  93.0950231  18.2886924  42.8195071
  92.3779541  18.1147786  42.3542308  93.7456968  18.0539496  42.2870557
  93.0852081  18.2282716  42.6724289  89.7284936  19.3048224  51.7948134
  89.5050590  18.5467054  52.1632160  89.2394779  19.3346246  51.0728574
  89.6228385  19.1970449  51.7424875  84.5410015   6.2514916  47.5309596
  83.8222004   6.6679048  47.7982459  84.9122377   6.8169154  46.9801234
  84.4901946   6.3964197  47.4892403  91.7855925  13.4729957  59.3460068
  91.7451780  12.8279634  58.7605224  92.5979243  13.4166574  59.6585480
  91.8999079  13.3688923  59.3057017  88.3763393  19.5248682  49.2485219
  87.9623791  18.8622813  48.8589060  89.0610767  19.6726541  48.7280913
  88.4161764  19.4489341  49.1141716  91.7428687  18.6838768  50.0008835
  91.3444970  18.7941038  49.2329656  91.1279906  18.8920834  50.5835395
  91.5927576  18.7312336  49.9740135  87.4733634   7.1026893  55.9009825
  86.9612537   6.4948076  56.2594857  87.3013130   7.8183486  56.3683801
  87.3723271   7.1190192  56.0226049  82.3199349   5.5464468  58.5512187
  82.1501939   6.2065843  58.0060394  81.8765298   5.7571030  59.2724676
  82.2298682   5.6750451  58.5773817  99.4770530  13.2590734  43.3851926
  99.8604135  14.0082091  43.6150023  98.6814643  13.5056554  43.1263915
  99.4164312  13.4060428  43.3809499  79.2201413   8.4511334  53.8100677
  78.6728133   7.7811980  53.9281545  80.0093791   8.0841182  53.8744144
  79.2553597   8.2976320  53.8369378  89.0685822   8.1118791  59.3064088
  89.8197148   8.4270468  59.6203642  89.2608398   7.9097962  58.4798010
  89.2077236   8.1286173  59.2307484  88.2885821   5.9310166  40.9612305
  88.6684786   5.9489795  40.1763420  87.5478417   6.3764155  40.8403152
  88.2354659   5.9991941  40.8275873  77.9788383   7.6632142  50.9646700
  77.8010144   7.2108751  51.6901616  77.6907405   8.4658303  51.1485178
  77.9101336   7.7154700  51.0990203  93.6411964   8.9189859  50.2024090
  94.1365629   8.2012854  50.1628111  92.8311739   8.6160657  50.0878577
  93.5955857   8.7687505  50.1797816  89.0870575  12.7687672  42.3521095
  88.2781898  12.4454346  42.3054404  89.5945484  12.0620895  42.2849344
  89.0420242  12.6168989  42.3351389  79.7160852  10.1959866  48.0768459
  78.8506372  10.1845556  47.9651230  79.8159668  10.0090088  48.9239598
  79.6035019  10.1665927  48.1857404  95.7063783  11.6693547  52.8901219
  96.1318854  11.1467969  52.3371644  95.3420702  12.2674384  52.3689842
  95.7150385  11.6803774  52.7310229  85.3417862  19.9657764  51.6498565
  85.6564421  20.7794153  51.6576346  85.7511276  19.5807983  52.3180724
  85.4485960  20.0286467  51.7502656  92.2942382  15.3827811  49.2202377
  92.7653560  16.0968074  49.3892362  92.6302561  14.7826561  49.7562246
  92.4137497  15.3999275  49.3234753  94.3819367  16.9929124  61.3994449
  94.4916332  16.2037685  61.7551196  94.7110263  16.9035061  60.5968787
  94.4471772  16.8634977  61.3336839  92.9316328  15.1745745  55.9830069
  92.3837274  14.5503629  55.7150135  93.3929357  15.3640017  55.2674149
  92.9183538  15.1104795  55.8380500  82.6830882  13.9130873  51.2977173
  83.2875740  13.8726707  50.6690994  82.4758195  14.7602025  51.3281229
  82.7419780  14.0318875  51.2093290  92.4974655  16.1796818  52.5139410
  93.3173028  16.0359784  52.7755706  92.2168732  16.8043017  53.0555848
  92.5771398  16.2507170  52.6327350  77.9182165  12.8965490  51.1676096
  77.8206443  12.0861762  51.4766153  78.7011034  12.8757284  50.7822364
  78.0198301  12.7732580  51.1562959 108.9688305  23.8361669  45.4782287
 108.9382309  24.6906306  45.6500556 109.5669654  23.5356962  46.0368430
 109.0525463  23.9178166  45.5857089 102.1687990  22.9237320  50.2335217
 101.3125885  23.0845819  50.2844334 102.2155644  22.0529384  50.2540278
 102.0487101  22.8188122  50.2441283  96.5529130  32.4600038  45.9972449
  95.8012029  32.0815577  45.7688494  97.0015141  32.4918472  45.2491259
  96.5078796  32.4085646  45.8529951 105.4781706  29.1923846  59.8395673
 106.1848474  28.6975877  59.9682608 105.6669642  29.6332928  59.1098331
 105.6109612  29.1842196  59.7504719 102.0054089  32.8825408  41.4257996
 101.6705458  33.5602329  40.9902218 102.5180960  32.4930719  40.8374868
 102.0319671  32.9249986  41.2744787 101.5458381  34.8339677  47.3669108
 101.9297760  35.4026575  46.8273883 101.4817522  34.1089187  46.8874924
 101.5931808  34.8115140  47.2162970 105.0139811  24.9829364  52.8766869
 105.5595771  25.6614451  52.9360839 104.9556687  24.8416825  52.0168450
 105.0855725  25.0621366  52.7578929  98.1313886  32.4718431  48.2635221
  98.2324249  31.6618784  48.5732349  97.5355631  32.3775377  47.6334900
  98.0586424  32.3383459  48.2161460 106.7904880  26.4113972  43.7500597
 106.6744405  27.1621658  44.1792735 107.5860766  26.1537925  43.9996684
 106.8909469  26.4848818  43.8504688  97.9714625  37.3896020  49.6650077
  98.6152081  37.8309184  50.0546236  98.2970881  36.5849446  49.5780336
  98.1146454  37.3361214  49.7095555  91.3278930  28.4938717  47.8887555
  91.0929114  27.6606369  47.7819824  91.4664571  28.7743383  47.0748756
  91.3134592  28.4122221  47.7529910  93.6269017  20.6624448  50.7871863
  93.0074049  20.0717095  50.6181877  93.5252881  21.2535883  50.1536186
  93.5206693  20.6628530  50.6676852  98.6735205  30.4007995  45.0369939
  98.9951046  30.9413202  44.4331247  99.3207302  29.8304766  45.1692229
  98.8161260  30.3967170  44.9676974 100.7236913  22.4023989  45.1204326
 101.4217078  22.5812117  45.6125789 101.0389246  21.8794329  44.4974715
 100.8732250  22.3517762  45.1006336  93.3538150  24.2076729  53.0315432
  93.2296847  24.7939175  53.6665251  94.0056435  23.7136925  53.3327707
  93.4311800  24.2215534  53.1701361 100.9124848  28.7894435  45.1084117
 101.3518484  28.1811535  45.5538890 100.7629511  28.4101808  44.3369582
 100.9546314  28.6432906  45.0603285  98.3796491  27.3838446  52.3102943
  99.0245494  26.8910889  51.9913891  98.6198269  27.5263233  53.1369021
  98.5107077  27.3315889  52.3852476 100.9182583  30.2293352  51.9609835
 101.2005826  29.4344758  51.7396591 101.6468743  30.7073940  51.9814896
 101.0672147  30.1827949  51.9312850  98.8963777  17.7716386  49.2025600
  98.5667107  18.2227530  48.5329299  98.2208778  17.6932549  49.7498607
  98.7474213  17.8267521  49.1848824 104.5134185  27.1421616  42.0614887
 104.4285480  27.9982582  42.2064455 105.0018568  26.8665940  42.7297046
 104.5723082  27.2278937  42.1816968 106.1040184  13.7601909  47.4475211
 105.7893625  14.4505388  47.8795633 105.5867126  13.7046691  46.7460712
 105.9804655  13.8536798  47.4072160 105.4452618  23.7606410  43.5612622
 104.9164090  23.9766044  44.2209928 105.9677638  24.4542548  43.4813591
 105.4441071  23.8949547  43.6468221 110.9000671  29.3352714  48.9345666
 110.0698374  29.5463358  49.0979083 110.8509923  28.5089769  48.6587950
 110.7707407  29.2442321  48.9183032  97.3352226  27.6569627  42.3620090
  96.7509441  28.1619658  42.7685954  96.9322321  27.4312014  41.6216682
  97.1891530  27.6977875  42.3125115  92.8896255  33.3724388  49.1643761
  92.4063833  34.0974878  49.1403345  93.7019573  33.6700518  49.2753919
  92.9387002  33.5226742  49.1771040  98.9610409  32.1656569  51.7693576
  98.4437350  31.8063984  51.1654884  99.6584800  31.6418743  51.7799642
  98.9875990  32.0354257  51.6823834 102.6174001  32.6151383  57.7309749
 102.7057347  32.4277523  58.5787959 103.0463713  31.9688812  57.3314595
 102.6936103  32.4914390  57.7981500 100.1844460  31.8982543  56.7127411
  99.6215295  31.4855152  57.2367072 100.9465484  31.8235448  57.1320554
 100.2138909  31.8259943  56.8520411 101.7929440  23.9035279  40.8389010
 102.0325444  24.1113263  40.0264353 102.1145281  23.0992788  40.9477955
 101.8766598  23.8149380  40.7349563  97.1019731  15.8328675  44.6848548
  97.8565699  16.2006992  44.4465598  96.9247265  16.2068229  45.4527728
  97.1874209  15.9426862  44.7633437  95.7440452  33.8880564  49.3164041
  96.4461031  33.3732553  49.3736798  95.6637935  34.2154715  50.1210916
  95.8364212  33.8594790  49.4436833 110.3954629  21.9823115  52.7296087
 109.5583051  22.0525302  52.9643682 110.3642860  21.9847610  51.8570390
 110.2672912  21.9933342  52.6355635  96.7919359  24.1256151  58.4444456
  96.9639862  24.0162045  59.2929738  97.3288716  24.7710556  58.2075648
  96.8964362  24.2048152  58.5349553  95.4576795  18.2398994  41.3826661
  95.2752369  18.4570874  40.5567654  96.3202408  18.3538006  41.4385276
  95.5581385  18.2888891  41.2681148  95.0691227  30.0786916  48.8249649
  95.9080127  30.3109849  48.8723411  95.1002997  29.2091227  48.7556684
  95.1972945  29.9843862  48.8214294  95.6943930  30.4987791  53.1262955
  96.2342155  30.3558922  53.7966327  95.0113877  30.8984542  53.4946981
  95.6736084  30.5367462  53.2797376 101.1376515  15.2425404  44.4175685
 101.8662675  15.0641359  43.9713841 101.2271407  16.0843484  44.6282863
 101.2583177  15.3409283  44.3829203 105.1184815  26.1778792  48.3207979
 105.8742330  26.6110306  48.3596888 105.2247140  25.5283561  48.8942615
 105.2454986  26.1456275  48.4106005 108.1564986  30.0052069  49.0710382
 107.7200218  30.0088811  49.8269353 107.8227902  30.6857568  48.6389959
 108.0427606  30.1064525  49.1191214 102.7294060  32.0460402  60.3953532
 103.5134477  32.1591249  60.7609274 102.5290655  31.2201539  60.5912218
 102.8160085  31.9407121  60.4787918  91.0981075  26.7188082  53.2797376
  90.8319491  25.9027198  53.4388366  91.1119640  26.7641237  52.4092892
  91.0605798  26.6044987  53.1750858 108.0762469  17.0465897  51.3139810
 108.7188378  17.1164001  51.9001725 108.3285490  16.3795120  50.8119352
 108.2084601  16.9592245  51.3267089  95.0038822  21.5173166  39.8949134
  94.2897000  21.2311346  40.3071567  95.4882791  21.8569792  40.5355522
  94.9698186  21.5254816  40.0504769  95.8479682  20.2566460  55.9264384
  95.1551479  19.7863440  56.1725115  96.4640009  20.0304765  56.5006091
  95.8364212  20.1533592  56.0473536 102.8864453  33.9570504  54.0419988
 102.0879699  33.7170004  54.2993856 103.3350465  34.0084897  54.7887035
 102.8339065  33.9292895  54.1904912 111.2909333  26.7232989  47.9630019
 111.9525767  26.1623657  47.8625928 110.6500745  26.2285019  48.2882710
 111.2938200  26.5669398  47.9962359 102.1786140  30.0203120  40.2710942
 102.5937289  29.6888144  39.5795438 101.3478070  29.7872022  40.1431079
 102.1174149  29.9374376  40.1501790  91.5074489  27.5046861  50.5609120
  91.3250062  27.4793747  49.7081413  92.2424158  27.9745799  50.5998029
  91.5888553  27.5708223  50.4407039 107.5774163  27.7398371  47.7042008
 107.8129752  27.8843570  46.8768859 107.7263727  28.5040779  48.0973522
 107.6339967  27.8737426  47.6405612  94.5720241  24.2231864  57.0691229
  95.2960213  24.2084895  57.5556124  94.6736377  24.9327219  56.5713197
  94.6938450  24.3256567  57.0670016 109.4064620  26.5800037  45.5411612
 109.7372837  27.1127677  44.9351707 109.9797708  26.6338925  46.1973563
 109.5398299  26.6669606  45.5489393 101.9465190  27.7030949  61.9340176
 101.1538171  28.0174460  62.1192796 102.0614117  27.9182417  61.0960961
 101.8460601  27.7814785  61.8378511 104.6196509  24.4264940  46.2235192
 104.7143364  25.1654234  46.6774817 103.9955353  23.9982415  46.6569756
 104.5405539  24.4726260  46.3543339 102.8748983  27.6051152  56.8725473
 103.4487845  26.9678397  57.0274037 102.7963787  27.6055235  56.0035130
 102.9482218  27.5116264  56.7671884  91.4745399  24.3840362  50.7108187
  92.0518902  24.2476813  51.3500432  90.7759461  23.9276146  50.9653771
  91.4566421  24.2962628  50.8430477 104.8719530  26.2713680  39.4572144
 104.7899693  26.3415867  40.3227131 105.5099251  26.8343424  39.2655884
 104.9539368  26.3652651  39.5562093  98.2312702  26.0374418  48.9246670
  97.9731946  25.2046152  48.8977970  98.2861184  26.2632031  48.0839171
  98.2012479  25.9472189  48.7966807 103.3113752  18.1402868  49.0250763
 102.6070079  17.6512054  49.1834682 103.3598726  18.1525343  48.1539207
 103.2143803  18.0692516  48.9190103  97.2047414  23.5912180  49.4111565
  96.6297005  23.7504348  50.0475526  96.8283090  22.9547589  48.9480015
  97.0650226  23.5209993  49.4366123 100.8720702  22.0635529  54.2703943
 100.4835135  21.6389747  53.6156135 100.2075401  22.3117679  54.7780970
 100.7167630  22.0374250  54.2491811 110.5143972  21.8210534  47.0451773
 110.2580536  21.0090475  46.8549656 111.3573286  21.8288101  46.8181961
 110.6009997  21.7022531  46.9836590  86.9504233  23.2352255  47.4256006
  87.0364484  22.8584123  48.2069535  87.5780030  22.8612700  46.9475964
  87.0560784  23.1237737  47.4701483 104.6947064  15.7610158  51.7827928
 105.0757576  15.0788329  52.1695802 103.8910348  15.4719760  51.6003592
 104.6323526  15.6177207  51.8131983 101.9759641  26.2934134  42.4680750
 102.7900280  26.5849027  42.3563522 101.9118782  25.6393996  41.8939043
 102.0862380  26.2399329  42.3669588 108.1969131  28.9760130  56.8810326
 107.9607768  28.1448195  56.7622387 108.8412360  28.9245737  57.4665170
 108.2563802  28.8457818  56.9496220  97.8467549  29.7655651  47.5953062
  98.4841496  29.5267399  48.1404856  98.2722621  29.9692810  46.8606223
  98.0043715  29.7606662  47.5670220  92.5380191  32.0043988  51.4787366
  92.5784337  32.2758839  50.6507146  93.0974715  32.5285896  51.8945154
  92.6263537  32.1219743  51.4179254  98.4870364  24.9857941  41.9327952
  98.8715517  24.7665648  42.6844497  98.2381984  25.8120887  42.0629028
  98.5072437  25.0756087  42.0629028  98.6538904  18.2664356  61.6490536
  98.3392345  19.0363919  61.3860099  98.3328837  17.7034612  61.0642763
  98.5597823  18.2974625  61.5231886 109.2205551  28.7604579  52.9438620
 108.9151369  29.4932636  53.3051936 108.5011767  28.3542508  52.6631407
 109.0692894  28.8086312  52.9551758 100.2289021  30.2428074  49.2746849
 100.3028029  30.0803246  50.1288699 101.0458527  30.4318264  49.0307330
 100.3605380  30.2464816  49.3644874 114.9207344  25.3997579  52.2706965
 114.8531844  25.4193539  51.4009551 114.9063006  26.2427907  52.4962635
 114.9086100  25.5271314  52.1759442  93.9894778  30.5885937  46.3041292
  93.1632895  30.8347674  46.1775571  94.0506769  30.5098018  47.1703350
  93.8768945  30.6130886  46.4130237  96.2070801  16.6554878  47.2636732
  95.3393227  16.7277477  47.3294342  96.4946006  17.4576957  47.4524707
  96.1210549  16.7849025  47.3011499 105.3303690  16.8032737  55.5948054
 106.0757282  16.6142548  55.1811480 104.9140995  17.3290975  55.0361910
 105.3788664  16.8534883  55.4512627  98.7693607  33.2062817  44.0060322
  99.0591905  32.8151798  43.2819549  99.4997087  33.3879522  44.4465597
  98.9200491  33.1756631  43.9643129 112.7065961  24.1741966  50.5453559
 113.2573883  23.5410035  50.7850651 112.6910076  24.7057358  51.2369063
 112.7851157  24.1590914  50.6832417  99.3588352  28.0080563  55.0913453
  98.8600045  28.7196331  55.1698341 100.1688576  28.3281230  55.0531615
  99.4044459  28.1607412  55.0970021  96.7099522  35.1830199  47.0720472
  96.4899818  34.8927554  47.8647139  96.4894044  34.5245154  46.5438384
  96.6447116  35.0429908  47.1109380  95.6216469  27.2703516  49.3376173
  95.3329718  26.6440987  49.8721901  96.4899817  27.2123803  49.4040854
  95.7076721  27.1691060  49.4267128 106.4094367  22.4138299  49.6558155
 106.0659133  21.6928635  50.0065405 106.5087410  22.2052150  48.8136514
 106.3736410  22.2762503  49.5829835  98.8767478  36.5559589  45.8551164
  99.5291536  36.0236032  46.0842190  98.1793087  36.2028242  46.2419038
  98.8698196  36.4249112  45.9463332  95.8248743  28.9098767  45.2618538
  96.5794711  29.2911806  45.4754001  95.2319355  29.3609911  45.7165235
  95.8485456  29.0327594  45.3601417 106.8707396  28.8764003  45.1982143
 107.4365429  29.5357213  45.1140686 106.2235300  29.2213701  45.6698546
 106.8586153  29.0245945  45.2554900  98.2855410  20.8661607  60.3875751
  97.4755186  21.1719387  60.2765593  98.7630097  21.5867190  60.5028335
  98.2358889  21.0176208  60.3882822  97.1446969  30.0807328  50.6358654
  96.6227723  30.2207620  51.3210519  97.5320990  29.3217993  50.8260771
  97.1250670  29.9892852  50.7659730  94.1338153  20.1313137  44.7053609
  93.8462949  19.7614408  43.9685556  94.8208622  20.6007992  44.4437313
  94.1927051  20.1460106  44.5568684 103.3413974  31.8202788  44.6219223
 103.1000650  31.0870648  44.2146288 103.5215307  32.3689645  43.9685556
 103.3321598  31.7925179  44.4649446  98.5713295  27.1111347  46.0340145
  98.3756078  27.7186082  45.4400448  98.7947641  26.4179291  45.5531819
  98.5747936  27.0988873  45.8756226  96.9691825  23.9966085  46.1521013
  97.6914477  24.1607243  45.6924819  96.4899818  24.7175750  46.0460353
  97.0055556  24.1264315  46.0686627 104.9285333  20.3329884  51.5317698
 104.0896433  20.3591163  51.2955961 104.9989700  20.9800620  52.1123045
 104.8153726  20.4326010  51.5826815  94.6199442  26.4024158  55.2575153
  95.1320539  26.6808411  54.6083913  94.3335784  27.1413452  55.6237966
  94.6534305  26.5526511  55.2165031 103.3754611  17.2315261  46.2645314
 104.0780964  17.0323009  45.7865272 103.1098800  16.4591203  46.5714158
 103.4401243  17.0878227  46.2390756 108.8042856  25.5397871  48.8178940
 108.7176831  25.6953297  49.6713719 108.3493336  26.1835946  48.4438345
 108.7246113  25.6573626  48.8886047  91.7066348  20.9094350  45.5538890
  91.8082484  21.7120511  45.8819865  92.5022235  20.7081685  45.2561970
  91.8394254  20.9980248  45.5574245  98.1383167  18.4950546  55.3176195
  97.9466364  18.5105681  56.1675618  98.9881763  18.6914221  55.2942850
  98.2358889  18.5264897  55.4399489  92.5230080  21.0241528  53.2960011
  92.3815572  20.1725468  53.4204519  92.8070643  21.0670188  52.4722217
  92.5437926  20.9041278  53.1927635 102.6768672  22.8608618  47.4404499
 102.4303387  22.7804369  48.2741288 103.0053796  22.0762086  47.2467027
 102.6889916  22.7334883  47.5352023 106.5716721  29.5691977  51.2291281
 106.4331081  30.2673023  51.7340023 105.7916719  29.4140634  50.8727462
 106.4359948  29.6492144  51.2517555 104.9094806  25.8688353  57.4813662
 104.9042845  24.9968169  57.4856089 105.6155800  26.0676522  57.0083118
 105.0139810  25.7692227  57.4120698  98.6365700  25.5965337  56.8527483
  98.7809075  26.1766545  56.2170593  98.9841348  25.9741633  57.5577337
  98.7093161  25.7386041  56.8626477 100.8085617  24.7955505  54.6352614
 100.0608931  24.9886519  54.2300892 100.9627142  23.9700724  54.3976735
 100.7208045  24.7020616  54.5398020  97.7093455  33.7868108  53.7188509
  97.8583018  33.2271024  53.0661914  98.4893457  33.8660110  54.1021028
  97.8467548  33.7153674  53.6785459 108.0670094  28.9270231  41.9907780
 107.6876903  28.1407369  41.9837069 107.4036340  29.4757088  41.8479424
 107.9128569  28.8915055  41.9688577 100.2346755  33.9582751  54.9973000
 100.1590426  33.2891562  55.5523788 100.1636615  34.6600539  55.5113666
 100.2127362  33.9627659  55.1549848 101.0487394  18.6906056  55.5248018
 101.5060008  19.4230030  55.6520810 101.1243723  18.2672521  56.2835274
 101.1278364  18.7363294  55.6549094  93.2920385  18.9371875  56.6137462
  92.7562575  18.3252234  56.9298229  93.3538150  19.5120011  57.2671128
  93.2216018  18.9318803  56.7572888 100.8917002  32.4783750  45.8296606
 101.6566893  32.2093394  45.5079270 100.7895092  31.9933760  46.5466669
 100.9898498  32.3673315  45.8876434  98.9269772  20.6808160  52.3689842
  98.1365847  20.4999620  52.6907178  99.3230395  19.9035112  52.3520136
  98.8686648  20.5395620  52.4142390 103.4135663  29.5095934  37.8096555
 104.1808648  29.5696059  37.4002407 102.9666972  28.9376375  37.3252874
 103.4609090  29.4332510  37.6774266 104.3113458  28.3150590  50.0949288
 103.6358460  28.0835822  50.5962675 104.3205834  27.7071773  49.4691393
 104.2131963  28.1909515  50.0765440 101.4407602  23.1568419  56.8513341
 101.3766744  24.0178375  56.7233477 101.5804790  22.8400412  56.0508892
 101.4523072  23.2368585  56.7141554 106.3130193  31.1715722  42.3259466
 106.3950030  31.9782708  42.0020917 106.7979935  31.1911681  43.0500239
 106.3967351  31.2936384  42.3846364 100.1226696  25.8500558  50.9929544
  99.6988945  26.0505057  50.2568562  99.9471551  25.0029406  51.1053844
 100.0337577  25.7549339  50.9003234  99.6238390  37.3651071  53.4551001
 100.1134320  36.6661860  53.2726666  99.0522622  37.0674941  54.0427058
  99.6122920  37.2177295  53.5152042  95.4109141  26.3452609  46.4257516
  95.5673760  26.2799412  47.2813508  95.7509734  27.1201162  46.2136196
  95.4842376  26.4501808  46.5212110 101.9488286  25.7210493  45.2950879
 102.4903831  25.2180874  45.7589500 102.2634845  25.6675688  44.4840365
 102.0752683  25.6389914  45.2434692 105.8205393  29.9313140  62.4077792
 106.6340259  29.6598289  62.5682924 105.6600360  29.6320680  61.6037988
 105.9175342  29.8468066  62.3123198 100.1174736  31.1127845  42.5790907
 100.1867556  30.2542383  42.7183908 100.8963191  31.3299725  42.2509932
 100.2427586  31.0180709  42.5508065 103.0977555  20.6146798  55.3473180
 103.3119525  19.9757712  54.7936534 102.4811454  21.0592621  54.9181042
 103.0382884  20.5856941  55.2023611 104.5082223  33.5365546  46.7927401
 104.1162015  33.2332261  46.0750267 104.6635295  34.3734636  46.6032355
 104.4735813  33.6149383  46.6583898  91.9843403  23.5287560  46.7418283
  92.3642368  23.9472105  46.0778551  91.4098767  24.1101016  47.0487127
  91.9554728  23.6765419  46.6895024 105.2616643  22.2235863  56.2856487
 104.4493325  21.9161753  56.3669660 105.7206578  21.7434863  56.8499199
 105.2097028  22.1072355  56.3811081 104.6721898  30.1015535  46.7333431
 104.3136553  30.2730178  47.5097464 104.1860609  30.5628740  46.1761430
 104.5480595  30.1954506  46.7658700 102.4892284  13.7246733  50.3360523
 101.6185842  13.6985454  50.2893832 102.7432625  13.5523925  49.5186368
 102.3985844  13.6956877  50.2080659  99.4610263  25.7814700  39.2733666
  99.7502788  26.5579583  39.5477240  99.5482062  25.2703432  39.9748165
  99.5164520  25.8206618  39.4176164 102.3570151  23.6295934  61.0685189
 102.8269782  24.2538051  61.4553063 102.4032031  22.9612910  61.6278404
 102.4338027  23.6230614  61.2085261  99.5141424  15.7352962  51.7933993
  98.9979913  15.0433153  51.9185572  98.9535353  16.4023739  51.7396592
  99.3547938  15.7316219  51.8040059 101.5833658  16.2745922  53.6226846
 101.1965411  16.2994953  54.4040376 101.0966595  15.7087600  53.1701362
 101.4546167  16.1941673  53.6714749 105.8326637  30.9919431  57.6800632
 106.4706358  30.4979626  57.3463088 105.1900729  30.9196831  57.0952859
 105.8320864  30.9078439  57.5442987 107.5583637  22.8408577  52.2466548
 107.1311245  22.7534925  51.4914647 106.9209690  22.9486352  52.8321392
 107.4013245  22.8441236  52.2211989 101.2490800  13.1612907  55.9137106
 101.8783917  13.6973207  55.6358176 101.4176662  13.0690266  56.7650671
 101.3668594  13.2274269  55.9985634 101.0504714  17.9484102  58.1863517
 101.8778144  17.6769251  58.2422132 101.0712560  18.7444944  58.5427335
 101.1757564  18.0263856  58.2478700 105.8880894  31.6839239  54.3205989
 106.6773272  31.3328304  54.4408071 106.0624492  32.4975627  54.0582623
 106.0301175  31.7525096  54.2993857  95.6274204  25.0947965  51.3733778
  94.7862211  24.9951839  51.5812672  95.8364212  25.8643445  51.7248098
  95.5338897  25.1940008  51.4561093  93.1049771  22.7167502  49.2018528
  92.7106469  22.7910513  48.4268638  92.5489888  23.1025448  49.7526890
  92.9652584  22.7849276  49.1686188 104.7414718  15.6948796  48.8822407
 104.9464311  15.6271104  49.7279405 104.4141142  16.5007617  48.8143585
 104.7229966  15.8034736  48.9982063  99.4390869  23.0229364  50.6231375
  99.1354007  22.4685352  51.2241783  98.7370290  23.2021574  50.1359410
  99.2907079  22.9674146  50.6401081  98.4956966  20.3329884  45.1876077
  98.7716701  19.6148796  44.7753645  99.0955636  20.9314804  44.9797183
  98.6250231  20.3150254  45.0956838  97.5009220  30.2379085  55.3303473
  97.3929575  30.2481147  56.1965531  97.7105002  31.0633865  55.1408427
  97.5159331  30.3620159  55.4307565 107.9948406  16.2480560  48.3625173
 107.3822719  16.7350962  48.7478905 108.0912581  15.5724051  48.9062824
 107.9186303  16.2198869  48.5004031 101.9967487  18.0043401  43.4622672
 102.4511233  18.1753961  44.1870517 102.4707532  17.3911512  43.0620448
 102.1335807  17.9394286  43.5096434  95.5183012  27.4891727  52.7925411
  94.9270945  28.1301225  52.7628426  96.2804036  27.9129344  52.7656710
  95.5431273  27.6467565  52.7840558  95.9143635  18.6493725  53.4593428
  96.3745116  18.7232654  54.1968552  95.9599742  19.4474979  53.1093250
  95.9894190  18.7787872  53.5166185  97.5626985  19.3160420  58.0265455
  97.1712550  18.6693767  58.4621233  97.7312847  19.9071855  58.6459711
  97.5297895  19.3074687  58.1828161 111.6373434  27.3197497  53.7902689
 111.6956557  27.7684145  54.5362665 111.0039901  27.7296309  53.3532769
 111.5524729  27.4471231  53.8355237 105.2772528  32.9401039  50.2257435
 105.0792217  33.4291853  49.5313647 104.6560239  33.1442280  50.8041569
 105.1560093  33.0417577  50.2080658  99.3380507  24.7085935  44.5667679
 100.0822552  25.0960212  44.8050629  99.4841203  23.8643361  44.7308167
  99.4691092  24.6416408  44.6261649 101.2560082  16.5036194  49.5999541
 100.4096127  16.6759002  49.4740891 101.2531215  15.6985538  49.9365369
 101.1307232  16.4097223  49.6310668 102.3258383  20.2811409  50.4661599
 101.8518337  19.7553171  50.9766910 102.6976518  19.7340882  49.8976460
 102.3108272  20.1227405  50.4576746  92.7031413  22.2782915  55.8345145
  93.5657026  22.1778625  55.7482474  92.3723196  21.6977625  55.2730717
  92.7816609  22.1774542  55.7390550 108.5895113  25.3413784  51.8768379
 108.3493336  24.5020200  51.8810806 109.0687120  25.4213951  52.6009153
 108.6247297  25.2295184  51.9843182 104.2541882  21.1747963  43.5287353
 103.7264901  21.2576707  42.8393061 104.7137590  21.9165835  43.5251997
 104.2443733  21.2968626  43.4262048 110.5900300  22.1215242  49.8297638
 110.3510070  22.0811076  48.9918423 110.7534201  22.9686394  49.9563359
 110.5790604  22.2407327  49.7251120 107.1946330  26.5065191  55.7602684
 107.9180529  26.0537717  55.5813703 106.9296293  26.7869857  54.9775011
 107.2627604  26.4816159  55.6181399  96.0633199  21.1025364  52.4955563
  95.4386269  21.1143756  51.8881515  95.7278794  21.5785540  53.1446803
  95.9218691  21.1743881  52.5012131  96.2474947  19.4450483  38.5528248
  95.8987752  20.0970208  39.0159797  95.7671393  19.4307596  37.8252119
  96.1245191  19.5393536  38.5139339  92.7758874  29.1625824  53.9359327
  92.2458799  28.4718263  53.9854302  93.0483968  29.1536010  53.1072036
  92.7383597  29.0592956  53.8206743 103.8078965  29.7451527  42.6597010
 104.5313164  30.2109640  42.5161583 103.3679556  29.8125136  41.9094607
 103.8494657  29.8235364  42.5281791 102.9765120  26.6049069  53.9097699
 102.3622113  26.0607119  54.2046334 103.4932405  26.0913306  53.4303515
 102.9620782  26.4485478  53.8821927 102.2161417  27.6753339  51.6441997
 101.7889025  27.0503058  51.2107433 102.2086361  27.3928261  52.4701004
 102.1520558  27.5406120  51.7021825  95.3323944  22.7118512  54.7130431
  95.4917431  21.9561836  55.1182153  95.1516838  23.2609452  55.3671169
  95.3289303  22.6812326  54.8693137 103.2744247  14.8779748  55.2681221
 102.7784808  15.0743422  54.5772787 104.0313309  15.2772416  55.0970022
 103.3131072  14.9657482  55.1401357 100.5447127  18.5522094  51.8584531
 100.5689614  18.0182206  51.1697311 100.7958600  18.0439402  52.5210122
 100.5857045  18.3982998  51.8549176  88.0554716  25.8353589  51.2927675
  87.9498166  25.7900433  50.4279759  87.3054936  26.1807369  51.5741960
  87.9290319  25.8794497  51.2065005  96.8248449  17.2792912  51.2390276
  96.8646820  17.7802118  51.9524983  95.9998114  17.3703306  50.9696199
  96.7087975  17.3674728  51.3040814  99.0078062  26.8453652  59.3410570
  98.1573692  26.9825366  59.4768215  99.1706189  26.1117430  59.7858272
  98.9061925  26.7567753  59.4266169  98.2462812  23.7953422  53.5364175
  97.4154742  23.9627240  53.3299423  98.1914329  23.4189373  54.3213060
  98.1152227  23.7643153  53.6212703  96.0546596  17.2862315  59.1720585
  96.6799299  16.7424447  59.4450018  95.5997075  16.8057232  58.6028376
  96.0794856  17.1351796  59.1282179  96.6198856  22.0709013  44.0654292
  96.7601817  22.5681478  44.7682934  97.1181389  21.3695308  44.2068506
  96.7139937  22.0410992  44.1905871  96.6499078  22.9376124  41.3946869
  97.2844158  23.5336549  41.3296331  96.7324689  22.6379582  42.2092739
  96.7555629  22.9817032  41.5049956 109.6281644  25.4691602  54.2633233
 110.2199485  26.1088852  54.2951431 110.0640639  24.7714638  54.5525300
 109.7800075  25.4609952  54.3114066  98.2278061  18.8690100  41.3692311
  98.5493902  18.3893182  40.7151573  98.4905005  19.6789746  41.1783123
  98.3144087  18.9179998  41.2447803 101.4575034  29.8908974  54.8891127
 100.9500125  30.4444821  55.3331758 101.1601680  29.9517264  54.0709902
 101.3379919  29.9815285  54.8339584 103.6237216  18.2562294  53.7315790
 104.0492288  17.8034820  53.1199317 103.0094209  17.7022364  54.0080578
 103.5965862  18.1076270  53.6820815  93.1552066  25.1343965  44.6636415
  93.6644296  25.7308473  45.0447721  93.6286339  24.8669939  43.9812835
  93.2995442  25.1829781  44.6190938 104.0682814  33.8072232  42.8195071
 103.3512124  33.6333094  42.3542308 104.7189552  33.5724804  42.2870557
 104.0584665  33.7468024  42.6724289 102.0631439  14.7277393  47.1406367
 101.4199757  14.5775040  47.7091506 101.7230846  14.4819739  46.3755472
 101.9176516  14.6689516  47.1109382 106.6530786  22.6836820  46.5636376
 105.9821975  23.2266523  46.4349441 107.3470536  23.1531676  46.3218071
 106.6559653  22.8335092  46.5091904 100.7017519  34.8233532  51.7948134
 100.4783174  34.0652362  52.1632160 100.2127363  34.8531554  51.0728574
 100.5960968  34.7155757  51.7424875 106.8158913  19.1392704  49.4726749
 107.1686523  18.7122427  50.1472548 105.9573715  19.0543547  49.6027825
 106.7408358  19.0637445  49.5921759  95.5142598  21.7700224  47.5309596
  94.7954587  22.1864356  47.7982459  95.8854960  22.3354462  46.9801234
  95.4634530  21.9149505  47.4892403 104.8142179  22.4028073  53.4211591
 104.7940106  22.2211368  54.2746370 104.8621380  23.2740091  53.3971175
 104.8176820  22.5044611  53.5434886 102.7588509  28.9915265  59.3460068
 102.7184364  28.3464941  58.7605224 103.5711827  28.9351882  59.6585480
 102.8731662  28.8874231  59.3057017  99.3495976  35.0433990  49.2485219
  98.9356375  34.3808121  48.8589060 100.0343351  35.1911849  48.7280913
  99.3894348  34.9674649  49.1141716 102.7161270  34.2024076  50.0008835
 102.3177554  34.3126346  49.2329656 102.1012490  34.4106142  50.5835395
 102.5660160  34.2497644  49.9740135 101.2889172  20.8098224  42.8682975
 100.6954012  21.1315220  42.3167542 101.3264450  19.9639319  42.6604081
 101.2063562  20.7322552  42.7565746 108.2482973  14.2611116  50.4011061
 107.7413838  13.5540255  50.3332239 109.0450407  13.9304305  50.5312138
 108.2910212  14.1084267  50.4110056 104.1646989  20.7677728  46.2984725
 103.9360682  20.7910429  45.4563083 104.4245065  19.9435195  46.4179736
 104.1693177  20.6493808  46.1909923  98.4466217  22.6212201  55.9009825
  97.9345121  22.0133384  56.2594857  98.2745714  23.3368794  56.3683801
  98.3455854  22.6375500  56.0226049  93.2931932  21.0649776  58.5512187
  93.1234522  21.7251151  58.0060394  92.8497882  21.2756338  59.2724676
  93.2031266  21.1935759  58.5773817  97.2191752  19.3054274  47.5938921
  97.6949118  19.6671354  46.9589102  96.7180351  19.9610742  47.8739064
  97.2157111  19.4548463  47.5415662 110.4503113  28.7776042  43.3851926
 110.8336719  29.5267399  43.6150023 109.6547226  29.0241862  43.1263915
 110.3896895  28.9245736  43.3809499 102.3235288  20.5436446  58.3412081
 102.8806718  20.3150255  57.7090546 101.9996353  21.3042111  58.0647293
 102.3581698  20.6220282  58.2068578  90.1933997  23.9696642  53.8100677
  89.6460716  23.2997288  53.9281545  90.9826375  23.6026490  53.8744144
  90.2286180  23.8161628  53.8369378 100.0418405  23.6304099  59.3064088
 100.7929732  23.9455776  59.6203642 100.2340982  23.4283270  58.4798010
 100.1809819  23.6471481  59.2307484  99.2618405  21.4495474  40.9612305
  99.6417370  21.4675103  40.1763420  98.5211001  21.8949463  40.8403152
  99.2087242  21.5177249  40.8275873 106.8903695  19.7577665  46.5487884
 106.8897922  19.6026322  47.4072160 106.6859875  20.6040652  46.4929269
 106.8603473  19.8598286  46.6675823  88.9520966  23.1817450  50.9646700
  88.7742727  22.7294059  51.6901616  88.6639988  23.9843611  51.1485178
  88.8833919  23.2340008  51.0990203 104.6144547  24.4375167  50.2024090
 105.1098213  23.7198162  50.1628111 103.8044323  24.1345965  50.0878577
 104.5688441  24.2872813  50.1797816 100.0603159  28.2872980  42.3521095
  99.2514482  27.9639654  42.3054404 100.5678068  27.5806202  42.2849344
 100.0152826  28.1354297  42.3351389  90.6893436  25.7145173  48.0768459
  89.8238956  25.7030864  47.9651230  90.7892252  25.5275396  48.9239598
  90.5767603  25.6851235  48.1857404 106.6796366  27.1878855  52.8901219
 107.1051438  26.6653276  52.3371644 106.3153286  27.7859692  52.3689842
 106.6882969  27.1989082  52.7310229  96.3150446  35.4843072  51.6498565
  96.6297005  36.2979461  51.6576346  96.7243859  35.0993291  52.3180724
  96.4218544  35.5471774  51.7502656 103.2674966  30.9013119  49.2202377
 103.7386144  31.6153381  49.3892362 103.6035144  30.3011869  49.7562246
 103.3870081  30.9184583  49.3234753 105.3551950  32.5114432  61.3994449
 105.4648916  31.7222993  61.7551196 105.6842847  32.4220368  60.5968787
 105.4204356  32.3820285  61.3336839 100.1844461  15.6740589  56.1760471
 100.3172366  14.8771583  56.5041447 100.5689613  16.2006992  56.7558747
 100.2600789  15.6340506  56.3103974 103.9048912  30.6931053  55.9830069
 103.3569858  30.0688937  55.7150135 104.3661941  30.8825325  55.2674149
 103.8916121  30.6290103  55.8380500 103.2576816  12.5970916  52.7741565
 102.4522779  12.4868645  53.0909403 103.1283551  12.6983371  51.9171431
 103.1196949  12.5954586  52.6949605 106.7142776  18.7616407  53.3681262
 106.1305765  19.2625614  52.9558829 107.0347070  18.2545964  52.7345585
 106.6755952  18.7608243  53.2139769  99.2537575  17.6757002  43.6439936
 100.0753270  17.8455315  43.4021631  98.7907226  17.8304263  42.9206234
  99.3068738  17.7238735  43.5011581  97.8432907  15.6699765  54.4238365
  98.3877320  15.3290891  55.0142707  97.8969843  16.5285226  54.5659650
  97.9322027  15.7455024  54.5320239  93.6563466  29.4316181  51.2977173
  94.2608323  29.3912015  50.6690994  93.4490779  30.2787333  51.3281229
  93.7152363  29.5504183  51.2093290 103.4707238  31.6982126  52.5139410
 104.2905612  31.5545092  52.7755706 103.1901316  32.3228325  53.0555848
 103.5503982  31.7692478  52.6327350  88.8914748  28.4150798  51.1676096
  88.7939026  27.6047070  51.4766153  89.6743618  28.3942591  50.7822364
  88.9930885  28.2917888  51.1562959 119.9420889  39.3546977  45.4782287
 119.9114893  40.2091614  45.6500556 120.5402237  39.0542270  46.0368430
 120.0258046  39.4363474  45.5857089 113.1420573  38.4422628  50.2335217
 112.2858469  38.6031127  50.2844334 113.1888227  37.5714692  50.2540278
 113.0219685  38.3373430  50.2441283 107.5261713  47.9785346  45.9972449
 106.7744613  47.6000885  45.7688494 107.9747725  48.0103780  45.2491259
 107.4811380  47.9270953  45.8529951 116.4514290  44.7109154  59.8395673
 117.1581057  44.2161185  59.9682608 116.6402225  45.1518236  59.1098331
 116.5842196  44.7027504  59.7504719 112.9786673  48.4010716  41.4257996
 112.6438041  49.0787637  40.9902218 113.4913543  48.0116027  40.8374868
 113.0052254  48.4435294  41.2744787 112.5190964  50.3524984  47.3669108
 112.9030344  50.9211883  46.8273883 112.4550106  49.6274495  46.8874924
 112.5664392  50.3300448  47.2162970 115.9872394  40.5014672  52.8766869
 116.5328354  41.1799759  52.9360839 115.9289271  40.3602133  52.0168450
 116.0588309  40.5806674  52.7578929 109.1046469  47.9903738  48.2635221
 109.2056832  47.1804092  48.5732349 108.5088215  47.8960685  47.6334900
 109.0319008  47.8568767  48.2161460 117.7637463  41.9299279  43.7500597
 117.6476989  42.6806966  44.1792735 118.5593350  41.6723233  43.9996684
 117.8642053  42.0034126  43.8504688 108.9447209  52.9081328  49.6650077
 109.5884664  53.3494492  50.0546236 109.2703464  52.1034754  49.5780336
 109.0879038  52.8546522  49.7095555 102.3011514  44.0124025  47.8887555
 102.0661698  43.1791677  47.7819824 102.4397154  44.2928691  47.0748756
 102.2867176  43.9307528  47.7529910 104.6001601  36.1809756  50.7871863
 103.9806633  35.5902403  50.6181877 104.4985465  36.7721191  50.1536186
 104.4939277  36.1813838  50.6676852 109.6467789  45.9193302  45.0369939
 109.9683630  46.4598510  44.4331247 110.2939885  45.3490074  45.1692229
 109.7893844  45.9152478  44.9676974 111.6969497  37.9209297  45.1204326
 112.3949661  38.0997425  45.6125789 112.0121829  37.3979637  44.4974715
 111.8464834  37.8703070  45.1006336 104.3270734  39.7262037  53.0315432
 104.2029431  40.3124483  53.6665251 104.9789019  39.2322233  53.3327707
 104.4044383  39.7400842  53.1701361 111.8857432  44.3079742  45.1084117
 112.3251068  43.6996843  45.5538890 111.7362095  43.9287116  44.3369582
 111.9278898  44.1618214  45.0603285 109.3529075  42.9023754  52.3102943
 109.9978078  42.4096197  51.9913891 109.5930852  43.0448541  53.1369021
 109.4839660  42.8501196  52.3852476 111.8915166  45.7478660  51.9609835
 112.1738409  44.9530066  51.7396591 112.6201327  46.2259248  51.9814896
 112.0404730  45.7013257  51.9312850 109.8696360  33.2901694  49.2025600
 109.5399690  33.7412838  48.5329299 109.1941362  33.2117857  49.7498607
 109.7206797  33.3452829  49.1848824 115.4866769  42.6606924  42.0614887
 115.4018064  43.5167890  42.2064455 115.9751152  42.3851248  42.7297046
 115.5455666  42.7464245  42.1816968 117.0772768  29.2787217  47.4475211
 116.7626209  29.9690696  47.8795633 116.5599710  29.2231999  46.7460712
 116.9537238  29.3722106  47.4072160 116.4185202  39.2791718  43.5612622
 115.8896673  39.4951351  44.2209928 116.9410222  39.9727856  43.4813591
 116.4173655  39.4134855  43.6468221 121.8733255  44.8538022  48.9345666
 121.0430958  45.0648666  49.0979083 121.8242507  44.0275077  48.6587950
 121.7439990  44.7627629  48.9183032 108.3084810  43.1754935  42.3620090
 107.7242025  43.6804966  42.7685954 107.9054905  42.9497322  41.6216682
 108.1624113  43.2163183  42.3125115 103.8628838  48.8909696  49.1643761
 103.3796417  49.6160185  49.1403345 104.6752157  49.1885826  49.2753919
 103.9119586  49.0412050  49.1771040 109.9342992  47.6841877  51.7693576
 109.4169934  47.3249292  51.1654884 110.6317384  47.1604051  51.7799642
 109.9608573  47.5539564  51.6823834 113.5906584  48.1336691  57.7309749
 113.6789930  47.9462831  58.5787959 114.0196297  47.4874120  57.3314595
 113.6668687  48.0099698  57.7981500 111.1577044  47.4167851  56.7127411
 110.5947879  47.0040460  57.2367072 111.9198068  47.3420756  57.1320554
 111.1871493  47.3445251  56.8520411 112.7662024  39.4220587  40.8389010
 113.0058028  39.6298571  40.0264353 113.0877865  38.6178095  40.9477955
 112.8499182  39.3334688  40.7349563 108.0752314  31.3513982  44.6848548
 108.8298282  31.7192300  44.4465598 107.8979849  31.7253537  45.4527728
 108.1606793  31.4612170  44.7633437 106.7173036  49.4065872  49.3164041
 107.4193615  48.8917861  49.3736798 106.6370519  49.7340023  50.1210916
 106.8096796  49.3780098  49.4436833 121.3687213  37.5008423  52.7296087
 120.5315634  37.5710610  52.9643682 121.3375444  37.5032918  51.8570390
 121.2405495  37.5118650  52.6355635 107.7651942  39.6441459  58.4444456
 107.9372446  39.5347353  59.2929738 108.3021300  40.2895864  58.2075648
 107.8696946  39.7233460  58.5349553 106.4309379  33.7584301  41.3826661
 106.2484952  33.9756182  40.5567654 107.2934992  33.8723314  41.4385276
 106.5313968  33.8074199  41.2681148 106.0423811  45.5972224  48.8249649
 106.8812710  45.8295156  48.8723411 106.0735580  44.7276535  48.7556684
 106.1705529  45.5029170  48.8214294 106.6676514  46.0173099  53.1262955
 107.2074739  45.8744230  53.7966327 105.9846460  46.4169850  53.4946981
 106.6468668  46.0552770  53.2797376 112.1109098  30.7610712  44.4175685
 112.8395259  30.5826667  43.9713841 112.2003991  31.6028792  44.6282863
 112.2315760  30.8594591  44.3829203 116.0917399  41.6964100  48.3207979
 116.8474914  42.1295614  48.3596888 116.1979723  41.0468869  48.8942615
 116.2187569  41.6641583  48.4106005 119.1297570  45.5237377  49.0710382
 118.6932802  45.5274119  49.8269353 118.7960485  46.2042876  48.6389959
 119.0160190  45.6249833  49.1191214 113.7026644  47.5645710  60.3953532
 114.4867060  47.6776557  60.7609274 113.5023238  46.7386847  60.5912218
 113.7892669  47.4592429  60.4787918 102.0713659  42.2373390  53.2797376
 101.8052074  41.4212506  53.4388366 102.0852223  42.2826545  52.4092892
 102.0338381  42.1230294  53.1750858 119.0495053  32.5651205  51.3139810
 119.6920961  32.6349309  51.9001725 119.3018074  31.8980428  50.8119352
 119.1817185  32.4777553  51.3267089 105.9771406  37.0358474  39.8949134
 105.2629583  36.7496654  40.3071567 106.4615375  37.3755100  40.5355522
 105.9430769  37.0440124  40.0504769 106.8212265  35.7751768  55.9264384
 106.1284062  35.3048748  56.1725115 107.4372593  35.5490073  56.5006091
 106.8096795  35.6718900  56.0473536 113.8597037  49.4755812  54.0419988
 113.0612283  49.2355312  54.2993856 114.3083048  49.5270205  54.7887035
 113.8071648  49.4478203  54.1904912 122.2641916  42.2418297  47.9630019
 122.9258350  41.6808965  47.8625928 121.6233328  41.7470327  48.2882710
 122.2670784  42.0854706  47.9962359 113.1518724  45.5388428  40.2710942
 113.5669872  45.2073452  39.5795438 112.3210654  45.3057330  40.1431079
 113.0906733  45.4559684  40.1501790 102.4807073  43.0232169  50.5609120
 102.2982646  42.9979055  49.7081413 103.2156742  43.4931107  50.5998029
 102.5621137  43.0893531  50.4407039 118.5506747  43.2583679  47.7042008
 118.7862336  43.4028878  46.8768859 118.6996311  44.0226087  48.0973522
 118.6072550  43.3922733  47.6405612 105.5452824  39.7417172  57.0691229
 106.2692797  39.7270203  57.5556124 105.6468961  40.4512527  56.5713197
 105.6671033  39.8441875  57.0670016 120.3797204  42.0985345  45.5411612
 120.7105421  42.6312985  44.9351707 120.9530292  42.1524233  46.1973563
 120.5130883  42.1854914  45.5489393 112.9197774  43.2216257  61.9340176
 112.1270755  43.5359768  62.1192796 113.0346701  43.4367725  61.0960961
 112.8193184  43.3000093  61.8378511 115.5929093  39.9450248  46.2235192
 115.6875947  40.6839542  46.6774817 114.9687936  39.5167723  46.6569756
 115.5138123  39.9911568  46.3543339 113.8481567  43.1236460  56.8725473
 114.4220428  42.4863705  57.0274037 113.7696370  43.1240543  56.0035130
 113.9214801  43.0301572  56.7671884 102.4477983  39.9025670  50.7108187
 103.0251486  39.7662121  51.3500432 101.7492045  39.4461454  50.9653771
 102.4299004  39.8147936  50.8430477 115.8452114  41.7898988  39.4572144
 115.7632277  41.8601175  40.3227131 116.4831835  42.3528731  39.2655884
 115.9271951  41.8837959  39.5562093 109.2045285  41.5559725  48.9246670
 108.9464530  40.7231460  48.8977970 109.2593768  41.7817338  48.0839171
 109.1745063  41.4657497  48.7966807 114.2846335  33.6588176  49.0250763
 113.5802662  33.1697362  49.1834682 114.3331310  33.6710651  48.1539207
 114.1876387  33.5877824  48.9190103 108.1779997  39.1097488  49.4111565
 107.6029589  39.2689656  50.0475526 107.8015674  38.4732897  48.9480015
 108.0382810  39.0395301  49.4366123 111.8453286  37.5820837  54.2703943
 111.4567719  37.1575055  53.6156135 111.1807984  37.8302987  54.7780970
 111.6900214  37.5559558  54.2491811 121.4876555  37.3395842  47.0451773
 121.2313120  36.5275783  46.8549656 122.3305869  37.3473409  46.8181961
 121.5742581  37.2207839  46.9836590  97.9236816  38.7537563  47.4256006
  98.0097068  38.3769431  48.2069535  98.5512614  38.3798008  46.9475964
  98.0293367  38.6423045  47.4701483 115.6679648  31.2795466  51.7827928
 116.0490159  30.5973637  52.1695802 114.8642932  30.9905068  51.6003592
 115.6056109  31.1362514  51.8131983 112.9492224  41.8119442  42.4680750
 113.7632863  42.1034335  42.3563522 112.8851366  41.1579304  41.8939043
 113.0594963  41.7584637  42.3669588 119.1701714  44.4945438  56.8810326
 118.9340352  43.6633503  56.7622387 119.8144943  44.4431045  57.4665170
 119.2296385  44.3643126  56.9496220 108.8200133  45.2840959  47.5953062
 109.4574079  45.0452707  48.1404856 109.2455204  45.4878118  46.8606223
 108.9776299  45.2791969  47.5670220 103.5112775  47.5229296  51.4787366
 103.5516920  47.7944147  50.6507146 104.0707299  48.0471204  51.8945154
 103.5996121  47.6405051  51.4179254 109.4602948  40.5043249  41.9327952
 109.8448100  40.2850956  42.6844497 109.2114568  41.3306194  42.0629028
 109.4805020  40.5941395  42.0629028 109.6271488  33.7849664  61.6490536
 109.3124929  34.5549227  61.3860099 109.3061421  33.2219920  61.0642763
 109.5330407  33.8159933  61.5231886 120.1938135  44.2789887  52.9438620
 119.8883952  45.0117944  53.3051936 119.4744351  43.8727816  52.6631407
 120.0425477  44.3271620  52.9551758 111.2021604  45.7613382  49.2746849
 111.2760613  45.5988554  50.1288699 112.0191111  45.9503571  49.0307330
 111.3337963  45.7650124  49.3644874 104.9627361  46.1071245  46.3041292
 104.1365479  46.3532982  46.1775571 105.0239352  46.0283326  47.1703350
 104.8501528  46.1316194  46.4130237 107.1803385  32.1740186  47.2636732
 106.3125810  32.2462785  47.3294342 107.4678589  32.9762265  47.4524707
 107.0943133  32.3034333  47.3011499 116.3036274  32.3218045  55.5948054
 117.0489866  32.1327855  55.1811480 115.8873578  32.8476283  55.0361910
 116.3521248  32.3720190  55.4512627 109.7426190  48.7248125  44.0060322
 110.0324489  48.3337106  43.2819549 110.4729671  48.9064830  44.4465597
 109.8933074  48.6941939  43.9643129 123.6798545  39.6927274  50.5453559
 124.2306466  39.0595343  50.7850651 123.6642660  40.2242666  51.2369063
 123.7583741  39.6776222  50.6832417 110.3320935  43.5265871  55.0913453
 109.8332629  44.2381639  55.1698341 111.1421160  43.8466537  55.0531615
 110.3777042  43.6792719  55.0970021 107.6832106  50.7015507  47.0720472
 107.4632401  50.4112862  47.8647139 107.4626628  50.0430462  46.5438384
 107.6179700  50.5615216  47.1109380 106.5949053  42.7888824  49.3376173
 106.3062302  42.1626295  49.8721901 107.4632401  42.7309111  49.4040854
 106.6809305  42.6876368  49.4267128 117.3826951  37.9323607  49.6558155
 117.0391717  37.2113942  50.0065405 117.4819993  37.7237458  48.8136514
 117.3468994  37.7947810  49.5829835 109.8500062  52.0744897  45.8551164
 110.5024120  51.5421340  46.0842190 109.1525670  51.7213550  46.2419038
 109.8430779  51.9434420  45.9463332 106.7981326  44.4284075  45.2618538
 107.5527294  44.8097114  45.4754001 106.2051939  44.8795219  45.7165235
 106.8218040  44.5512902  45.3601417 117.8439980  44.3949311  45.1982143
 118.4098012  45.0542521  45.1140686 117.1967883  44.7399009  45.6698546
 117.8318736  44.5431253  45.2554900 109.2587993  36.3846915  60.3875751
 108.4487769  36.6904695  60.2765593 109.7362680  37.1052498  60.5028335
 109.2091472  36.5361516  60.3882822 108.1179553  45.5992636  50.6358654
 107.5960306  45.7392928  51.3210519 108.5053573  44.8403301  50.8260771
 108.0983254  45.5078160  50.7659730 105.1070737  35.6498445  44.7053609
 104.8195533  35.2799715  43.9685556 105.7941205  36.1193300  44.4437313
 105.1659634  35.6645414  44.5568684 114.3146558  47.3388096  44.6219223
 114.0733234  46.6055956  44.2146288 114.4947891  47.8874952  43.9685556
 114.3054182  47.3110487  44.4649446 109.5445879  42.6296655  46.0340145
 109.3488661  43.2371390  45.4400448 109.7680224  41.9364599  45.5531819
 109.5480520  42.6174181  45.8756226 107.9424409  39.5151393  46.1521013
 108.6647060  39.6792551  45.6924819 107.4632401  40.2361058  46.0460353
 107.9788139  39.6449623  46.0686627 115.9017916  35.8515192  51.5317698
 115.0629017  35.8776471  51.2955961 115.9722283  36.4985927  52.1123045
 115.7886310  35.9511318  51.5826815 105.5932025  41.9209466  55.2575153
 106.1053122  42.1993719  54.6083913 105.3068368  42.6598760  55.6237966
 105.6266888  42.0711819  55.2165031 114.3487194  32.7500569  46.2645314
 115.0513547  32.5508317  45.7865272 114.0831383  31.9776511  46.5714158
 114.4133827  32.6063535  46.2390756 119.7775440  41.0583179  48.8178940
 119.6909415  41.2138605  49.6713719 119.3225920  41.7021254  48.4438345
 119.6978697  41.1758934  48.8886047 102.6798932  36.4279657  45.5538890
 102.7815068  37.2305819  45.8819865 103.4754818  36.2266993  45.2561970
 102.8126837  36.5165556  45.5574245 109.1115751  34.0135854  55.3176195
 108.9198948  34.0290989  56.1675618 109.9614347  34.2099528  55.2942850
 109.2091473  34.0450205  55.4399489 103.4962664  36.5426836  53.2960011
 103.3548156  35.6910776  53.4204519 103.7803227  36.5855496  52.4722217
 103.5170510  36.4226586  53.1927635 113.6501256  38.3793926  47.4404499
 113.4035970  38.2989677  48.2741288 113.9786379  37.5947394  47.2467027
 113.6622500  38.2520191  47.5352023 117.5449305  45.0877285  51.2291281
 117.4063664  45.7858331  51.7340023 116.7649303  44.9325942  50.8727462
 117.4092532  45.1677452  51.2517555 115.8827390  41.3873661  57.4813662
 115.8775429  40.5153477  57.4856089 116.5888384  41.5861830  57.0083118
 115.9872394  41.2877535  57.4120698 109.6098283  41.1150644  56.8527483
 109.7541659  41.6951853  56.2170593 109.9573932  41.4926941  57.5577337
 109.6825745  41.2571348  56.8626477 111.7818201  40.3140813  54.6352614
 111.0341515  40.5071827  54.2300892 111.9359726  39.4886032  54.3976735
 111.6940628  40.2205924  54.5398020 108.6826038  49.3053416  53.7188509
 108.8315602  48.7456332  53.0661914 109.4626040  49.3845418  54.1021028
 108.8200132  49.2338982  53.6785459 119.0402678  44.4455539  41.9907780
 118.6609486  43.6592677  41.9837069 118.3768923  44.9942396  41.8479424
 118.8861153  44.4100363  41.9688577 111.2079339  49.4768059  54.9973000
 111.1323010  48.8076870  55.5523788 111.1369198  50.1785847  55.5113666
 111.1859946  49.4812966  55.1549848 112.0219978  34.2091364  55.5248018
 112.4792592  34.9415338  55.6520810 112.0976306  33.7857829  56.2835274
 112.1010948  34.2548602  55.6549094 104.2652969  34.4557183  56.6137462
 103.7295158  33.8437541  56.9298229 104.3270734  35.0305319  57.2671128
 104.1948602  34.4504111  56.7572888 116.4947304  27.3881239  49.3941861
 116.6130872  27.8457702  48.6609163 116.3209479  26.5826500  49.1078078
 116.4866475  27.3375011  49.2442794 111.8649586  47.9969058  45.8296606
 112.6299477  47.7278702  45.5079270 111.7627676  47.5119068  46.5466669
 111.9631081  47.8858623  45.8876434 109.9002356  36.1993467  52.3689842
 109.1098430  36.0184928  52.6907178 110.2962978  35.4220420  52.3520136
 109.8419232  36.0580928  52.4142390 114.3868246  45.0281242  37.8096555
 115.1541232  45.0881367  37.4002407 113.9399555  44.4561683  37.3252874
 114.4341674  44.9517818  37.6774266 115.2846042  43.8335898  50.0949288
 114.6091044  43.6021130  50.5962675 115.2938418  43.2257081  49.4691393
 115.1864546  43.7094823  50.0765440 112.4140186  38.6753727  56.8513341
 112.3499327  39.5363683  56.7233477 112.5537374  38.3585720  56.0508892
 112.4255656  38.7553893  56.7141554 117.2862777  46.6901030  42.3259466
 117.3682614  47.4968016  42.0020917 117.7712519  46.7096989  43.0500239
 117.3699934  46.8121692  42.3846364 111.0959280  41.3685866  50.9929544
 110.6721529  41.5690365  50.2568562 110.9204135  40.5214714  51.1053844
 111.0070160  41.2734647  50.9003234 110.5970973  52.8836379  53.4551001
 111.0866904  52.1847168  53.2726666 110.0255206  52.5860249  54.0427058
 110.5855503  52.7362603  53.5152042 106.3841725  41.8637917  46.4257516
 106.5406344  41.7984720  47.2813508 106.7242318  42.6386470  46.2136196
 106.4574960  41.9687116  46.5212110 112.9220869  41.2395801  45.2950879
 113.4636415  40.7366182  45.7589500 113.2367428  41.1860996  44.4840365
 113.0485266  41.1575222  45.2434692 116.7937977  45.4498448  62.4077792
 117.6072842  45.1783597  62.5682924 116.6332943  45.1505988  61.6037988
 116.8907925  45.3653374  62.3123198 111.0907319  46.6313152  42.5790907
 111.1600139  45.7727691  42.7183908 111.8695774  46.8485033  42.2509932
 111.2160169  46.5366016  42.5508065 114.0710139  36.1332105  55.3473180
 114.2852108  35.4943020  54.7936534 113.4544038  36.5777929  54.9181042
 114.0115468  36.1042249  55.2023611 115.4814807  49.0550854  46.7927401
 115.0894598  48.7517569  46.0750267 115.6367879  49.8919944  46.6032355
 115.4468397  49.1334690  46.6583898 102.9575986  39.0472868  46.7418283
 103.3374951  39.4657413  46.0778551 102.3831351  39.6286324  47.0487127
 102.9287311  39.1950727  46.6895024 116.2349227  37.7421171  56.2856487
 115.4225908  37.4347061  56.3669660 116.6939161  37.2620171  56.8499199
 116.1829612  37.6257663  56.3811081 115.6454481  45.6200843  46.7333431
 115.2869136  45.7915485  47.5097464 115.1593192  46.0814048  46.1761430
 115.5213178  45.7139814  46.7658700 113.4624867  29.2432041  50.3360523
 112.5918425  29.2170762  50.2893832 113.7165209  29.0709233  49.5186368
 113.3718428  29.2142185  50.2080659 110.4342847  41.3000008  39.2733666
 110.7235372  42.0764891  39.5477240 110.5214646  40.7888739  39.9748165
 110.4897103  41.3391926  39.4176164 113.3302734  39.1481242  61.0685189
 113.8002365  39.7723358  61.4553063 113.3764614  38.4798218  61.6278404
 113.4070610  39.1415922  61.2085261 110.4874008  31.2538270  51.7933993
 109.9712496  30.5618461  51.9185572 109.9267937  31.9209047  51.7396592
 110.3280521  31.2501527  51.8040059 112.5566241  31.7931230  53.6226846
 112.1697995  31.8180261  54.4040376 112.0699179  31.2272908  53.1701362
 112.4278750  31.7126980  53.6714749 116.8059221  46.5104739  57.6800632
 117.4438941  46.0164934  57.3463088 116.1633312  46.4382139  57.0952859
 116.8053447  46.4263747  57.5442987 118.5316221  38.3593885  52.2466548
 118.1043829  38.2720233  51.4914647 117.8942274  38.4671660  52.8321392
 118.3745828  38.3626544  52.2211989 112.2223383  28.6798215  55.9137106
 112.8516501  29.2158515  55.6358176 112.3909246  28.5875574  56.7650671
 112.3401178  28.7459577  55.9985634 112.0237298  33.4669410  58.1863517
 112.8510727  33.1954559  58.2422132 112.0445144  34.2630251  58.5427335
 112.1490148  33.5449164  58.2478700 116.8613477  47.2024547  54.3205989
 117.6505856  46.8513612  54.4408071 117.0357075  48.0160935  54.0582623
 117.0033759  47.2710404  54.2993857 106.6006788  40.6133273  51.3733778
 105.7594794  40.5137147  51.5812672 106.8096796  41.3828753  51.7248098
 106.5071480  40.7125316  51.4561093 104.0782355  38.2352810  49.2018528
 103.6839053  38.3095821  48.4268638 103.5222472  38.6210756  49.7526890
 103.9385167  38.3034584  49.1686188 115.7147302  31.2134104  48.8822407
 115.9196895  31.1456411  49.7279405 115.3873726  32.0192925  48.8143585
 115.6962549  31.3220044  48.9982063 110.4123453  38.5414672  50.6231375
 110.1086590  37.9870660  51.2241783 109.7102873  38.7206882  50.1359410
 110.2639662  38.4859454  50.6401081 109.4689550  35.8515192  45.1876077
 109.7449284  35.1334104  44.7753645 110.0688219  36.4500112  44.9797183
 109.5982814  35.8335562  45.0956838 108.4741804  45.7564392  55.3303473
 108.3662159  45.7666455  56.1965531 108.6837585  46.5819173  55.1408427
 108.4891915  45.8805467  55.4307565 118.9680989  31.7665868  48.3625173
 118.3555303  32.2536270  48.7478905 119.0645164  31.0909359  48.9062824
 118.8918887  31.7384177  48.5004031 112.9700070  33.5228709  43.4622672
 113.4243817  33.6939269  44.1870517 113.4440116  32.9096820  43.0620448
 113.1068390  33.4579594  43.5096434 106.4915596  43.0077035  52.7925411
 105.9003529  43.6486533  52.7628426 107.2536619  43.4314652  52.7656710
 106.5163856  43.1652873  52.7840558 106.8876218  34.1679033  53.4593428
 107.3477700  34.2417962  54.1968552 106.9332325  34.9660287  53.1093250
 106.9626774  34.2973180  53.5166185 108.5359568  34.8345728  58.0265455
 108.1445133  34.1879075  58.4621233 108.7045431  35.4257163  58.6459711
 108.5030479  34.8259995  58.1828161 122.6106017  42.8382805  53.7902689
 122.6689141  43.2869453  54.5362665 121.9772485  43.2481617  53.3532769
 122.5257312  42.9656539  53.8355237 116.2505112  48.4586346  50.2257435
 116.0524801  48.9477161  49.5313647 115.6292823  48.6627588  50.8041569
 116.1292676  48.5602885  50.2080658 110.3113090  40.2271243  44.5667679
 111.0555135  40.6145520  44.8050629 110.4573786  39.3828669  44.7308167
 110.4423675  40.1601716  44.6261649 112.2292666  32.0221502  49.5999541
 111.3828711  32.1944310  49.4740891 112.2263798  31.2170846  49.9365369
 112.1039816  31.9282531  49.6310668 113.2990966  35.7996717  50.4661599
 112.8250920  35.2738479  50.9766910 113.6709102  35.2526189  49.8976460
 113.2840855  35.6412713  50.4576746 103.6763996  37.7968223  55.8345145
 104.5389609  37.6963933  55.7482474 103.3455779  37.2162933  55.2730717
 103.7549193  37.6959850  55.7390550 119.5627697  40.8599092  51.8768379
 119.3225920  40.0205507  51.8810806 120.0419704  40.9399259  52.6009153
 119.5979880  40.7480492  51.9843182 115.2274466  36.6933271  43.5287353
 114.6997484  36.7762015  42.8393061 115.6870174  37.4351143  43.5251997
 115.2176316  36.8153934  43.4262048 121.5632884  37.6400549  49.8297638
 121.3242654  37.5996384  48.9918423 121.7266785  38.4871702  49.9563359
 121.5523187  37.7592634  49.7251120 118.1678914  42.0250499  55.7602684
 118.8913113  41.5723025  55.5813703 117.9028876  42.3055164  54.9775011
 118.2360187  42.0001467  55.6181399 107.0365782  36.6210672  52.4955563
 106.4118852  36.6329064  51.8881515 106.7011377  37.0970847  53.1446803
 106.8951274  36.6929189  52.5012131 107.2207531  34.9635791  38.5528248
 106.8720335  35.6155516  39.0159797 106.7403977  34.9492904  37.8252119
 107.0977775  35.0578844  38.5139339 103.7491458  44.6811132  53.9359327
 103.2191382  43.9903571  53.9854302 104.0216551  44.6721318  53.1072036
 103.7116180  44.5778264  53.8206743 114.7811548  45.2636835  42.6597010
 115.5045747  45.7294948  42.5161583 114.3412139  45.3310444  41.9094607
 114.8227241  45.3420671  42.5281791 113.9497703  42.1234377  53.9097699
 113.3354696  41.5792427  54.2046334 114.4664988  41.6098613  53.4303515
 113.9353366  41.9670786  53.8821927 113.1894001  43.1938647  51.6441997
 112.7621609  42.5688366  51.2107433 113.1818945  42.9113569  52.4701004
 113.1253142  43.0591428  51.7021825 106.3056528  38.2303820  54.7130431
 106.4650014  37.4747144  55.1182153 106.1249421  38.7794760  55.3671169
 106.3021887  38.1997634  54.8693137 114.2476831  30.3965056  55.2681221
 113.7517392  30.5928730  54.5772787 115.0045893  30.7957724  55.0970022
 114.2863655  30.4842789  55.1401357 111.5179710  34.0707402  51.8584531
 111.5422197  33.5367514  51.1697311 111.7691184  33.5624710  52.5210122
 111.5589629  33.9168306  51.8549176  99.0287300  41.3538897  51.2927675
  98.9230749  41.3085741  50.4279759  98.2787520  41.6992677  51.5741960
  98.9022903  41.3979805  51.2065005 107.7981032  32.7978220  51.2390276
 107.8379404  33.2987426  51.9524983 106.9730697  32.8888614  50.9696199
 107.6820558  32.8860036  51.3040814 109.9810645  42.3638960  59.3410570
 109.1306276  42.5010674  59.4768215 110.1438773  41.6302738  59.7858272
 109.8794509  42.2753061  59.4266169 109.2195396  39.3138730  53.5364175
 108.3887325  39.4812548  53.3299423 109.1646913  38.9374680  54.3213060
 109.0884811  39.2828461  53.6212703 107.0279179  32.8047623  59.1720585
 107.6531882  32.2609755  59.4450018 106.5729659  32.3242540  58.6028376
 107.0527440  32.6537104  59.1282179 107.5931440  37.5894321  44.0654292
 107.7334401  38.0866785  44.7682934 108.0913972  36.8880616  44.2068506
 107.6872521  37.5596300  44.1905871 107.6231662  38.4561432  41.3946869
 108.2576742  39.0521857  41.3296331 107.7057273  38.1564890  42.2092739
 107.7288213  38.5002340  41.5049956 120.6014228  40.9876910  54.2633233
 121.1932068  41.6274160  54.2951431 121.0373222  40.2899946  54.5525300
 120.7532659  40.9795260  54.3114066 109.2010645  34.3875408  41.3692311
 109.5226486  33.9078490  40.7151573 109.4637589  35.1975054  41.1783123
 109.2876670  34.4365306  41.2447803 112.4307618  45.4094282  54.8891127
 111.9232709  45.9630129  55.3331758 112.1334264  45.4702572  54.0709902
 112.3112503  45.5000593  54.8339584 114.5969800  33.7747602  53.7315790
 115.0224871  33.3220128  53.1199317 113.9826793  33.2207672  54.0080578
 114.5698445  33.6261578  53.6820815 104.1284650  40.6529273  44.6636415
 104.6376879  41.2493781  45.0447721 104.6018922  40.3855247  43.9812835
 104.2728026  40.7015088  44.6190938 115.0415398  49.3257540  42.8195071
 114.3244708  49.1518402  42.3542308 115.6922136  49.0910112  42.2870557
 115.0317248  49.2653332  42.6724289 113.0364023  30.2462701  47.1406367
 112.3932341  30.0960348  47.7091506 112.6963430  30.0005047  46.3755472
 112.8909100  30.1874824  47.1109382 117.6263369  38.2022128  46.5636376
 116.9554559  38.7451830  46.4349441 118.3203119  38.6716984  46.3218071
 117.6292237  38.3520399  46.5091904 111.6750103  50.3418840  51.7948134
 111.4515757  49.5837670  52.1632160 111.1859946  50.3716861  51.0728574
 111.5693552  50.2341065  51.7424875 117.7891497  34.6578012  49.4726749
 118.1419107  34.2307735  50.1472548 116.9306298  34.5728855  49.6027825
 117.7140941  34.5822753  49.5921759 106.4875182  37.2885532  47.5309596
 105.7687171  37.7049664  47.7982459 106.8587544  37.8539770  46.9801234
 106.4367113  37.4334813  47.4892403 115.7874762  37.9213380  53.4211591
 115.7672690  37.7396676  54.2746370 115.8353963  38.7925399  53.3971175
 115.7909403  38.0229919  53.5434886 113.7321092  44.5100572  59.3460068
 113.6916947  43.8650249  58.7605224 114.5444411  44.4537190  59.6585480
 113.8464246  44.4059539  59.3057017 110.3228560  50.5619298  49.2485219
 109.9088958  49.8993429  48.8589060 111.0075934  50.7097157  48.7280913
 110.3626932  50.4859957  49.1141716 113.6893854  49.7209384  50.0008835
 113.2910137  49.8311654  49.2329656 113.0745074  49.9291450  50.5835395
 113.5392743  49.7682952  49.9740135 112.2621756  36.3283531  42.8682975
 111.6686595  36.6500528  42.3167542 112.2997034  35.4824627  42.6604081
 112.1796145  36.2507860  42.7565746 119.2215557  29.7796424  50.4011061
 118.7146421  29.0725563  50.3332239 120.0182990  29.4489613  50.5312138
 119.2642796  29.6269575  50.4110056 115.1379573  36.2863036  46.2984725
 114.9093266  36.3095737  45.4563083 115.3977649  35.4620503  46.4179736
 115.1425761  36.1679116  46.1909923 109.4198801  38.1397509  55.9009825
 108.9077704  37.5318692  56.2594857 109.2478297  38.8554102  56.3683801
 109.3188438  38.1560808  56.0226049 104.2664516  36.5835084  58.5512187
 104.0967106  37.2436459  58.0060394 103.8230466  36.7941646  59.2724676
 104.1763849  36.7121066  58.5773817 108.1924335  34.8239582  47.5938921
 108.6681701  35.1856662  46.9589102 107.6912935  35.4796050  47.8739064
 108.1889694  34.9733771  47.5415662 121.4235697  44.2961350  43.3851926
 121.8069302  45.0452706  43.6150023 120.6279810  44.5427170  43.1263915
 121.3629479  44.4431044  43.3809499 113.2967871  36.0621754  58.3412081
 113.8539302  35.8335563  57.7090546 112.9728936  36.8227419  58.0647293
 113.3314282  36.1405590  58.2068578 101.1666580  39.4881950  53.8100677
 100.6193300  38.8182595  53.9281545 101.9558958  39.1211798  53.8744144
 101.2018764  39.3346936  53.8369378 111.0150989  39.1489407  59.3064088
 111.7662316  39.4641084  59.6203642 111.2073565  38.9468578  58.4798010
 111.1542403  39.1656789  59.2307484 110.2350988  36.9680782  40.9612305
 110.6149953  36.9860411  40.1763420 109.4943584  37.4134771  40.8403152
 110.1819826  37.0362557  40.8275873 117.8636279  35.2762973  46.5487884
 117.8630505  35.1211630  47.4072160 117.6592459  36.1225960  46.4929269
 117.8336057  35.3783594  46.6675823  99.9253550  38.7002758  50.9646700
  99.7475311  38.2479367  51.6901616  99.6372572  39.5028919  51.1485178
  99.8566503  38.7525315  51.0990203 115.5877131  39.9560475  50.2024090
 116.0830796  39.2383470  50.1628111 114.7776907  39.6531273  50.0878577
 115.5421024  39.8058121  50.1797816 111.0335742  43.8058288  42.3521095
 110.2247065  43.4824962  42.3054404 111.5410651  43.0991510  42.2849344
 110.9885409  43.6539605  42.3351389 101.6626020  41.2330481  48.0768459
 100.7971539  41.2216172  47.9651230 101.7624836  41.0460704  48.9239598
 101.5500187  41.2036543  48.1857404 117.6528950  42.7064163  52.8901219
 118.0784021  42.1838584  52.3371644 117.2885870  43.3045000  52.3689842
 117.6615552  42.7174390  52.7310229 107.2883030  51.0028380  51.6498565
 107.6029588  51.8164768  51.6576346 107.6976443  50.6178599  52.3180724
 107.3951127  51.0657082  51.7502656 114.2407549  46.4198427  49.2202377
 114.7118727  47.1338689  49.3892362 114.5767728  45.8197177  49.7562246
 114.3602664  46.4369891  49.3234753 116.3284534  48.0299740  61.3994449
 116.4381499  47.2408301  61.7551196 116.6575430  47.9405676  60.5968787
 116.3936940  47.9005593  61.3336839 111.1577044  31.1925897  56.1760471
 111.2904950  30.3956891  56.5041447 111.5422197  31.7192300  56.7558747
 111.2333373  31.1525814  56.3103974 114.8781495  46.2116361  55.9830069
 114.3302441  45.5874245  55.7150135 115.3394524  46.4010633  55.2674149
 114.8648705  46.1475411  55.8380500 114.2309399  28.1156224  52.7741565
 113.4255363  28.0053953  53.0909403 114.1016135  28.2168679  51.9171431
 114.0929532  28.1139894  52.6949605 117.6875360  34.2801715  53.3681262
 117.1038349  34.7810922  52.9558829 118.0079654  33.7731272  52.7345585
 117.6488535  34.2793550  53.2139769 110.2270159  33.1942310  43.6439936
 111.0485853  33.3640623  43.4021631 109.7639810  33.3489571  42.9206234
 110.2801321  33.2424043  43.5011581 108.8165491  31.1885072  54.4238365
 109.3609904  30.8476199  55.0142707 108.8702427  32.0470534  54.5659650
 108.9054610  31.2640332  54.5320239 104.6296050  44.9501488  51.2977173
 105.2340907  44.9097323  50.6690994 104.4223362  45.7972641  51.3281229
 104.6884947  45.0689491  51.2093290 114.4439822  47.2167434  52.5139410
 115.2638196  47.0730400  52.7755706 114.1633899  47.8413633  53.0555848
 114.5236565  47.2877786  52.6327350  99.8647332  43.9336106  51.1676096
  99.7671610  43.1232377  51.4766153 100.6476202  43.9127899  50.7822364
  99.9663468  43.8103196  51.1562959 124.1153157  53.9607936  50.2335217
 123.2591053  54.1216435  50.2844334 124.1620811  53.0900000  50.2540278
 123.9952268  53.8558738  50.2441283 118.4994297  63.4970654  45.9972449
 117.7477196  63.1186193  45.7688494 118.9480308  63.5289088  45.2491259
 118.4543964  63.4456261  45.8529951 123.9519257  63.9196024  41.4257996
 123.6170625  64.5972945  40.9902218 124.4646127  63.5301335  40.8374868
 123.9784838  63.9620602  41.2744787 123.4923548  65.8710292  47.3669108
 123.8762927  66.4397191  46.8273883 123.4282689  65.1459803  46.8874924
 123.5396975  65.8485756  47.2162970 120.0779053  63.5089046  48.2635221
 120.1789416  62.6989400  48.5732349 119.4820798  63.4145993  47.6334900
 120.0051592  63.3754074  48.2161460 119.9179792  68.4266636  49.6650077
 120.5617248  68.8679800  50.0546236 120.2436048  67.6220062  49.5780336
 120.0611621  68.3731830  49.7095555 113.2744097  59.5309333  47.8887555
 113.0394282  58.6976985  47.7819824 113.4129738  59.8113999  47.0748756
 113.2599760  59.4492836  47.7529910 115.5734185  51.6995064  50.7871863
 114.9539216  51.1087711  50.6181877 115.4718048  52.2906499  50.1536186
 115.4671860  51.6999146  50.6676852 120.6200372  61.4378610  45.0369939
 120.9416213  61.9783818  44.4331247 121.2672469  60.8675382  45.1692229
 120.7626427  61.4337786  44.9676974 122.6702080  53.4394605  45.1204326
 123.3682245  53.6182733  45.6125789 122.9854413  52.9164945  44.4974715
 122.8197417  53.3888377  45.1006336 115.3003318  55.2447345  53.0315432
 115.1762015  55.8309791  53.6665251 115.9521602  54.7507541  53.3327707
 115.3776967  55.2586150  53.1701361 122.8590016  59.8265050  45.1084117
 123.2983651  59.2182151  45.5538890 122.7094679  59.4472424  44.3369582
 122.9011481  59.6803522  45.0603285 120.3261659  58.4209062  52.3102943
 120.9710661  57.9281505  51.9913891 120.5663436  58.5633849  53.1369021
 120.4572244  58.3686504  52.3852476 122.8647750  61.2663968  51.9609835
 123.1470993  60.4715374  51.7396591 123.5933910  61.7444556  51.9814896
 123.0137314  61.2198565  51.9312850 120.8428944  48.8087002  49.2025600
 120.5132274  49.2598146  48.5329299 120.1673946  48.7303165  49.7498607
 120.6939380  48.8638137  49.1848824 119.2817393  58.6940243  42.3620090
 118.6974608  59.1990274  42.7685954 118.8787488  58.4682630  41.6216682
 119.1356697  58.7348491  42.3125115 114.8361422  64.4095004  49.1643761
 114.3529000  65.1345493  49.1403345 115.6484740  64.7071134  49.2753919
 114.8852170  64.5597357  49.1771040 120.9075576  63.2027184  51.7693576
 120.3902518  62.8434599  51.1654884 121.6049967  62.6789359  51.7799642
 120.9341157  63.0724872  51.6823834 124.5639168  63.6521999  57.7309749
 124.6522514  63.4648139  58.5787959 124.9928880  63.0059428  57.3314595
 124.6401270  63.5285006  57.7981500 122.1309628  62.9353158  56.7127411
 121.5680462  62.5225768  57.2367072 122.8930651  62.8606064  57.1320554
 122.1604076  62.8630559  56.8520411 123.7394608  54.9405895  40.8389010
 123.9790611  55.1483878  40.0264353 124.0610449  54.1363403  40.9477955
 123.8231766  54.8519996  40.7349563 119.0484898  46.8699290  44.6848548
 119.8030866  47.2377607  44.4465598 118.8712433  47.2438845  45.4527728
 119.1339376  46.9797478  44.7633437 117.6905619  64.9251180  49.3164041
 118.3926198  64.4103169  49.3736798 117.6103102  65.2525331  50.1210916
 117.7829380  64.8965406  49.4436833 118.7384526  55.1626767  58.4444456
 118.9105029  55.0532661  59.2929738 119.2753883  55.8081172  58.2075648
 118.8429530  55.2418768  58.5349553 117.4041963  49.2769609  41.3826661
 117.2217536  49.4941490  40.5567654 118.2667576  49.3908622  41.4385276
 117.5046552  49.3259507  41.2681148 117.0156395  61.1157532  48.8249649
 117.8545294  61.3480464  48.8723411 117.0468164  60.2461843  48.7556684
 117.1438112  61.0214478  48.8214294 117.6409098  61.5358407  53.1262955
 118.1807323  61.3929538  53.7966327 116.9579044  61.9355158  53.4946981
 117.6201251  61.5738078  53.2797376 123.0841682  46.2796020  44.4175685
 123.8127842  46.1011975  43.9713841 123.1736575  47.1214100  44.6282863
 123.2048344  46.3779898  44.3829203 124.6759227  63.0831018  60.3953532
 125.4599644  63.1961865  60.7609274 124.4755822  62.2572155  60.5912218
 124.7625253  62.9777737  60.4787918 113.0446243  57.7558698  53.2797376
 112.7784658  56.9397814  53.4388366 113.0584807  57.8011853  52.4092892
 113.0070965  57.6415602  53.1750858 116.9503990  52.5543782  39.8949134
 116.2362167  52.2681962  40.3071567 117.4347958  52.8940408  40.5355522
 116.9163353  52.5625432  40.0504769 117.7944849  51.2937076  55.9264384
 117.1016646  50.8234056  56.1725115 118.4105176  51.0675380  56.5006091
 117.7829379  51.1904208  56.0473536 124.8329620  64.9941120  54.0419988
 124.0344866  64.7540620  54.2993856 125.2815632  65.0455512  54.7887035
 124.7804232  64.9663511  54.1904912 124.1251308  61.0573736  40.2710942
 124.5402456  60.7258760  39.5795438 123.2943237  60.8242638  40.1431079
 124.0639316  60.9744992  40.1501790 113.4539656  58.5417477  50.5609120
 113.2715230  58.5164363  49.7081413 114.1889325  59.0116415  50.5998029
 113.5353720  58.6078839  50.4407039 116.5185408  55.2602480  57.0691229
 117.2425380  55.2455511  57.5556124 116.6201544  55.9697835  56.5713197
 116.6403617  55.3627183  57.0670016 123.8930357  58.7401565  61.9340176
 123.1003338  59.0545076  62.1192796 124.0079284  58.9553033  61.0960961
 123.7925768  58.8185401  61.8378511 124.8214150  58.6421768  56.8725473
 125.3953012  58.0049012  57.0274037 124.7428954  58.6425851  56.0035130
 124.8947385  58.5486880  56.7671884 113.4210567  55.4210978  50.7108187
 113.9984069  55.2847428  51.3500432 112.7224628  54.9646762  50.9653771
 113.4031588  55.3333244  50.8430477 120.1777869  57.0745033  48.9246670
 119.9197113  56.2416768  48.8977970 120.2326352  57.3002646  48.0839171
 120.1477647  56.9842805  48.7966807 125.2578919  49.1773484  49.0250763
 124.5535246  48.6882670  49.1834682 125.3063893  49.1895959  48.1539207
 125.1608971  49.1063132  48.9190103 119.1512581  54.6282796  49.4111565
 118.5762172  54.7874964  50.0475526 118.7748257  53.9918205  48.9480015
 119.0115393  54.5580609  49.4366123 122.8185870  53.1006145  54.2703943
 122.4300302  52.6760363  53.6156135 122.1540568  53.3488295  54.7780970
 122.6632797  53.0744866  54.2491811 108.8969400  54.2722871  47.4256006
 108.9829652  53.8954739  48.2069535 109.5245197  53.8983316  46.9475964
 109.0025951  54.1608353  47.4701483 123.9224808  57.3304750  42.4680750
 124.7365447  57.6219643  42.3563522 123.8583949  56.6764612  41.8939043
 124.0327547  57.2769944  42.3669588 119.7932716  60.8026267  47.5953062
 120.4306663  60.5638015  48.1404856 120.2187788  61.0063426  46.8606223
 119.9508882  60.7977277  47.5670220 114.4845358  63.0414604  51.4787366
 114.5249504  63.3129455  50.6507146 115.0439883  63.5656512  51.8945154
 114.5728704  63.1590359  51.4179254 120.4335531  56.0228557  41.9327952
 120.8180684  55.8036264  42.6844497 120.1847151  56.8491502  42.0629028
 120.4537604  56.1126703  42.0629028 120.6004072  49.3034972  61.6490536
 120.2857513  50.0734535  61.3860099 120.2794004  48.7405228  61.0642763
 120.5062991  49.3345241  61.5231886 122.1754188  61.2798690  49.2746849
 122.2493196  61.1173862  50.1288699 122.9923694  61.4688879  49.0307330
 122.3070547  61.2835432  49.3644874 115.9359945  61.6256553  46.3041292
 115.1098062  61.8718290  46.1775571 115.9971936  61.5468633  47.1703350
 115.8234112  61.6501502  46.4130237 118.1535968  47.6925494  47.2636732
 117.2858394  47.7648093  47.3294342 118.4411173  48.4947573  47.4524707
 118.0675717  47.8219641  47.3011499 120.7158774  64.2433433  44.0060322
 121.0057072  63.8522414  43.2819549 121.4462255  64.4250138  44.4465597
 120.8665658  64.2127247  43.9643129 121.3053519  59.0451179  55.0913453
 120.8065213  59.7566946  55.1698341 122.1153743  59.3651845  55.0531615
 121.3509626  59.1978027  55.0970021 118.6564689  66.2200815  47.0720472
 118.4364985  65.9298170  47.8647139 118.4359211  65.5615770  46.5438384
 118.5912284  66.0800524  47.1109380 117.5681637  58.3074132  49.3376173
 117.2794885  57.6811603  49.8721901 118.4364985  58.2494419  49.4040854
 117.6541888  58.2061676  49.4267128 120.8232645  67.5930205  45.8551164
 121.4756703  67.0606648  46.0842190 120.1258254  67.2398858  46.2419038
 120.8163363  67.4619728  45.9463332 117.7713910  59.9469383  45.2618538
 118.5259878  60.3282422  45.4754001 117.1784523  60.3980526  45.7165235
 117.7950624  60.0698210  45.3601417 120.2320577  51.9032223  60.3875751
 119.4220353  52.2090003  60.2765593 120.7095264  52.6237806  60.5028335
 120.1824056  52.0546824  60.3882822 119.0912137  61.1177944  50.6358654
 118.5692890  61.2578236  51.3210519 119.4786157  60.3588608  50.8260771
 119.0715837  61.0263468  50.7659730 116.0803321  51.1683753  44.7053609
 115.7928116  50.7985023  43.9685556 116.7673789  51.6378608  44.4437313
 116.1392218  51.1830722  44.5568684 125.2879142  62.8573403  44.6219223
 125.0465817  62.1241264  44.2146288 125.4680474  63.4060260  43.9685556
 125.2786765  62.8295795  44.4649446 120.5178462  58.1481963  46.0340145
 120.3221245  58.7556698  45.4400448 120.7412808  57.4549907  45.5531819
 120.5213103  58.1359489  45.8756226 118.9156992  55.0336701  46.1521013
 119.6379644  55.1977859  45.6924819 118.4364985  55.7546366  46.0460353
 118.9520723  55.1634931  46.0686627 116.5664609  57.4394774  55.2575153
 117.0785706  57.7179027  54.6083913 116.2800951  58.1784068  55.6237966
 116.5999472  57.5897127  55.2165031 113.6531515  51.9464965  45.5538890
 113.7547652  52.7491127  45.8819865 114.4487402  51.7452301  45.2561970
 113.7859421  52.0350864  45.5574245 120.0848334  49.5321162  55.3176195
 119.8931531  49.5476297  56.1675618 120.9346930  49.7284836  55.2942850
 120.1824056  49.5635513  55.4399489 114.4695247  52.0612144  53.2960011
 114.3280739  51.2096084  53.4204519 114.7535811  52.1040804  52.4722217
 114.4903093  51.9411894  53.1927635 124.6233840  53.8979234  47.4404499
 124.3768554  53.8174985  48.2741288 124.9518963  53.1132702  47.2467027
 124.6355083  53.7705499  47.5352023 120.5830867  56.6335952  56.8527483
 120.7274243  57.2137161  56.2170593 120.9306515  57.0112249  57.5577337
 120.6558328  56.7756656  56.8626477 122.7550784  55.8326121  54.6352614
 122.0074098  56.0257135  54.2300892 122.9092309  55.0071340  54.3976735
 122.6673212  55.7391232  54.5398020 119.6558622  64.8238724  53.7188509
 119.8048186  64.2641640  53.0661914 120.4358624  64.9030726  54.1021028
 119.7932716  64.7524290  53.6785459 122.1811923  64.9953367  54.9973000
 122.1055594  64.3262178  55.5523788 122.1101782  65.6971155  55.5113666
 122.1592529  64.9998274  55.1549848 122.9952561  49.7276671  55.5248018
 123.4525175  50.4600646  55.6520810 123.0708890  49.3043137  56.2835274
 123.0743531  49.7733910  55.6549094 115.2385553  49.9742491  56.6137462
 114.7027742  49.3622849  56.9298229 115.3003317  50.5490627  57.2671128
 115.1681185  49.9689419  56.7572888 122.8382169  63.5154366  45.8296606
 123.6032061  63.2464010  45.5079270 122.7360259  63.0304376  46.5466669
 122.9363665  63.4043931  45.8876434 120.8734939  51.7178775  52.3689842
 120.0831014  51.5370236  52.6907178 121.2695562  50.9405728  52.3520136
 120.8151815  51.5766236  52.4142390 123.3872769  54.1939035  56.8513341
 123.3231911  55.0548991  56.7233477 123.5269957  53.8771028  56.0508892
 123.3988240  54.2739201  56.7141554 122.0691863  56.8871174  50.9929544
 121.6454112  57.0875673  50.2568562 121.8936719  56.0400022  51.1053844
 121.9802744  56.7919955  50.9003234 121.5703557  68.4021687  53.4551001
 122.0599487  67.7032476  53.2726666 120.9987789  68.1045557  54.0427058
 121.5588087  68.2547911  53.5152042 117.3574308  57.3823225  46.4257516
 117.5138928  57.3170028  47.2813508 117.6974901  58.1571778  46.2136196
 117.4307543  57.4872423  46.5212110 123.8953453  56.7581109  45.2950879
 124.4368998  56.2551490  45.7589500 124.2100012  56.7046304  44.4840365
 124.0217850  56.6760530  45.2434692 122.0639903  62.1498460  42.5790907
 122.1332723  61.2912999  42.7183908 122.8428358  62.3670341  42.2509932
 122.1892753  62.0551324  42.5508065 125.0442722  51.6517413  55.3473180
 125.2584692  51.0128328  54.7936534 124.4276622  52.0963237  54.9181042
 124.9848052  51.6227557  55.2023611 113.9308570  54.5658176  46.7418283
 114.3107535  54.9842721  46.0778551 113.3563935  55.1471631  47.0487127
 113.9019895  54.7136035  46.6895024 124.4357451  44.7617349  50.3360523
 123.5651009  44.7356070  50.2893832 124.6897792  44.5894541  49.5186368
 124.3451011  44.7327493  50.2080659 121.4075430  56.8185316  39.2733666
 121.6967955  57.5950198  39.5477240 121.4947229  56.3074047  39.9748165
 121.4629687  56.8577234  39.4176164 124.3035318  54.6666550  61.0685189
 124.7734949  55.2908666  61.4553063 124.3497198  53.9983526  61.6278404
 124.3803194  54.6601230  61.2085261 121.4606591  46.7723577  51.7933993
 120.9445080  46.0803769  51.9185572 120.9000520  47.4394355  51.7396592
 121.3013105  46.7686835  51.8040059 123.5298825  47.3116538  53.6226846
 123.1430578  47.3365569  54.4040376 123.0431762  46.7458216  53.1701362
 123.4011334  47.2312288  53.6714749 123.1955967  44.1983523  55.9137106
 123.8249085  44.7343823  55.6358176 123.3641829  44.1060882  56.7650671
 123.3133761  44.2644885  55.9985634 122.9969882  48.9854718  58.1863517
 123.8243311  48.7139867  58.2422132 123.0177728  49.7815559  58.5427335
 123.1222732  49.0634472  58.2478700 117.5739371  56.1318581  51.3733778
 116.7327378  56.0322455  51.5812672 117.7829379  56.9014061  51.7248098
 117.4804064  56.2310624  51.4561093 115.0514938  53.7538117  49.2018528
 114.6571636  53.8281129  48.4268638 114.4955055  54.1396064  49.7526890
 114.9117751  53.8219892  49.1686188 121.3856036  54.0599980  50.6231375
 121.0819174  53.5055968  51.2241783 120.6835457  54.2392190  50.1359410
 121.2372246  54.0044762  50.6401081 120.4422133  51.3700500  45.1876077
 120.7181868  50.6519412  44.7753645 121.0420803  51.9685419  44.9797183
 120.5715398  51.3520870  45.0956838 119.4474387  61.2749700  55.3303473
 119.3394742  61.2851763  56.1965531 119.6570169  62.1004481  55.1408427
 119.4624498  61.3990775  55.4307565 123.9432654  49.0414017  43.4622672
 124.3976400  49.2124577  44.1870517 124.4172700  48.4282128  43.0620448
 124.0800974  48.9764902  43.5096434 117.4648179  58.5262343  52.7925411
 116.8736113  59.1671841  52.7628426 118.2269203  58.9499960  52.7656710
 117.4896440  58.6838181  52.7840558 117.8608802  49.6864341  53.4593428
 118.3210284  49.7603270  54.1968552 117.9064909  50.4845595  53.1093250
 117.9359357  49.8158488  53.5166185 119.5092152  50.3531035  58.0265455
 119.1177717  49.7064383  58.4621233 119.6778015  50.9442471  58.6459711
 119.4763062  50.3445303  58.1828161 121.2845674  55.7456551  44.5667679
 122.0287719  56.1330828  44.8050629 121.4306370  54.9013977  44.7308167
 121.4156259  55.6787024  44.6261649 123.2025249  47.5406810  49.5999541
 122.3561294  47.7129618  49.4740891 123.1996382  46.7356154  49.9365369
 123.0772399  47.4467839  49.6310668 124.2723550  51.3182025  50.4661599
 123.7983504  50.7923787  50.9766910 124.6441686  50.7711497  49.8976460
 124.2573439  51.1598021  50.4576746 114.6496580  53.3153531  55.8345145
 115.5122193  53.2149240  55.7482474 114.3188363  52.7348241  55.2730717
 114.7281776  53.2145158  55.7390550 118.0098366  52.1395980  52.4955563
 117.3851436  52.1514372  51.8881515 117.6743961  52.6156155  53.1446803
 117.8683858  52.2114497  52.5012131 118.1940115  50.4821099  38.5528248
 117.8452919  51.1340824  39.0159797 117.7136560  50.4678212  37.8252119
 118.0710358  50.5764152  38.5139339 114.7224041  60.1996440  53.9359327
 114.1923966  59.5088879  53.9854302 114.9949135  60.1906626  53.1072036
 114.6848764  60.0963572  53.8206743 124.9230287  57.6419685  53.9097699
 124.3087280  57.0977735  54.2046334 125.4397572  57.1283921  53.4303515
 124.9085949  57.4856094  53.8821927 124.1626584  58.7123955  51.6441997
 123.7354192  58.0873674  51.2107433 124.1551528  58.4298877  52.4701004
 124.0985725  58.5776736  51.7021825 117.2789111  53.7489128  54.7130431
 117.4382598  52.9932452  55.1182153 117.0982005  54.2980068  55.3671169
 117.2754470  53.7182942  54.8693137 122.4912294  49.5892710  51.8584531
 122.5154781  49.0552822  51.1697311 122.7423767  49.0810018  52.5210122
 122.5322212  49.4353613  51.8549176 110.0019884  56.8724205  51.2927675
 109.8963333  56.8271049  50.4279759 109.2520104  57.2177985  51.5741960
 109.8755487  56.9165113  51.2065005 118.7713616  48.3163528  51.2390276
 118.8111988  48.8172734  51.9524983 117.9463281  48.4073921  50.9696199
 118.6553142  48.4045344  51.3040814 120.9543229  57.8824268  59.3410570
 120.1038859  58.0195982  59.4768215 121.1171357  57.1488046  59.7858272
 120.8527092  57.7938369  59.4266169 120.1927979  54.8324038  53.5364175
 119.3619909  54.9997856  53.3299423 120.1379497  54.4559988  54.3213060
 120.0617394  54.8013769  53.6212703 118.0011763  48.3232931  59.1720585
 118.6264466  47.7795063  59.4450018 117.5462243  47.8427848  58.6028376
 118.0260023  48.1722412  59.1282179 118.5664023  53.1079629  44.0654292
 118.7066984  53.6052093  44.7682934 119.0646556  52.4065924  44.2068506
 118.6605104  53.0781608  44.1905871 118.5964246  53.9746740  41.3946869
 119.2309325  54.5707165  41.3296331 118.6789856  53.6750198  42.2092739
 118.7020797  54.0187648  41.5049956 120.1743228  49.9060716  41.3692311
 120.4959070  49.4263798  40.7151573 120.4370172  50.7160362  41.1783123
 120.2609254  49.9550613  41.2447803 123.4040201  60.9279590  54.8891127
 122.8965292  61.4815437  55.3331758 123.1066847  60.9887880  54.0709902
 123.2845086  61.0185901  54.8339584 115.1017234  56.1714581  44.6636415
 115.6109463  56.7679088  45.0447721 115.5751506  55.9040555  43.9812835
 115.2460609  56.2200396  44.6190938 124.0096606  45.7648009  47.1406367
 123.3664924  45.6145656  47.7091506 123.6696013  45.5190355  46.3755472
 123.8641684  45.7060132  47.1109382 122.6482687  65.8604148  51.7948134
 122.4248341  65.1022977  52.1632160 122.1592530  65.8902169  51.0728574
 122.5426136  65.7526373  51.7424875 117.4607765  52.8070839  47.5309596
 116.7419754  53.2234972  47.7982459 117.8320128  53.3725078  46.9801234
 117.4099697  52.9520121  47.4892403 124.7053676  60.0285880  59.3460068
 124.6649531  59.3835557  58.7605224 125.5176994  59.9722498  59.6585480
 124.8196829  59.9244847  59.3057017 121.2961143  66.0804606  49.2485219
 120.8821542  65.4178736  48.8589060 121.9808518  66.2282465  48.7280913
 121.3359515  66.0045264  49.1141716 124.6626438  65.2394692  50.0008835
 124.2642721  65.3496962  49.2329656 124.0477657  65.4476758  50.5835395
 124.5125327  65.2868260  49.9740135 123.2354340  51.8468839  42.8682975
 122.6419179  52.1685836  42.3167542 123.2729617  51.0009935  42.6604081
 123.1528729  51.7693168  42.7565746 120.3931385  53.6582817  55.9009825
 119.8810288  53.0504000  56.2594857 120.2210881  54.3739409  56.3683801
 120.2921022  53.6746116  56.0226049 115.2397099  52.1020392  58.5512187
 115.0699690  52.7621767  58.0060394 114.7963049  52.3126953  59.2724676
 115.1496433  52.2306374  58.5773817 119.1656919  50.3424890  47.5938921
 119.6414285  50.7041970  46.9589102 118.6645518  50.9981358  47.8739064
 119.1622278  50.4919079  47.5415662 124.2700455  51.5807062  58.3412081
 124.8271885  51.3520871  57.7090546 123.9461520  52.3412727  58.0647293
 124.3046865  51.6590898  58.2068578 112.1399164  55.0067258  53.8100677
 111.5925883  54.3367903  53.9281545 112.9291542  54.6397106  53.8744144
 112.1751347  54.8532244  53.8369378 121.9883572  54.6674715  59.3064088
 122.7394899  54.9826392  59.6203642 122.1806149  54.4653886  58.4798010
 122.1274986  54.6842097  59.2307484 121.2083572  52.4866090  40.9612305
 121.5882537  52.5045719  40.1763420 120.4676168  52.9320079  40.8403152
 121.1552410  52.5547865  40.8275873 110.8986133  54.2188066  50.9646700
 110.7207894  53.7664675  51.6901616 110.6105155  55.0214227  51.1485178
 110.8299086  54.2710623  51.0990203 122.0068326  59.3243596  42.3521095
 121.1979649  59.0010270  42.3054404 122.5143235  58.6176818  42.2849344
 121.9617993  59.1724913  42.3351389 112.6358603  56.7515789  48.0768459
 111.7704123  56.7401480  47.9651230 112.7357419  56.5646012  48.9239598
 112.5232770  56.7221851  48.1857404 118.2615613  66.5213688  51.6498565
 118.5762172  67.3350076  51.6576346 118.6709026  66.1363907  52.3180724
 118.3683711  66.5842390  51.7502656 125.2140133  61.9383735  49.2202377
 125.6851311  62.6523997  49.3892362 125.5500311  61.3382485  49.7562246
 125.3335248  61.9555199  49.3234753 122.1309628  46.7111205  56.1760471
 122.2637533  45.9142199  56.5041447 122.5154780  47.2377608  56.7558747
 122.2065957  46.6711122  56.3103974 125.2041983  43.6341531  52.7741565
 124.3987947  43.5239261  53.0909403 125.0748718  43.7353987  51.9171431
 125.0662116  43.6325202  52.6949605 121.2002743  48.7127618  43.6439936
 122.0218437  48.8825931  43.4021631 120.7372393  48.8674879  42.9206234
 121.2533905  48.7609351  43.5011581 119.7898074  46.7070380  54.4238365
 120.3342487  46.3661507  55.0142707 119.8435010  47.5655842  54.5659650
 119.8787194  46.7825640  54.5320239 115.6028633  60.4686796  51.2977173
 116.2073491  60.4282631  50.6690994 115.3955946  61.3157948  51.3281229
 115.6617531  60.5874799  51.2093290 110.8379916  59.4521414  51.1676096
 110.7404194  58.6417685  51.4766153 111.6208785  59.4313207  50.7822364
 110.9396052  59.3288504  51.1562959 124.2476681  75.0494641  47.8887555
 124.0126865  74.2162293  47.7819824 124.3862321  75.3299307  47.0748756
 124.2332343  74.9678144  47.7529910 124.0178826  73.2744006  53.2797376
 123.7517241  72.4583122  53.4388366 124.0317390  73.3197161  52.4092892
 123.9803549  73.1600910  53.1750858 124.4272240  74.0602785  50.5609120
 124.2447813  74.0349671  49.7081413 125.1621909  74.5301723  50.5998029
 124.5086304  74.1264147  50.4407039 124.3943150  70.9396286  50.7108187
 124.9716653  70.8032736  51.3500432 123.6957212  70.4832070  50.9653771
 124.3764172  70.8518552  50.8430477 119.8701983  69.7908179  47.4256006
 119.9562235  69.4140047  48.2069535 120.4977781  69.4168624  46.9475964
 119.9758534  69.6793661  47.4701483 124.6264099  67.4650273  45.5538890
 124.7280235  68.2676435  45.8819865 125.4219985  67.2637609  45.2561970
 124.7592004  67.5536172  45.5574245 125.4427831  67.5797452  53.2960011
 125.3013323  66.7281392  53.4204519 125.7268394  67.6226112  52.4722217
 125.4635677  67.4597202  53.1927635 124.9041153  70.0843484  46.7418283
 125.2840118  70.5028029  46.0778551 124.3296518  70.6656939  47.0487127
 124.8752478  70.2321343  46.6895024 120.9752467  72.3909512  51.2927675
 120.8695916  72.3456357  50.4279759 120.2252687  72.7363293  51.5741960
 120.8488070  72.4350421  51.2065005 123.1131747  70.5252566  53.8100677
 122.5658467  69.8553211  53.9281545 123.9024126  70.1582414  53.8744144
 123.1483931  70.3717552  53.8369378 121.8718717  69.7373374  50.9646700
 121.6940478  69.2849983  51.6901616 121.5837739  70.5399535  51.1485178
 121.8031670  69.7895931  51.0990203 123.6091187  72.2701097  48.0768459
 122.7436706  72.2586788  47.9651230 123.7090003  72.0831320  48.9239598
 123.4965354  72.2407159  48.1857404 121.8112499  74.9706722  51.1676096
 121.7136777  74.1602993  51.4766153 122.5941369  74.9498515  50.7822364
 121.9128636  74.8473812  51.1562959  96.2479954   9.3978170  32.9312496
  95.4962853   9.0193708  32.7028541  96.6965965   9.4296603  32.1831306
  96.2029620   9.3463777  32.7869998 101.2409205  11.7717808  34.3009154
 101.6248584  12.3404706  33.7613930 101.1768346  11.0467318  33.8214970
 101.2882632  11.7493271  34.1503017  97.6665449  14.3274151  36.5990124
  98.3102905  14.7687315  36.9886283  97.9921705  13.5227577  36.5120383
  97.8097278  14.2739346  36.6435601  92.5847079  10.3102519  36.0983808
  92.1014657  11.0353009  36.0743392  93.3970397  10.6078649  36.2093966
  92.6337826  10.4604873  36.1111087  95.4391276  10.8258695  36.2504088
  96.1411855  10.3110684  36.3076844  95.3588759  11.1532846  37.0550963
  95.5315036  10.7972921  36.3776880 102.5815277  10.8948635  40.9760035
 101.7830523  10.6548135  41.2333903 103.0301289  10.9463028  41.7227082
 102.5289889  10.8671026  41.1244959  92.2331015   8.9422119  38.4127413
  92.2735161   9.2136970  37.5847193  92.7925539   9.4664027  38.8285201
  92.3214361   9.0597874  38.3519301  98.4644431  10.1440948  30.9400369
  98.7542729   9.7529930  30.2159595  99.1947911  10.3257653  31.3805644
  98.6151315  10.1134762  30.8983176  96.4050346  12.1208331  34.0060519
  96.1850642  11.8305685  34.7987186  96.1844868  11.4623286  33.4778431
  96.3397940  11.9808039  34.0449427  98.5718302  13.4937721  32.7891211
  99.2242360  12.9614163  33.0182237  97.8743911  13.1406373  33.1759085
  98.5649020  13.3627244  32.8803379  97.4044279  10.7246240  40.6528556
  97.5533842  10.1649155  40.0001961  98.1844281  10.8038241  41.0361075
  97.5418372  10.6531805  40.6125505  99.9297579  10.8960882  41.9313047
  99.8541250  10.2269693  42.4863835  99.8587438  11.5978671  42.4453713
  99.9078186  10.9005790  42.0889895  99.3189214  14.3029202  40.3891048
  99.8085144  13.6039991  40.2066712  98.7473446  14.0053072  40.9767105
  99.3073744  14.1555426  40.4492089 100.3968343  11.7611663  38.7288181
 100.1733998  11.0030493  39.0972207  99.9078187  11.7909685  38.0068621
 100.2911792  11.6533888  38.6764922  99.0446800  11.9812122  36.1825266
  98.6307199  11.3186252  35.7929107  99.7294174  12.1289980  35.6620960
  99.0845172  11.9052780  36.0481763 102.4112094  11.1402207  36.9348882
 102.0128378  11.2504477  36.1669702 101.7963314  11.3484273  37.5175442
 102.2610984  11.1875775  36.9080181  96.0101270  12.4221203  38.5838612
  96.3247829  13.2357592  38.5916393  96.4194683  12.0371422  39.2520771
  96.1169368  12.4849906  38.6842703 112.8371397  15.3800760  37.1675264
 111.9809293  15.5409258  37.2184381 112.8839051  14.5092824  37.1880325
 112.7170509  15.2751561  37.1781330 107.2212537  24.9163477  32.9312496
 106.4695437  24.5379016  32.7028541 107.6698549  24.9481911  32.1831306
 107.1762204  24.8649085  32.7869998 116.1465114  21.6487285  46.7735720
 116.8531881  21.1539316  46.9022655 116.3353049  22.0896367  46.0438378
 116.2793020  21.6405636  46.6844766 112.6737497  25.3388847  28.3598043
 112.3388865  26.0165769  27.9242265 113.1864367  24.9494158  27.7714914
 112.7003078  25.3813425  28.2084834 112.2141788  27.2903116  34.3009154
 112.5981168  27.8590014  33.7613930 112.1500929  26.5652626  33.8214970
 112.2615215  27.2678579  34.1503017 115.6823218  17.4392804  39.8106916
 116.2279178  18.1177890  39.8700885 115.6240095  17.2980264  38.9508497
 115.7539133  17.5184805  39.6918976 108.7997293  24.9281870  35.1975268
 108.9007656  24.1182224  35.5072396 108.2039039  24.8338816  34.5674947
 108.7269832  24.7946898  35.1501507 108.6398033  29.8459459  36.5990124
 109.2835488  30.2872623  36.9886283 108.9654288  29.0412885  36.5120383
 108.7829862  29.7924654  36.6435601 101.9962338  20.9502156  34.8227602
 101.7612522  20.1169809  34.7159871 102.1347978  21.2306822  34.0088803
 101.9818000  20.8685660  34.6869957 104.2952425  13.1187887  37.7211910
 103.6757457  12.5280534  37.5521924 104.1936289  13.7099322  37.0876233
 104.1890101  13.1191969  37.6016899 109.3418613  22.8571434  31.9709986
 109.6634454  23.3976641  31.3671294 109.9890709  22.2868205  32.1032276
 109.4844668  22.8530609  31.9017021 111.3920321  14.8587429  32.0544373
 112.0900485  15.0375556  32.5465836 111.7072653  14.3357768  31.4314762
 111.5415658  14.8081201  32.0346383 104.0221558  16.6640169  39.9655478
 103.8980255  17.2502614  40.6005297 104.6739843  16.1700364  40.2667753
 104.0995207  16.6778973  40.1041408 111.5808256  21.2457874  32.0424164
 112.0201892  20.6374974  32.4878937 111.4312919  20.8665247  31.2709629
 111.6229722  21.0996345  31.9943331 109.0479899  19.8401885  39.2442990
 109.6928902  19.3474329  38.9253938 109.2881676  19.9826672  40.0709068
 109.1790484  19.7879328  39.3192523 111.5865990  22.6856791  38.8949882
 111.8689233  21.8908197  38.6736638 112.3152151  23.1637379  38.9154943
 111.7355554  22.6391388  38.8652897 115.1817593  19.5985055  28.9954933
 115.0968888  20.4546022  29.1404502 115.6701976  19.3229379  29.6637092
 115.2406490  19.6842376  29.1157015 121.5684079  21.7916154  35.8685713
 120.7381782  22.0026797  36.0319129 121.5193331  20.9653208  35.5927997
 121.4390814  21.7005760  35.8523078 108.0035634  20.1133066  29.2960136
 107.4192849  20.6183097  29.7026000 107.6005729  19.8875453  28.5556728
 107.8574937  20.1541314  29.2465162 103.5579662  25.8287827  36.0983808
 103.0747240  26.5538317  36.0743392 104.3702980  26.1263957  36.2093966
 103.6070410  25.9790181  36.1111087 109.6293816  24.6220008  38.7033622
 109.1120758  24.2627423  38.0994931 110.3268208  24.0982182  38.7139689
 109.6559397  24.4917696  38.6163881 113.2857408  25.0714822  44.6649795
 113.3740754  24.8840962  45.5128006 113.7147121  24.4252251  44.2654642
 113.3619511  24.9477829  44.7321547 110.8527868  24.3545982  43.6467458
 110.2898703  23.9418592  44.1707119 111.6148892  24.2798887  44.0660601
 110.8822317  24.2823382  43.7860458 106.4123860  26.3444003  36.2504088
 107.1144439  25.8295992  36.3076844 106.3321343  26.6718154  37.0550963
 106.5047620  26.3158229  36.3776880 107.4602766  16.5819590  45.3784503
 107.6323270  16.4725484  46.2269784 107.9972124  17.2273995  45.1415695
 107.5647770  16.6611592  45.4689600 105.7374635  22.5350355  35.7589696
 106.5763534  22.7673288  35.8063457 105.7686404  21.6654666  35.6896731
 105.8656353  22.4407301  35.7554341 106.3627338  22.9551230  40.0603001
 106.9025563  22.8122361  40.7306374 105.6797284  23.3547981  40.4287028
 106.3419492  22.9930901  40.2137423 115.7868223  18.6342231  35.2548026
 116.5425738  19.0673745  35.2936934 115.8930547  17.9847000  35.8282662
 115.9138393  18.6019715  35.3446051 118.8248394  22.4615508  36.0050429
 118.3883626  22.4652250  36.7609400 118.4911309  23.1421007  35.5730006
 118.7111014  22.5627964  36.0531261 113.3977468  24.5023841  47.3293579
 114.1817884  24.6154689  47.6949321 113.1974062  23.6764978  47.5252265
 113.4843493  24.3970560  47.4127965 101.7664483  19.1751521  40.2137423
 101.5002898  18.3590638  40.3728413 101.7803047  19.2204676  39.3432938
 101.7289205  19.0608426  40.1090905 105.6722230  13.9736605  26.8289181
 104.9580407  13.6874785  27.2411614 106.1566199  14.3133231  27.4695568
 105.6381593  13.9818255  26.9844816 106.5163089  12.7129899  42.8604431
 105.8234886  12.2426879  43.1065162 107.1323417  12.4868204  43.4346138
 106.5047619  12.6097031  42.9813583 113.5547861  26.4133943  40.9760035
 112.7563107  26.1733443  41.2333903 114.0033872  26.4648336  41.7227082
 113.5022472  26.3856334  41.1244959 121.9592740  19.1796428  34.8970066
 122.6209174  18.6187096  34.7965974 121.3184152  18.6848459  35.2222757
 121.9621608  19.0232837  34.9302406 112.8469548  22.4766559  27.2050989
 113.2620696  22.1451583  26.5135485 112.0161478  22.2435462  27.0771126
 112.7857557  22.3937815  27.0841837 102.1757897  19.9610300  37.4949167
 101.9933470  19.9357186  36.6421459 102.9107566  20.4309238  37.5338076
 102.2571961  20.0271663  37.3747086 118.2457571  20.1961810  34.6382055
 118.4813160  20.3407009  33.8108905 118.3947134  20.9604218  35.0313568
 118.3023374  20.3300865  34.5745659 105.2403648  16.6795303  44.0031276
 105.9643621  16.6648334  44.4896171 105.3419785  17.3890658  43.5053244
 105.3621857  16.7820006  44.0010063 112.6148598  20.1594388  48.8680223
 111.8221579  20.4737900  49.0532842 112.7297525  20.3745856  48.0301007
 112.5144008  20.2378224  48.7718558 115.2879917  16.8828379  33.1575239
 115.3826771  17.6217673  33.6114864 114.6638760  16.4545854  33.5909803
 115.2088947  16.9289699  33.2883386 113.5432391  20.0614592  43.8065520
 114.1171252  19.4241836  43.9614083 113.4647194  20.0618674  42.9375177
 113.6165625  19.9679703  43.7011930 102.1428807  16.8403801  37.6448234
 102.7202310  16.7040252  38.2840479 101.4442869  16.3839585  37.8993818
 102.1249828  16.7526067  37.7770523 108.8996109  18.4937857  35.8586717
 108.6415353  17.6609592  35.8318016 108.9544592  18.7195470  35.0179217
 108.8695887  18.4035628  35.7306854 107.8730821  16.0475619  36.3451612
 107.2980413  16.2067787  36.9815573 107.4966498  15.4111028  35.8820062
 107.7333634  15.9773432  36.3706170 111.5404110  14.5198968  41.2043990
 111.1518543  14.0953186  40.5496181 110.8758808  14.7681118  41.7121017
 111.3851038  14.4937689  41.1831858  97.6187640  15.6915694  34.3596052
  97.7047892  15.3147562  35.1409582  98.2463438  15.3176139  33.8816011
  97.7244191  15.5801176  34.4041530 112.6443048  18.7497573  29.4020797
 113.4583687  19.0412466  29.2903568 112.5802189  18.0957435  28.8279090
 112.7545787  18.6962768  29.3009634 118.8652538  21.4323569  43.8150373
 118.6291176  20.6011634  43.6962433 119.5095767  21.3809176  44.4005217
 118.9247209  21.3021257  43.8836266 108.5150956  22.2219090  34.5293109
 109.1524903  21.9830838  35.0744903 108.9406028  22.4256249  33.7946270
 108.6727123  22.2170101  34.5010267 103.2063599  24.4607427  38.4127413
 103.2467744  24.7322278  37.5847193 103.7658123  24.9849335  38.8285201
 103.2946945  24.5783182  38.3519301 109.1553771  17.4421380  28.8667999
 109.5398924  17.2229087  29.6184544 108.9065392  18.2684326  28.9969075
 109.1755844  17.5319526  28.9969075 119.8888959  21.2168018  39.8778667
 119.5834776  21.9496075  40.2391983 119.1695175  20.8105947  39.5971453
 119.7376301  21.2649751  39.8891804 110.8972428  22.6991513  36.2086895
 110.9711437  22.5366685  37.0628745 111.7141935  22.8881703  35.9647377
 111.0288787  22.7028255  36.2984921 104.6578185  23.0449376  33.2381339
 103.8316303  23.2911113  33.1115618 104.7190176  22.9661457  34.1043397
 104.5452352  23.0694325  33.3470283 109.4377014  25.6626256  30.9400369
 109.7275313  25.2715237  30.2159595 110.1680495  25.8442961  31.3805644
 109.5883898  25.6320070  30.8983176 110.0271759  20.4644002  42.0253499
 109.5283453  21.1759770  42.1038388 110.8371984  20.7844669  41.9871662
 110.0727866  20.6170851  42.0310068 107.3782930  27.6393639  34.0060519
 107.1583225  27.3490993  34.7987186 107.1577452  26.9808594  33.4778431
 107.3130524  27.4993347  34.0449427 106.2899877  19.7266955  36.2716220
 106.0013126  19.1004426  36.8061948 107.1583225  19.6687242  36.3380901
 106.3760129  19.6254499  36.3607175 109.5450885  29.0123028  32.7891211
 110.1974943  28.4799471  33.0182237 108.8476494  28.6591681  33.1759085
 109.5381603  28.8812551  32.8803379 106.4932150  21.3662206  32.1958585
 107.2478118  21.7475245  32.4094048 105.9002763  21.8173350  32.6505282
 106.5168864  21.4891033  32.2941464 117.5390804  21.3327442  32.1322190
 118.1048836  21.9920652  32.0480733 116.8918707  21.6777141  32.6038592
 117.5269560  21.4809384  32.1894947 108.9538817  13.3225046  47.3215798
 108.1438593  13.6282826  47.2105640 109.4313504  14.0430629  47.4368382
 108.9042296  13.4739648  47.3222869 107.8130377  22.5370767  37.5698701
 107.2911130  22.6771059  38.2550565 108.2004397  21.7781432  37.7600818
 107.7934078  22.4456291  37.6999777 104.8021561  12.5876576  31.6393655
 104.5146357  12.2177847  30.9025603 105.4892029  13.0571431  31.3777360
 104.8610458  12.6023546  31.4908731 114.0097382  24.2766227  31.5559269
 113.7684058  23.5434087  31.1486334 114.1898715  24.8253084  30.9025603
 114.0005006  24.2488618  31.3989492 109.2396703  19.5674786  32.9680192
 109.0439485  20.1749521  32.3740495 109.4631048  18.8742730  32.4871866
 109.2431344  19.5552312  32.8096273 107.6375233  16.4529524  33.0861060
 108.3597884  16.6170683  32.6264866 107.1583225  17.1739189  32.9800400
 107.6738963  16.5827754  33.0026674 105.2882849  18.8587597  42.1915200
 105.8003946  19.1371850  41.5423960 105.0019192  19.5976891  42.5578013
 105.3217712  19.0089950  42.1505078 119.4726264  17.9961310  35.7518987
 119.3860238  18.1516736  36.6053766 119.0176744  18.6399385  35.3778392
 119.3929521  18.1137065  35.8226094 102.3749756  13.3657789  32.4878936
 102.4765892  14.1683950  32.8159912 103.1705642  13.1645125  32.1902017
 102.5077661  13.4543687  32.4914292 103.1913488  13.4804967  40.2300058
 103.0498979  12.6288908  40.3544566 103.4754051  13.5233628  39.4062264
 103.2121334  13.3604717  40.1267682 113.3452080  15.3172057  34.3744546
 113.0986794  15.2367808  35.2081335 113.6737203  14.5325525  34.1807074
 113.3573324  15.1898322  34.4692069 117.2400129  22.0255416  38.1631328
 117.1014488  22.7236462  38.6680070 116.4600127  21.8704073  37.8067509
 117.1043356  22.1055583  38.1857602 115.5778214  18.3251792  44.4153709
 115.5726252  17.4531608  44.4196136 116.2839208  18.5239961  43.9423165
 115.6823218  18.2255666  44.3460745 109.3049107  18.0528776  43.7867529
 109.4492483  18.6329984  43.1510639 109.6524756  18.4305072  44.4917384
 109.3776569  18.1949480  43.7966524 111.4769025  17.2518944  41.5692661
 110.7292339  17.4449958  41.1640939 111.6310550  16.4264164  41.3316782
 111.3891452  17.1584055  41.4738067 108.3776862  26.2431547  40.6528556
 108.5266426  25.6834463  40.0001961 109.1576864  26.3223549  41.0361075
 108.5150956  26.1717113  40.6125505 110.9030163  26.4146190  41.9313047
 110.8273834  25.7455001  42.4863835 110.8320022  27.1163979  42.4453713
 110.8810770  26.4191098  42.0889895 111.5600410  24.9347189  32.7636653
 112.3250301  24.6656833  32.4419317 111.4578500  24.4497200  33.4806716
 111.6581905  24.8236754  32.8216481 114.9796866  20.7714029  37.0289335
 114.3041868  20.5399261  37.5302722 114.9889242  20.1635212  36.4031440
 114.8815370  20.6472954  37.0105487 112.1091010  15.6131858  43.7853388
 112.0450151  16.4741814  43.6573524 112.2488198  15.2963851  42.9848939
 112.1206480  15.6932024  43.6481600 116.9813600  23.6279161  29.2599513
 117.0633438  24.4346147  28.9360963 117.4663343  23.6475120  29.9840286
 117.0650758  23.7499824  29.3186411 110.7910104  18.3063997  37.9269591
 110.3672353  18.5068496  37.1908609 110.6154959  17.4592845  38.0393890
 110.7020984  18.2112779  37.8343281 110.2921797  29.8214510  40.3891048
 110.7817728  29.1225299  40.2066712 109.7206029  29.5238380  40.9767105
 110.2806327  29.6740734  40.4492089 106.0792549  18.8016049  33.3597563
 106.2357168  18.7362851  34.2153555 106.4193142  19.5764601  33.1476243
 106.1525784  18.9065247  33.4552157 112.6171693  18.1773932  32.2290926
 113.1587239  17.6744313  32.6929547 112.9318252  18.1239127  31.4180412
 112.7436090  18.0953353  32.1774738 116.4888801  22.3876579  49.3417838
 117.3023666  22.1161728  49.5022971 116.3283767  22.0884119  48.5378034
 116.5858749  22.3031506  49.2463244 110.7858143  23.5691284  29.5130954
 110.8550963  22.7105822  29.6523955 111.5646598  23.7863165  29.1849979
 110.9110993  23.4744148  29.4848112 115.1765631  25.9928985  33.7267448
 114.7845422  25.6895700  33.0090314 115.3318703  26.8298075  33.5372401
 115.1419220  26.0712822  33.5923945 102.6526810  15.9850999  33.6758330
 103.0325775  16.4035544  33.0118598 102.0782175  16.5664455  33.9827174
 102.6238135  16.1328858  33.6235071 115.3405305  22.5578974  33.6673478
 114.9819960  22.7293617  34.4437511 114.8544016  23.0192179  33.1101477
 115.2164002  22.6517945  33.6998747 110.1293671  18.2378139  26.2073713
 110.4186196  19.0143022  26.4817287 110.2165470  17.7266871  26.9088212
 110.1847927  18.2770058  26.3516210 113.0253558  16.0859373  48.0025236
 113.4953189  16.7101490  48.3893110 113.0715438  15.4176349  48.5618451
 113.1021434  16.0794054  48.1425308 116.5010045  23.4482870  44.6140679
 117.1389765  22.9543065  44.2803135 115.8584136  23.3760270  44.0292906
 116.5004271  23.3641878  44.4783034 116.5564301  24.1402678  41.2546036
 117.3456679  23.7891743  41.3748117 116.7307899  24.9539066  40.9922670
 116.6984583  24.2088535  41.2333904 106.2957612  17.5511404  38.3073825
 105.4545618  17.4515278  38.5152718 106.5047620  18.3206884  38.6588145
 106.2022304  17.6503447  38.3901140 103.7733179  15.1730941  36.1358575
 103.3789876  15.2473953  35.3608685 103.2173296  15.5588887  36.6866937
 103.6335991  15.2412715  36.1026235 110.1074277  15.4792803  37.5571422
 109.8037414  14.9248791  38.1581830 109.4053697  15.6585013  37.0699456
 109.9590486  15.4237585  37.5741128 108.1692628  22.6942524  42.2643520
 108.0612983  22.7044586  43.1305578 108.3788409  23.5197304  42.0748474
 108.1842739  22.8183598  42.3647612 106.1866420  19.9455166  39.7265458
 105.5954353  20.5864664  39.6968473 106.9487443  20.3692783  39.6996757
 106.2114680  20.1031004  39.7180605 122.3056841  19.7760936  40.7242736
 122.3639965  20.2247585  41.4702712 121.6723309  20.1859749  40.2872816
 122.2208136  19.9034670  40.7695284 115.9455936  25.3964478  37.1597482
 115.7475625  25.8855292  36.4653693 115.3243647  25.6005719  37.7381615
 115.8243500  25.4981016  37.1420705 110.0063914  17.1649374  31.5007726
 110.7505959  17.5523651  31.7390676 110.1524610  16.3206800  31.6648214
 110.1374499  17.0979847  31.5601696 103.3714820  14.7346355  42.7685191
 104.2340433  14.6342064  42.6822521 103.0406603  14.1541064  42.2070764
 103.4500017  14.6337981  42.6730597 119.2578521  17.7977223  38.8108426
 119.0176744  16.9583639  38.8150853 119.7370528  17.8777390  39.5349200
 119.2930704  17.6858623  38.9183228 117.8629738  18.9628630  42.6942730
 118.5863937  18.5101156  42.5153750 117.5979700  19.2433296  41.9115058
 117.9311011  18.9379598  42.5521446 106.7316606  13.5588804  39.4295610
 106.1069676  13.5707195  38.8221562 106.3962201  14.0348979  40.0786850
 106.5902098  13.6307321  39.4352178 103.4442282  21.6189264  40.8699374
 102.9142206  20.9281703  40.9194349 103.7167375  21.6099449  40.0412082
 103.4067004  21.5156395  40.7546790 114.4762372  22.2014966  29.5937056
 115.1996571  22.6673079  29.4501630 114.0362963  22.2688576  28.8434653
 114.5178064  22.2798803  29.4621838 113.6448527  19.0612508  40.8437745
 113.0305520  18.5170559  41.1386381 114.1615812  18.5476745  40.3643562
 113.6304190  18.9048917  40.8161974 112.8844824  20.1316778  38.5782044
 112.4572433  19.5066497  38.1447479 112.8769769  19.8491700  39.4041051
 112.8203966  19.9969559  38.6361872 106.0007352  15.1681951  41.6470478
 106.1600838  14.4125275  42.0522200 105.8200245  15.7172891  42.3011216
 105.9972711  15.1375765  41.8033184  98.7238124  18.2917028  38.2267722
  98.6181573  18.2463872  37.3619806  97.9738344  18.6370808  38.5082007
  98.5973727  18.3357936  38.1405052 109.6761469  19.3017091  46.2750617
 108.8257100  19.4388805  46.4108262 109.8389597  18.5680869  46.7198319
 109.5745333  19.2131192  46.3606216 108.9146220  16.2516861  40.4704221
 108.0838149  16.4190679  40.2639470 108.8597737  15.8752812  41.2553107
 108.7835635  16.2206592  40.5552750 107.2882264  14.5272452  30.9994339
 107.4285225  15.0244917  31.7022980 107.7864796  13.8258747  31.1408553
 107.3823345  14.4974431  31.1245918 107.3182486  15.3939563  28.3286916
 107.9527565  15.9899988  28.2636378 107.4008097  15.0943021  29.1432786
 107.4239037  15.4380472  28.4390002 120.2965052  17.9255041  41.1973280
 120.8882892  18.5652291  41.2291478 120.7324046  17.2278078  41.4865347
 120.4483483  17.9173391  41.2454113 112.1258442  22.3472413  41.8231174
 111.6183533  22.9008260  42.2671805 111.8285088  22.4080703  41.0049949
 112.0063327  22.4378724  41.7679631 103.8235474  17.5907404  31.5976462
 104.3327703  18.1871912  31.9787767 104.2969746  17.3233378  30.9152882
 103.9678850  17.6393220  31.5530985 114.7366222  26.2635671  29.7535118
 114.0195532  26.0896533  29.2882355 115.3872960  26.0288243  29.2210604
 114.7268072  26.2031463  29.6064335 111.3700927  27.2796971  38.7288181
 111.1466581  26.5215801  39.0972207 110.8810770  27.3094993  38.0068621
 111.2644376  27.1719196  38.6764922 106.1826006  14.2263663  34.4649642
 105.4637995  14.6427795  34.7322506 106.5538368  14.7917902  33.9141281
 106.1317937  14.3712944  34.4232449 113.4271916  21.4478704  46.2800115
 113.3867771  20.8028381  45.6945271 114.2395235  21.3915321  46.5925527
 113.5415070  21.3437670  46.2397064 110.0179384  27.4997430  36.1825266
 109.6039782  26.8371560  35.7929107 110.7026758  27.6475288  35.6620960
 110.0577756  27.4238088  36.0481763 113.3844678  26.6587515  36.9348882
 112.9860961  26.7689785  36.1669702 112.7695898  26.8669581  37.5175442
 113.2343567  26.7061083  36.9080181 109.1149625  15.0775640  42.8349872
 108.6028528  14.4696823  43.1934904 108.9429121  15.7932233  43.3023848
 109.0139262  15.0938939  42.9566096 103.9615340  13.5213215  45.4852234
 103.7917930  14.1814590  44.9400441 103.5181290  13.7319777  46.2064723
 103.8714673  13.6499198  45.5113864 100.8617404  16.4260081  40.7440724
 100.3144124  15.7560727  40.8621592 101.6509782  16.0589929  40.8084191
 100.8969588  16.2725067  40.7709424 110.7101813  16.0867538  46.2404135
 111.4613140  16.4019215  46.5543689 110.9024389  15.8846709  45.4138057
 110.8493227  16.1034920  46.1647531  99.6204374  15.6380889  37.8986747
  99.4426135  15.1857498  38.6241663  99.3323396  16.4407050  38.0825224
  99.5517327  15.6903447  38.0330250 115.2827955  16.8938606  37.1364137
 115.7781620  16.1761601  37.0968158 114.4727731  16.5909404  37.0218624
 115.2371848  16.7436253  37.1137863 110.7286566  20.7436419  29.2861142
 109.9197889  20.4203093  29.2394451 111.2361475  20.0369642  29.2189390
 110.6836233  20.5917736  29.2691436 101.3576844  18.1708613  35.0108506
 100.4922363  18.1594303  34.8991277 101.4575659  17.9838835  35.8579645
 101.2451011  18.1414674  35.1197450 117.3479774  19.6442294  39.8241266
 117.7734845  19.1216716  39.2711691 116.9836694  20.2423131  39.3029889
 117.3566376  19.6552521  39.6650276 106.9833853  27.9406511  38.5838612
 107.2980412  28.7542900  38.5916393 107.3927267  27.5556730  39.2520771
 107.0901951  28.0035214  38.6842703 113.9358373  23.3576558  36.1542423
 114.4069551  24.0716821  36.3232409 114.2718552  22.7575308  36.6902293
 114.0553488  23.3748022  36.2574799 116.0235358  24.9677871  48.3334496
 116.1332323  24.1786432  48.6891243 116.3526254  24.8783808  47.5308834
 116.0887763  24.8383724  48.2676886 114.5732319  23.1494492  42.9170116
 114.0253265  22.5252376  42.6490181 115.0345348  23.3388764  42.2014196
 114.5599529  23.0853542  42.7720547 104.3246874  21.8879620  38.2317220
 104.9291731  21.8475454  37.6031041 104.1174186  22.7350772  38.2621276
 104.3835771  22.0067622  38.1433336 114.1390646  24.1545565  39.4479457
 114.9589020  24.0108531  39.7095752 113.8584723  24.7791764  39.9895895
 114.2187389  24.2255917  39.5667397  99.5598156  20.8714237  38.1016143
  99.4622434  20.0610509  38.4106200 100.3427026  20.8506031  37.7162411
  99.6614292  20.7481327  38.0903006 123.8103981  30.8986068  37.1675264
 122.9541876  31.0594566  37.2184381 123.8571635  30.0278131  37.1880325
 123.6903092  30.7936869  37.1781330 118.1945121  40.4348785  32.9312496
 117.4428020  40.0564324  32.7028541 118.6431132  40.4667219  32.1831306
 118.1494787  40.3834393  32.7869998 123.6470081  40.8574155  28.3598043
 123.3121449  41.5351077  27.9242265 124.1596951  40.4679466  27.7714914
 123.6735662  40.8998733  28.2084834 123.1874372  42.8088424  34.3009154
 123.5713751  43.3775322  33.7613930 123.1233513  42.0837934  33.8214970
 123.2347799  42.7863887  34.1503017 119.7729877  40.4467178  35.1975268
 119.8740240  39.6367532  35.5072396 119.1771622  40.3524124  34.5674947
 119.7002415  40.3132206  35.1501507 119.6130616  45.3644767  36.5990124
 120.2568072  45.8057931  36.9886283 119.9386872  44.5598193  36.5120383
 119.7562445  45.3109961  36.6435601 112.9694921  36.4687464  34.8227602
 112.7345106  35.6355117  34.7159871 113.1080562  36.7492130  34.0088803
 112.9550584  36.3870968  34.6869957 115.2685009  28.6373195  37.7211910
 114.6490040  28.0465842  37.5521924 115.1668872  29.2284630  37.0876233
 115.1622684  28.6377277  37.6016899 120.3151196  38.3756742  31.9709986
 120.6367037  38.9161949  31.3671294 120.9623293  37.8053513  32.1032276
 120.4577251  38.3715917  31.9017021 122.3652904  30.3772737  32.0544373
 123.0633069  30.5560864  32.5465836 122.6805237  29.8543076  31.4314762
 122.5148241  30.3266509  32.0346383 114.9954142  32.1825476  39.9655478
 114.8712838  32.7687922  40.6005297 115.6472426  31.6885672  40.2667753
 115.0727791  32.1964281  40.1041408 122.5540840  36.7643182  32.0424164
 122.9934475  36.1560282  32.4878937 122.4045502  36.3850555  31.2709629
 122.5962305  36.6181653  31.9943331 120.0212483  35.3587193  39.2442990
 120.6661485  34.8659637  38.9253938 120.2614260  35.5011980  40.0709068
 120.1523068  35.3064636  39.3192523 122.5598574  38.2042099  38.8949882
 122.8421817  37.4093505  38.6736638 123.2884734  38.6822687  38.9154943
 122.7088138  38.1576696  38.8652897 120.5379768  25.7465133  36.1365647
 120.2083098  26.1976277  35.4669346 119.8624770  25.6681297  36.6838654
 120.3890204  25.8016268  36.1188871 118.9768217  35.6318374  29.2960136
 118.3925432  36.1368405  29.7026000 118.5738312  35.4060761  28.5556728
 118.8307521  35.6726622  29.2465162 114.5312246  41.3473135  36.0983808
 114.0479824  42.0723625  36.0743392 115.3435564  41.6449265  36.2093966
 114.5802994  41.4975489  36.1111087 120.6026400  40.1405316  38.7033622
 120.0853341  39.7812731  38.0994931 121.3000791  39.6167490  38.7139689
 120.6291981  40.0103004  38.6163881 124.2589992  40.5900130  44.6649795
 124.3473338  40.4026270  45.5128006 124.6879704  39.9437559  44.2654642
 124.3352094  40.4663137  44.7321547 121.8260452  39.8731290  43.6467458
 121.2631286  39.4603899  44.1707119 122.5881475  39.7984195  44.0660601
 121.8554900  39.8008690  43.7860458 118.7435722  23.8077422  31.6188595
 119.4981690  24.1755739  31.3805645 118.5663256  24.1816976  32.3867775
 118.8290200  23.9175609  31.6973483 117.3856443  41.8629311  36.2504088
 118.0877022  41.3481300  36.3076844 117.3053926  42.1903462  37.0550963
 117.4780204  41.8343537  36.3776880 118.4335350  32.1004898  45.3784503
 118.6055853  31.9910792  46.2269784 118.9704707  32.7459303  45.1415695
 118.5380354  32.1796899  45.4689600 117.0992787  26.2147741  28.3166708
 116.9168360  26.4319621  27.4907701 117.9618400  26.3286753  28.3725322
 117.1997376  26.2637639  28.2021195 116.7107218  38.0535663  35.7589696
 117.5496118  38.2858596  35.8063457 116.7418988  37.1839974  35.6896731
 116.8388936  37.9592609  35.7554341 117.3359921  38.4736538  40.0603001
 117.8758146  38.3307669  40.7306374 116.6529868  38.8733289  40.4287028
 117.3152075  38.5116209  40.2137423 124.3710051  40.0209149  47.3293579
 125.1550468  40.1339997  47.6949321 124.1706646  39.1950286  47.5252265
 124.4576076  39.9155868  47.4127965 112.7397067  34.6936829  40.2137423
 112.4735482  33.8775946  40.3728413 112.7535631  34.7389984  39.3432938
 112.7021789  34.5793734  40.1090905 116.6454814  29.4921913  26.8289181
 115.9312991  29.2060093  27.2411614 117.1298782  29.8318539  27.4695568
 116.6114177  29.5003563  26.9844816 117.4895673  28.2315207  42.8604431
 116.7967470  27.7612187  43.1065162 118.1056000  28.0053512  43.4346138
 117.4780203  28.1282339  42.9813583 124.5280444  41.9319251  40.9760035
 123.7295690  41.6918751  41.2333903 124.9766456  41.9833644  41.7227082
 124.4755056  41.9041642  41.1244959 123.8202131  37.9951867  27.2050989
 124.2353280  37.6636891  26.5135485 122.9894061  37.7620769  27.0771126
 123.7590140  37.9123123  27.0841837 113.1490480  35.4795608  37.4949167
 112.9666053  35.4542494  36.6421459 113.8840149  35.9494546  37.5338076
 113.2304544  35.5456970  37.3747086 116.2136232  32.1980611  44.0031276
 116.9376204  32.1833642  44.4896171 116.3152368  32.9075966  43.5053244
 116.3354441  32.3005314  44.0010063 123.5881181  35.6779696  48.8680223
 122.7954162  35.9923208  49.0532842 123.7030108  35.8931164  48.0301007
 123.4876592  35.7563532  48.7718558 124.5164974  35.5799899  43.8065520
 125.0903836  34.9427144  43.9614083 124.4379778  35.5803982  42.9375177
 124.5898209  35.4865011  43.7011930 113.1161391  32.3589109  37.6448234
 113.6934893  32.2225560  38.2840479 112.4175452  31.9024893  37.8993818
 113.0982412  32.2711375  37.7770523 119.8728693  34.0123165  35.8586717
 119.6147937  33.1794899  35.8318016 119.9277176  34.2380778  35.0179217
 119.8428471  33.9220936  35.7306854 124.9529743  26.1151615  35.9590810
 124.2486070  25.6260801  36.1174729 125.0014717  26.1274090  35.0879254
 124.8559794  26.0441263  35.8530149 118.8463405  31.5660927  36.3451612
 118.2712996  31.7253095  36.9815573 118.4699081  30.9296336  35.8820062
 118.7066217  31.4958740  36.3706170 122.5136694  30.0384276  41.2043990
 122.1251126  29.6138494  40.5496181 121.8491392  30.2866426  41.7121017
 122.3583621  30.0122997  41.1831858 108.5920224  31.2101002  34.3596052
 108.6780476  30.8332870  35.1409582 109.2196021  30.8361447  33.8816011
 108.6976775  31.0986484  34.4041530 123.6175632  34.2682881  29.4020797
 124.4316271  34.5597774  29.2903568 123.5534773  33.6142743  28.8279090
 123.7278371  34.2148076  29.3009634 119.4883540  37.7404398  34.5293109
 120.1257487  37.5016146  35.0744903 119.9138612  37.9441557  33.7946270
 119.6459706  37.7355409  34.5010267 114.1796182  39.9792735  38.4127413
 114.2200328  40.2507586  37.5847193 114.7390707  40.5034643  38.8285201
 114.2679528  40.0968490  38.3519301 120.1286355  32.9606688  28.8667999
 120.5131508  32.7414395  29.6184544 119.8797975  33.7869634  28.9969075
 120.1488428  33.0504834  28.9969075 120.2954895  26.2413103  48.5830583
 119.9808337  27.0112666  48.3200146 119.9744828  25.6783359  47.9982810
 120.2013815  26.2723372  48.4571933 121.8705012  38.2176821  36.2086895
 121.9444020  38.0551993  37.0628745 122.6874518  38.4067011  35.9647377
 122.0021371  38.2213563  36.2984921 115.6310769  38.5634684  33.2381339
 114.8048886  38.8096421  33.1115618 115.6922760  38.4846765  34.1043397
 115.5184936  38.5879633  33.3470283 117.8486792  24.6303625  34.1976779
 116.9809218  24.7026224  34.2634388 118.1361997  25.4325704  34.3864754
 117.7626541  24.7597772  34.2351546 120.4109598  41.1811564  30.9400369
 120.7007896  40.7900545  30.2159595 121.1413079  41.3628269  31.3805644
 120.5616482  41.1505378  30.8983176 121.0004343  35.9829310  42.0253499
 120.5016037  36.6945078  42.1038388 121.8104567  36.3029977  41.9871662
 121.0460450  36.1356159  42.0310068 118.3515513  43.1578946  34.0060519
 118.1315809  42.8676301  34.7987186 118.1310035  42.4993902  33.4778431
 118.2863107  43.0178655  34.0449427 117.2632461  35.2452263  36.2716220
 116.9745709  34.6189734  36.8061948 118.1315809  35.1872550  36.3380901
 117.3492712  35.1439807  36.3607175 120.5183469  44.5308336  32.7891211
 121.1707527  43.9984779  33.0182237 119.8209078  44.1776989  33.1759085
 120.5114187  44.3997859  32.8803379 117.4664734  36.8847514  32.1958585
 118.2210702  37.2660553  32.4094048 116.8735347  37.3358658  32.6505282
 117.4901447  37.0076341  32.2941464 119.9271401  28.8410354  47.3215798
 119.1171177  29.1468134  47.2105640 120.4046088  29.5615937  47.4368382
 119.8774880  28.9924956  47.3222869 118.7862960  38.0556075  37.5698701
 118.2643714  38.1956367  38.2550565 119.1736981  37.2966740  37.7600818
 118.7666661  37.9641599  37.6999777 115.7754145  28.1061884  31.6393655
 115.4878940  27.7363155  30.9025603 116.4624613  28.5756739  31.3777360
 115.8343042  28.1208853  31.4908731 124.9829965  39.7951535  31.5559269
 124.7416641  39.0619395  31.1486334 125.1631298  40.3438392  30.9025603
 124.9737589  39.7673926  31.3989492 120.2129286  35.0860094  32.9680192
 120.0172069  35.6934829  32.3740495 120.4363632  34.3928038  32.4871866
 120.2163927  35.0737620  32.8096273 118.6107816  31.9714832  33.0861060
 119.3330468  32.1355990  32.6264866 118.1315809  32.6924497  32.9800400
 118.6471547  32.1013062  33.0026674 116.2615433  34.3772905  42.1915200
 116.7736530  34.6557158  41.5423960 115.9751775  35.1162199  42.5578013
 116.2950296  34.5275258  42.1505078 113.3482339  28.8843097  32.4878936
 113.4498476  29.6869258  32.8159912 114.1438226  28.6830432  32.1902017
 113.4810245  28.9728995  32.4914292 119.7799158  26.4699293  42.2516242
 119.5882355  26.4854428  43.1015665 120.6297754  26.6662968  42.2282896
 119.8774880  26.5013645  42.3739536 114.1646071  28.9990275  40.2300058
 114.0231563  28.1474215  40.3544566 114.4486635  29.0418935  39.4062264
 114.1853917  28.8790025  40.1267682 124.3184664  30.8357365  34.3744546
 124.0719378  30.7553116  35.2081335 124.6469787  30.0510833  34.1807074
 124.3305907  30.7083630  34.4692069 120.2781691  33.5714084  43.7867529
 120.4225067  34.1515292  43.1510639 120.6257339  33.9490380  44.4917384
 120.3509152  33.7134788  43.7966524 122.4501608  32.7704252  41.5692661
 121.7024922  32.9635266  41.1640939 122.6043133  31.9449471  41.3316782
 122.3624036  32.6769363  41.4738067 119.3509446  41.7616855  40.6528556
 119.4999010  41.2019771  40.0001961 120.1309448  41.8408857  41.0361075
 119.4883539  41.6902421  40.6125505 121.8762746  41.9331498  41.9313047
 121.8006418  41.2640309  42.4863835 121.8052606  42.6349286  42.4453713
 121.8543353  41.9376406  42.0889895 122.6903385  26.6654803  42.4588065
 123.1475999  27.3978777  42.5860857 122.7659714  26.2421268  43.2175320
 122.7694355  26.7112041  42.5889141 114.9336376  26.9120622  43.5477508
 114.3978566  26.3000981  43.8638276 114.9954141  27.4868758  44.2011175
 114.8632009  26.9067550  43.6912935 122.5332993  40.4532497  32.7636653
 123.2982885  40.1842141  32.4419317 122.4311083  39.9682507  33.4806716
 122.6314489  40.3422062  32.8216481 120.5685763  28.6556907  39.3029889
 119.7781838  28.4748367  39.6247225 120.9646386  27.8783859  39.2860183
 120.5102639  28.5144368  39.3482437 123.0823593  31.1317166  43.7853388
 123.0182735  31.9927122  43.6573524 123.2220781  30.8149159  42.9848939
 123.0939063  31.2117332  43.6481600 121.7642687  33.8249305  37.9269591
 121.3404936  34.0253804  37.1908609 121.5887543  32.9778153  38.0393890
 121.6753568  33.7298087  37.8343281 121.2654381  45.3399818  40.3891048
 121.7550311  44.6410607  40.2066712 120.6938613  45.0423688  40.9767105
 121.2538911  45.1926042  40.4492089 117.0525132  34.3201357  33.3597563
 117.2089751  34.2548159  34.2153555 117.3925725  35.0949909  33.1476243
 117.1258367  34.4250555  33.4552157 123.5904277  33.6959240  32.2290926
 124.1319822  33.1929621  32.6929547 123.9050836  33.6424435  31.4180412
 123.7168674  33.6138661  32.1774738 121.7590727  39.0876592  29.5130954
 121.8283547  38.2291130  29.6523955 122.5379182  39.3048472  29.1849979
 121.8843577  38.9929456  29.4848112 124.7393546  28.5895545  42.2813227
 124.9535516  27.9506459  41.7276581 124.1227445  29.0341368  41.8521088
 124.6798876  28.5605688  42.1363658 113.6259394  31.5036307  33.6758330
 114.0058359  31.9220852  33.0118598 113.0514759  32.0849763  33.9827174
 113.5970719  31.6514166  33.6235071 124.1308275  21.6995480  37.2700570
 123.2601833  21.6734201  37.2233879 124.3848616  21.5272672  36.4526415
 124.0401835  21.6705624  37.1420706 121.1026254  33.7563447  26.2073713
 121.3918779  34.5328330  26.4817287 121.1898053  33.2452179  26.9088212
 121.1580511  33.7955365  26.3516210 123.9986142  31.6044681  48.0025236
 124.4685773  32.2286798  48.3893110 124.0448022  30.9361657  48.5618451
 124.0754018  31.5979361  48.1425308 121.1557415  23.7101709  38.7274040
 120.6395904  23.0181900  38.8525619 120.5951344  24.3772486  38.6736639
 120.9963929  23.7064966  38.7380106 123.2249649  24.2494669  40.5566892
 122.8381402  24.2743700  41.3380422 122.7382586  23.6836347  40.1041409
 123.0962158  24.1690420  40.6054796 122.8906791  21.1361654  42.8477152
 123.5199909  21.6721954  42.5698223 123.0592653  21.0439013  43.6990718
 123.0084585  21.2023016  42.9325681 122.6920705  25.9232849  45.1203564
 123.5194135  25.6517998  45.1762178 122.7128552  26.7193691  45.4767382
 122.8173556  26.0012603  45.1818747 117.2690195  33.0696712  38.3073825
 116.4278202  32.9700586  38.5152718 117.4780203  33.8392192  38.6588145
 117.1754888  33.1688755  38.3901140 114.7465762  30.6916249  36.1358575
 114.3522460  30.7659260  35.3608685 114.1905879  31.0774195  36.6866937
 114.6068575  30.7598023  36.1026235 121.0806860  30.9978111  37.5571422
 120.7769998  30.4434099  38.1581830 120.3786281  31.1770321  37.0699456
 120.9323070  30.9422893  37.5741128 120.1372957  28.3078631  32.1216124
 120.4132692  27.5897543  31.7093692 120.7371627  28.9063551  31.9137230
 120.2666222  28.2899001  32.0296885 119.1425211  38.2127832  42.2643520
 119.0345566  38.2229894  43.1305578 119.3520993  39.0382612  42.0748474
 119.1575322  38.3368906  42.3647612 117.1599003  35.4640474  39.7265458
 116.5686936  36.1049972  39.6968473 117.9220027  35.8878091  39.6996757
 117.1847264  35.6216312  39.7180605 117.5559626  26.6242472  40.3933475
 118.0161108  26.6981401  41.1308599 117.6015733  27.4223726  40.0433297
 117.6310181  26.7536619  40.4506232 119.2042976  27.2909167  44.9605502
 118.8128541  26.6442514  45.3961280 119.3728838  27.8820602  45.5799758
 119.1713886  27.2823434  45.1168208 120.9796498  32.6834682  31.5007726
 121.7238543  33.0708959  31.7390676 121.1257194  31.8392108  31.6648214
 121.1107083  32.6165155  31.5601696 122.8976073  24.4784941  36.5339588
 122.0512118  24.6507749  36.4080938 122.8947206  23.6734285  36.8705416
 122.7723223  24.3845970  36.5650715 123.9674374  28.2560156  37.4001646
 123.4934328  27.7301918  37.9106957 124.3392509  27.7089629  36.8316507
 123.9524263  28.0976152  37.3916793 114.3447404  30.2531662  42.7685191
 115.2073017  30.1527372  42.6822521 114.0139187  29.6726372  42.2070764
 114.4232600  30.1523289  42.6730597 117.7049190  29.0774111  39.4295610
 117.0802260  29.0892503  38.8221562 117.3694785  29.5534287  40.0786850
 117.5634682  29.1492628  39.4352178 114.4174865  37.1374572  40.8699374
 113.8874790  36.4467010  40.9194349 114.6899959  37.1284757  40.0412082
 114.3799588  37.0341703  40.7546790 124.6181111  34.5797816  40.8437745
 124.0038104  34.0355866  41.1386381 125.1348396  34.0662053  40.3643562
 124.6036773  34.4234225  40.8161974 123.8577408  35.6502086  38.5782044
 123.4305016  35.0251805  38.1447479 123.8502352  35.3677008  39.4041051
 123.7936549  35.5154867  38.6361872 116.9739935  30.6867259  41.6470478
 117.1333422  29.9310583  42.0522200 116.7932829  31.2358199  42.3011216
 116.9705294  30.6561073  41.8033184 124.9160238  22.8528495  42.2021268
 124.4200799  23.0492169  41.5112834 125.6729300  23.2521163  42.0310069
 124.9547063  22.9406229  42.0741404 122.1863118  26.5270841  38.7924578
 122.2105605  25.9930953  38.1037358 122.4374591  26.0188150  39.4550169
 122.2273036  26.3731745  38.7889223 109.6970708  33.8102336  38.2267722
 109.5914157  33.7649180  37.3619806 108.9470928  34.1556116  38.5082007
 109.5706310  33.8543244  38.1405052 118.4664440  25.2541659  38.1730322
 118.5062812  25.7550866  38.8865030 117.6414105  25.3452053  37.9036245
 118.3503966  25.3423475  38.2380861 120.6494053  34.8202399  46.2750617
 119.7989683  34.9574113  46.4108262 120.8122181  34.0866177  46.7198319
 120.5477916  34.7316500  46.3606216 119.8878803  31.7702169  40.4704221
 119.0570733  31.9375987  40.2639470 119.8330321  31.3938120  41.2553107
 119.7568218  31.7391900  40.5552750 117.6962587  25.2611062  46.1060632
 118.3215290  24.7173194  46.3790064 117.2413067  24.7805979  45.5368422
 117.7210847  25.1100543  46.0622226 118.2614847  30.0457760  30.9994339
 118.4017808  30.5430225  31.7022980 118.7597380  29.3444055  31.1408553
 118.3555928  30.0159739  31.1245918 118.2915070  30.9124871  28.3286916
 118.9260149  31.5085296  28.2636378 118.3740680  30.6128329  29.1432786
 118.3971621  30.9565780  28.4390002 123.0991025  37.8657721  41.8231174
 122.5916116  38.4193568  42.2671805 122.8017671  37.9266011  41.0049949
 122.9795910  37.9564032  41.7679631 125.2653207  26.2311041  40.6655837
 125.6908279  25.7783567  40.0539363 124.6510201  25.6771111  40.9420624
 125.2381853  26.0825017  40.6160862 114.7968057  33.1092712  31.5976462
 115.3060287  33.7057220  31.9787767 115.2702330  32.8418686  30.9152882
 114.9411433  33.1578528  31.5530985 123.7047430  22.7026141  34.0746414
 123.0615748  22.5523787  34.6431552 123.3646837  22.4568486  33.3095519
 123.5592508  22.6438263  34.0449429 122.3433510  42.7982279  38.7288181
 122.1199165  42.0401109  39.0972207 121.8543354  42.8280301  38.0068621
 122.2376959  42.6904504  38.6764922 117.1558589  29.7448971  34.4649642
 116.4370578  30.1613103  34.7322506 117.5270951  30.3103209  33.9141281
 117.1050521  29.8898252  34.4232449 124.4004500  36.9664012  46.2800115
 124.3600355  36.3213689  45.6945271 125.2127818  36.9100629  46.5925527
 124.5147653  36.8622978  46.2397064 120.9911967  43.0182737  36.1825266
 120.5772366  42.3556868  35.7929107 121.6759342  43.1660596  35.6620960
 121.0310339  42.9423396  36.0481763 124.3577262  42.1772823  36.9348882
 123.9593545  42.2875093  36.1669702 123.7428481  42.3854889  37.5175442
 124.2076151  42.2246391  36.9080181 120.0882209  30.5960948  42.8349872
 119.5761112  29.9882131  43.1934904 119.9161705  31.3117541  43.3023848
 119.9871846  30.6124247  42.9566096 114.9347923  29.0398523  45.4852234
 114.7650514  29.6999898  44.9400441 114.4913873  29.2505085  46.2064723
 114.8447257  29.1684506  45.5113864 118.8607743  27.2803021  34.5278968
 119.3365109  27.6420101  33.8929149 118.3596342  27.9359489  34.8079110
 118.8573102  27.4297210  34.4755709 123.9651279  28.5185193  45.2752128
 124.5222709  28.2899002  44.6430593 123.6412344  29.2790858  44.9987340
 123.9997689  28.5969029  45.1408625 111.8349988  31.9445389  40.7440724
 111.2876707  31.2746035  40.8621592 112.6242366  31.5775237  40.8084191
 111.8702171  31.7910375  40.7709424 121.6834396  31.6052846  46.2404135
 122.4345723  31.9204523  46.5543689 121.8756973  31.4032017  45.4138057
 121.8225810  31.6220228  46.1647531 110.5936957  31.1566197  37.8986747
 110.4158718  30.7042806  38.6241663 110.3055979  31.9592358  38.0825224
 110.5249910  31.2088755  38.0330250 121.7019150  36.2621727  29.2861142
 120.8930473  35.9388401  29.2394451 122.2094059  35.5554949  29.2189390
 121.6568817  36.1103044  29.2691436 112.3309427  33.6893921  35.0108506
 111.4654947  33.6779611  34.8991277 112.4308243  33.5024143  35.8579645
 112.2183594  33.6599982  35.1197450 117.9566437  43.4591819  38.5838612
 118.2712996  44.2728208  38.5916393 118.3659850  43.0742038  39.2520771
 118.0634535  43.5220522  38.6842703 124.9090957  38.8761866  36.1542423
 125.3802135  39.5902129  36.3232409 125.2451135  38.2760616  36.6902293
 125.0286072  38.8933330  36.2574799 121.8260452  23.6489337  43.1100518
 121.9588357  22.8520330  43.4381494 122.2105604  24.1755739  43.6898794
 121.9016780  23.6089253  43.2444021 124.8992807  20.5719663  39.7081612
 124.0938771  20.4617392  40.0249450 124.7699542  20.6732118  38.8511477
 124.7612940  20.5703333  39.6289652 120.8953566  25.6505749  30.5779983
 121.7169261  25.8204062  30.3361678 120.4323217  25.8053010  29.8546281
 120.9484729  25.6987482  30.4351628 119.4848898  23.6448512  41.3578412
 120.0293311  23.3039638  41.9482754 119.5385834  24.5033973  41.4999697
 119.5738018  23.7203771  41.4660285 115.2979457  37.4064928  38.2317220
 115.9024315  37.3660762  37.6031041 115.0906770  38.2536080  38.2621276
 115.3568354  37.5252930  38.1433336 110.5330739  36.3899545  38.1016143
 110.4355017  35.5795817  38.4106200 111.3159609  36.3691338  37.7162411
 110.6346876  36.2666635  38.0903006 123.9427505  51.9872772  34.8227602
 123.7077689  51.1540424  34.7159871 124.0813145  52.2677438  34.0088803
 123.9283167  51.9056275  34.6869957 123.7129650  50.2122137  40.2137423
 123.4468065  49.3961253  40.3728413 123.7268214  50.2575292  39.3432938
 123.6754372  50.0979042  40.1090905 124.1223064  50.9980916  37.4949167
 123.9398637  50.9727802  36.6421459 124.8572733  51.4679854  37.5338076
 124.2037128  51.0642278  37.3747086 124.0893974  47.8774417  37.6448234
 124.6667477  47.7410868  38.2840479 123.3908036  47.4210201  37.8993818
 124.0714996  47.7896683  37.7770523 119.5652807  46.7286310  34.3596052
 119.6513059  46.3518178  35.1409582 120.1928605  46.3546755  33.8816011
 119.6709358  46.6171792  34.4041530 125.1528766  55.4978043  38.4127413
 125.1932911  55.7692894  37.5847193 125.7123290  56.0219951  38.8285201
 125.2412112  55.6153798  38.3519301 124.3214923  44.4028404  32.4878936
 124.4231059  45.2054566  32.8159912 125.1170809  44.2015740  32.1902017
 124.4542828  44.4914303  32.4914292 125.1378655  44.5175583  40.2300058
 124.9964147  43.6659523  40.3544566 125.4219218  44.5604243  39.4062264
 125.1586501  44.3975333  40.1267682 124.5991977  47.0221615  33.6758330
 124.9790942  47.4406160  33.0118598 124.0247342  47.6035071  33.9827174
 124.5703302  47.1699474  33.6235071 125.7198346  46.2101557  36.1358575
 125.3255044  46.2844568  35.3608685 125.1638463  46.5959503  36.6866937
 125.5801158  46.2783331  36.1026235 125.3907449  52.6559879  40.8699374
 124.8607373  51.9652318  40.9194349 125.6632542  52.6470065  40.0412082
 125.3532171  52.5527011  40.7546790 120.6703291  49.3287644  38.2267722
 120.5646740  49.2834488  37.3619806 119.9203511  49.6741424  38.5082007
 120.5438894  49.3728552  38.1405052 122.8082571  47.4630697  40.7440724
 122.2609291  46.7931342  40.8621592 123.5974950  47.0960545  40.8084191
 122.8434755  47.3095683  40.7709424 121.5669541  46.6751505  37.8986747
 121.3891302  46.2228114  38.6241663 121.2788563  47.4777666  38.0825224
 121.4982494  46.7274063  38.0330250 123.3042011  49.2079228  35.0108506
 122.4387530  49.1964919  34.8991277 123.4040827  49.0209451  35.8579645
 123.1916178  49.1785290  35.1197450 121.5063323  51.9084853  38.1016143
 121.4087601  51.0981125  38.4106200 122.2892193  51.8876646  37.7162411
 121.6079460  51.7851943  38.0903006   5.1572251  54.8089560 106.4823122
   4.8223619  55.4866481 106.0467344   5.6699121  54.4194871 105.8939994
   5.1837832  54.8514138 106.3309914   9.9423041  48.3378123 108.8065723
   9.8262567  49.0885809 109.2357861  10.7378928  48.0802077 109.0561810
  10.0427630  48.4112970 108.9069815   7.6652346  49.0685768 107.1180013
   7.5803642  49.9246734 107.2629582   8.1536730  48.7930092 107.7862172
   7.7241244  49.1543089 107.2382094   5.3304302  51.9467272 105.3276069
   5.7455450  51.6152296 104.6360565   4.4996231  51.7136174 105.1996205
   5.2692310  51.8638528 105.2066916   8.0237692  48.1977831 104.5137270
   7.9417854  48.2680018 105.3792257   8.6617412  48.7607575 104.3221011
   8.1057529  48.2916802 104.6127220   1.9211768  55.1326969 109.0625448
   2.2110066  54.7415950 108.3384675   2.6515249  55.3143674 109.5030724
   2.0718652  55.1020783 109.0208255   2.0285639  58.4823741 110.9116291
   2.6809697  57.9500183 111.1407317   1.3311248  58.1292393 111.2984165
   2.0216357  58.3513264 111.0028458   6.4932136  53.7466939 109.6784349
   6.2518812  53.0134800 109.2711414   6.6733469  54.2953796 109.0250682
   6.4839760  53.7189330 109.5214572  11.2188256  50.8534383 107.0472906
  10.8395064  50.0671521 107.0402196  10.5554501  51.4021240 106.9044551
  11.0646730  50.8179207 107.0253703   6.5653824  51.4360086 102.8661682
   7.3326809  51.4960211 102.4567534   6.1185133  50.8640527 102.3818000
   6.6127251  51.3596661 102.7339392   9.4648354  53.0979874 107.3824592
   9.5468192  53.9046860 107.0586043   9.9498097  53.1175833 108.1065366
   9.5485512  53.2200536 107.4411491   3.2692897  53.0391996 107.6356034
   3.3385717  52.1806535 107.7749034   4.0481352  53.2563877 107.3075058
   3.3945747  52.9444860 107.6073191   7.6600384  55.4629698 111.8492527
   7.2680176  55.1596413 111.1315393   7.8153457  56.2998788 111.6597481
   7.6253974  55.5413534 111.7149024   2.6128425  47.7078852 104.3298792
   2.9020949  48.4843734 104.6042366   2.7000224  47.1967583 105.0313291
   2.6682681  47.7470770 104.4741290   6.9597126  51.6715679 107.7162136
   7.6831325  52.1373792 107.5726709   6.5197717  51.7389288 106.9659733
   7.0012818  51.7499515 107.5846917   7.2200976  55.7336384 107.8760197
   6.5030286  55.5597246 107.4107434   7.8707713  55.4988956 107.3435683
   7.2102826  55.6732176 107.7289415  13.6021275  50.7040194 108.4417052
  13.9854880  51.4531550 108.6715149  12.8065388  50.9506014 108.1829041
  13.5415057  50.8509888 108.4374626  23.0939050  61.2811129 110.5347413
  23.0633054  62.1355766 110.7065683  23.6920399  60.9806422 111.0933557
  23.1776208  61.3627626 110.6422216  16.2938735  60.3686780 115.2900344
  15.4376630  60.5295278 115.3409460  16.3406389  59.4978844 115.3105405
  16.1737846  60.2637582 115.3006410  10.6779875  69.9049498 111.0537575
   9.9262774  69.5265036 110.8253620  11.1265886  69.9367932 110.3056386
  10.6329541  69.8535105 110.9095077  16.1304834  70.3274868 106.4823122
  15.7956203  71.0051789 106.0467344  16.6431705  69.9380179 105.8939994
  16.1570416  70.3699446 106.3309914  15.6709126  72.2789136 112.4234234
  16.0548505  72.8476035 111.8839009  15.6068267  71.5538647 111.9440050
  15.7182553  72.2564600 112.2728096  19.1390556  62.4278824 117.9331995
  19.6846516  63.1063911 117.9925965  19.0807432  62.2866285 117.0733577
  19.2106470  62.5070826 117.8144056  12.2564631  69.9167890 113.3200348
  12.3574994  69.1068244 113.6297475  11.6606376  69.8224837 112.6900026
  12.1837169  69.7832918 113.2726586  20.9155624  63.8563431 108.8065723
  20.7995150  64.6071117 109.2357861  21.7111511  63.5987385 109.0561810
  21.0160214  63.9298278 108.9069815  12.0965370  74.8345479 114.7215204
  12.7402826  75.2758643 115.1111362  12.4221626  74.0298906 114.6345463
  12.2397199  74.7810674 114.7660681   5.4529675  65.9388177 112.9452681
   5.2179859  65.1055829 112.8384950   5.5915316  66.2192842 112.1313882
   5.4385337  65.8571680 112.8095036  12.7985950  67.8457454 110.0935065
  13.1201791  68.3862662 109.4896374  13.4458047  67.2754226 110.2257355
  12.9412005  67.8416629 110.0242101  14.8487658  59.8473449 110.1769452
  15.5467823  60.0261577 110.6690915  15.1639991  59.3243789 109.5539842
  14.9982995  59.7967221 110.1571462  15.0375593  66.2343894 110.1649244
  15.4769229  65.6260995 110.6104016  14.8880256  65.8551268 109.3934709
  15.0797059  66.0882365 110.1168411  12.5047236  64.8287906 117.3668069
  13.1496239  64.3360349 117.0479018  12.7449014  64.9712693 118.1934147
  12.6357822  64.7765348 117.4417602  15.0433328  67.6742812 117.0174962
  15.3256571  66.8794218 116.7961718  15.7719488  68.1523399 117.0380023
  15.1922892  67.6277409 116.9877977  18.6384930  64.5871075 107.1180013
  18.5536225  65.4432042 107.2629582  19.1269313  64.3115400 107.7862172
  18.6973827  64.6728397 107.2382094  20.2290929  51.2051369 112.5040337
  19.9144370  51.8954847 112.9360760  19.7117871  51.1496151 111.8025838
  20.1055400  51.2986257 112.4637287  19.5703363  61.2055870 108.6177748
  19.0414835  61.4215503 109.2775054  20.0928383  61.8992008 108.5378717
  19.5691816  61.3399007 108.7033347  25.0251416  66.7802174 113.9910792
  24.1949119  66.9912818 114.1544209  24.9760668  65.9539229 113.7153076
  24.8958152  66.6891780 113.9748158  11.4602971  65.1019086 107.4185216
  10.8760186  65.6069118 107.8251080  11.0573066  64.8761473 106.6781808
  11.3142275  65.1427335 107.3690241  13.0861154  69.6106028 116.8258702
  12.5688095  69.2513443 116.2220010  13.7835545  69.0868203 116.8364768
  13.1126735  69.4803716 116.7388961  15.9180185  61.3484739 105.8954137
  16.1576189  61.5562722 105.0829480  16.2396026  60.5442247 106.0043081
  16.0017343  61.2598840 105.7914690  11.2270476  53.2778134 109.7413675
  11.9816444  53.6456451 109.5030725  11.0498010  53.6517689 110.5092854
  11.3124954  53.3876322 109.8198563   9.8691197  71.3330023 114.3729167
  10.5711776  70.8182013 114.4301924   9.7888680  71.6604175 115.1776043
   9.9614957  71.3044250 114.5001960  24.5205374  59.4272575 117.7861214
  23.6833796  59.4974762 118.0208808  24.4893605  59.4297070 116.9135516
  24.3923657  59.4382802 117.6920762   9.5827540  55.6848453 106.4391788
   9.4003114  55.9020334 105.6132780  10.4453153  55.7987466 106.4950402
   9.6832130  55.7338351 106.3246275   9.1941972  67.5236375 113.8814775
  10.0330872  67.7559308 113.9288537   9.2253742  66.6540687 113.8121811
   9.3223690  67.4293322 113.8779420  15.2627260  52.6874864 109.4740811
  15.9913420  52.5090819 109.0278968  15.3522152  53.5292944 109.6847989
  15.3833922  52.7858742 109.4394329  19.2435560  63.6228251 113.3773105
  19.9993075  64.0559766 113.4162014  19.3497885  62.9733021 113.9507741
  19.3705731  63.5905735 113.4671131  22.2815731  67.4501529 114.1275508
  21.8450963  67.4538271 114.8834480  21.9478647  68.1307028 113.6955086
  22.1678351  67.5513984 114.1756341  22.2013214  54.4915356 116.3704936
  22.8439123  54.5613461 116.9566852  22.4536235  53.8244579 115.8684478
  22.3335346  54.4041705 116.3832215   9.1289567  58.9622626 104.9514261
   8.4147745  58.6760805 105.3636693   9.6133536  59.3019252 105.5920648
   9.0948931  58.9704276 105.1069896  17.0115198  71.4019963 119.0985114
  16.2130444  71.1619463 119.3558983  17.4601210  71.4534356 119.8452162
  16.9589810  71.3742355 119.2470038  25.4160078  64.1682448 113.0195146
  26.0776512  63.6073117 112.9191054  24.7751490  63.6734479 113.3447837
  25.4188945  64.0118857 113.0527486  16.3036885  67.4652580 105.3276069
  16.7188034  67.1337604 104.6360565  15.4728815  67.2321482 105.1996205
  16.2424894  67.3823836 105.2066916   5.6325234  64.9496321 115.6174247
   5.4500807  64.9243207 114.7646539   6.3674903  65.4195259 115.6563156
   5.7139298  65.0157683 115.4972165  21.7024908  65.1847831 112.7607134
  21.9380497  65.3293030 111.9333985  21.8514472  65.9490239 113.1538648
  21.7590712  65.3186885 112.6970738  23.5315365  64.0249497 110.5976738
  23.8623582  64.5577137 109.9916833  24.1048453  64.0788385 111.2538689
  23.6649044  64.1119066 110.6054520  18.7447254  61.8714399 111.2800318
  18.8394109  62.6103694 111.7339944  18.1206098  61.4431875 111.7134883
  18.6656284  61.9175720 111.4108466  18.9970275  63.7163139 104.5137270
  18.9150438  63.7865326 105.3792257  19.6349996  64.2792883 104.3221011
  19.0790113  63.8102110 104.6127220  12.3563447  63.4823877 113.9811797
  12.0982691  62.6495612 113.9543096  12.4111929  63.7081490 113.1404297
  12.3263224  63.3921648 113.8531933  17.4364497  55.5852328 114.0815889
  16.7320823  55.0961513 114.2399808  17.4849471  55.5974802 113.2104334
  17.3394548  55.5141976 113.9755229  11.3298159  61.0361640 114.4676691
  10.7547750  61.1953808 115.1040652  10.9533835  60.3997049 114.0045142
  11.1900971  60.9659453 114.4931250  24.6394717  59.2659994 112.1016900
  24.3831281  58.4539935 111.9114783  25.4824030  59.2737561 111.8747087
  24.7260742  59.1471991 112.0401717  16.1010386  63.7383594 107.5245877
  16.9151024  64.0298486 107.4128648  16.0369527  63.0843456 106.9504170
  16.2113125  63.6848788 107.4234714  22.3219876  66.4209590 121.9375452
  22.0858513  65.5897654 121.8187513  22.9663105  66.3695197 122.5230297
  22.3814547  66.2907278 122.0061346  11.9718294  67.2105111 112.6518189
  12.6092241  66.9716859 113.1969982  12.3973365  67.4142270 111.9171349
  12.1294460  67.2056121 112.6235346  12.6121109  62.4307401 106.9893078
  12.9966262  62.2115108 107.7409623  12.3632729  63.2570346 107.1194155
  12.6323182  62.5205547 107.1194155  23.3456296  66.2054038 118.0003747
  23.0402113  66.9382095 118.3617062  22.6262512  65.7991968 117.7196533
  23.1943639  66.2535771 118.0116884  14.3539766  67.6877534 114.3311975
  14.4278774  67.5252705 115.1853825  15.1709272  67.8767723 114.0872457
  14.4856124  67.6914276 114.4210001  29.0458089  62.8447039 117.3272091
  28.9782589  62.8642998 116.4574678  29.0313751  63.6877366 117.5527762
  29.0336845  62.9720774 117.2324568   8.1145523  68.0335396 111.3606419
   7.2883640  68.2797134 111.2340697   8.1757514  67.9547477 112.2268477
   8.0019690  68.0580345 111.4695363  10.3321546  54.1004337 112.3201859
   9.4643972  54.1726937 112.3859468  10.6196751  54.9026416 112.5089834
  10.2461294  54.2298485 112.3576625  12.8944352  70.6512277 109.0625448
  13.1842650  70.2601258 108.3384675  13.6247832  70.8328982 109.5030724
  13.0451236  70.6206090 109.0208255  26.8316706  61.6191425 115.6018685
  27.3824627  60.9859494 115.8415778  26.8160821  62.1506818 116.2934190
  26.9101902  61.6040373 115.7397544  13.4839097  65.4530023 120.1478579
  12.9850790  66.1645790 120.2263467  14.2939321  65.7730689 120.1096741
  13.5295203  65.6056871 120.1535147  10.8350267  72.6279659 112.1285598
  10.6150563  72.3377014 112.9212265  10.6144789  71.9694614 111.6003511
  10.7697861  72.4879367 112.1674507   9.7467214  64.7152976 114.3941300
   9.4580463  64.0890447 114.9287027  10.6150562  64.6573263 114.4605980
   9.8327466  64.6140520 114.4832254  20.5345112  59.8587759 114.7123282
  20.1909878  59.1378094 115.0630531  20.6338155  59.6501610 113.8701640
  20.4987155  59.7211962 114.6394962  13.0018223  74.0009049 110.9116291
  13.6542281  73.4685491 111.1407317  12.3043832  73.6477701 111.2984165
  12.9948941  73.8698572 111.0028458   9.9499488  66.3548227 110.3183665
  10.7045456  66.7361266 110.5319127   9.3570100  66.8059370 110.7730361
   9.9736201  66.4777054 110.4166543  20.9958141  66.3213463 110.2547270
  21.5616174  66.9806673 110.1705813  20.3486045  66.6663161 110.7263672
  20.9836898  66.4695404 110.3120026  11.2697714  67.5256788 115.6923780
  10.7478468  67.6657080 116.3775645  11.6571735  66.7667452 115.8825898
  11.2501415  67.4342312 115.8224857   8.2588898  57.5762597 109.7618735
   7.9713694  57.2063867 109.0250682   8.9459367  58.0457452 109.5002440
   8.3177796  57.5909566 109.6133811  17.4664719  69.2652247 109.6784349
  17.2251395  68.5320108 109.2711414  17.6466052  69.8139104 109.0250682
  17.4572343  69.2374638 109.5214572  12.6964040  64.5560807 111.0905271
  12.5006823  65.1635542 110.4965574  12.9198386  63.8628751 110.6096945
  12.6998681  64.5438333 110.9321352  11.0942570  61.4415545 111.2086140
  11.8165222  61.6056703 110.7489946  10.6150563  62.1625210 111.1025479
  11.1306301  61.5713775 111.1251754  19.0536078  57.7779344 116.5882825
  18.2147178  57.8040623 116.3521088  19.1240445  58.4250079 117.1688171
  18.9404471  57.8775470 116.6391941  17.5005356  54.6764721 111.3210441
  18.2031709  54.4772469 110.8430399  17.2349545  53.9040663 111.6279284
  17.5651988  54.5327687 111.2955882  22.9293601  62.9847331 113.8744066
  22.8427576  63.1402757 114.7278845  22.4744081  63.6285406 113.5003471
  22.8496858  63.1023086 113.9451173   5.8317093  58.3543809 110.6104016
   5.9333229  59.1569971 110.9384991   6.6272980  58.1531145 110.3127097
   5.9644999  58.4429708 110.6139371  16.8019417  60.3058078 112.4969626
  16.5554132  60.2253829 113.3306415  17.1304541  59.5211545 112.3032153
  16.8140661  60.1784343 112.5917149  20.6967466  67.0141437 116.2856407
  20.5581826  67.7122483 116.7905149  19.9167464  66.8590093 115.9292589
  20.5610693  67.0941604 116.3082681  22.1920839  66.3719691 107.0472906
  21.8127648  65.5856829 107.0402196  21.5287085  66.9206548 106.9044551
  22.0379314  66.3364515 107.0253703  15.0167747  69.9233210 110.8861733
  15.7817638  69.6542854 110.5644397  14.9145837  69.4383220 111.6031795
  15.1149243  69.8122774 110.9441560  17.5386408  66.9545394 102.8661682
  18.3059393  67.0145519 102.4567534  17.0917717  66.3825835 102.3818000
  17.5859835  66.8781969 102.7339392  18.4364203  65.7600049 115.1514414
  17.7609205  65.5285282 115.6527801  18.4456579  65.1521232 114.5256519
  18.3382708  65.6358975 115.1330566  20.4380938  68.6165182 107.3824592
  20.5200775  69.4232168 107.0586043  20.9230680  68.6361141 108.1065366
  20.5218096  68.7385844 107.4411491  14.2477441  63.2950018 116.0494670
  13.8239690  63.4954517 115.3133688  14.0722296  62.4478866 116.1618970
  14.1588322  63.1998799 115.9568360   9.5359886  63.7902069 111.4822643
   9.6924505  63.7248872 112.3378635   9.8760479  64.5650622 111.2701322
   9.6093121  63.8951267 111.5777237  16.0739031  63.1659953 110.3516006
  16.6154576  62.6630334 110.8154626  16.3885590  63.1125147 109.5405491
  16.2003428  63.0839374 110.2999818  14.2425480  68.5577304 107.6356034
  14.3118301  67.6991843 107.7749034  15.0213936  68.7749185 107.3075058
  14.3678331  68.4630168 107.6073191  18.6332968  70.9815006 111.8492527
  18.2412760  70.6781721 111.1315393  18.7886040  71.8184095 111.6597481
  18.5986558  71.0598842 111.7149024   6.1094148  60.9737020 111.7983410
   6.4893113  61.3921565 111.1343677   5.5349512  61.5550475 112.1052253
   6.0805473  61.1214878 111.7460151  18.7972643  67.5464994 111.7898558
  18.4387298  67.7179637 112.5662590  18.3111354  68.0078200 111.2326556
  18.6731340  67.6403965 111.8223827  13.5861008  63.2264160 104.3298792
  13.8753533  64.0029042 104.6042366  13.6732807  62.7152891 105.0313291
  13.6415264  63.2656078 104.4741290  19.9577382  68.4368890 122.7365759
  20.5957103  67.9429086 122.4028215  19.3151474  68.3646291 122.1517985
  19.9571609  68.3527899 122.6008114  21.6834382  60.2858036 117.3031674
  21.2561990  60.1984385 116.5479774  21.0460435  60.3935812 117.8886518
  21.5263990  60.2890696 117.2777116  20.0131639  69.1288699 119.3771115
  20.8024017  68.7777763 119.4973197  20.1875237  69.9425087 119.1147749
  20.1551920  69.1974556 119.3558983   9.7524949  62.5397424 116.4298904
   8.9112956  62.4401299 116.6377798   9.9614957  63.3092905 116.7813225
   9.6589642  62.6389468 116.5126219   7.2300516  60.1616961 114.2583655
   6.8357214  60.2359973 113.4833765   6.6740633  60.5474908 114.8092017
   7.0903329  60.2298736 114.2251315  18.8665463  53.1398255 113.9387534
  19.0715056  53.0720563 114.7844531  18.5391887  53.9457077 113.8708711
  18.8480711  53.2484196 114.0547189  13.5641614  60.4678824 115.6796502
  13.2604752  59.9134812 116.2806909  12.8621035  60.6471034 115.1924536
  13.4157824  60.4123606 115.6966207  12.6207711  57.7779343 110.2441204
  12.8967446  57.0598256 109.8318771  13.2206380  58.3764263 110.0362310
  12.7500976  57.7599714 110.1521965  22.1199151  53.6930020 113.4190299
  21.5073464  54.1800422 113.8044031  22.2163326  53.0173510 113.9627950
  22.0437048  53.6648328 113.5569157  16.1218232  55.4492861 108.5187799
  16.5761978  55.6203421 109.2435643  16.5958277  54.8360971 108.1185574
  16.2586552  55.3843746 108.5661560   9.6433757  64.9341187 117.8490537
   9.0521690  65.5750685 117.8193552  10.4054781  65.3578804 117.8221837
   9.6682018  65.0917025 117.8405684  25.7624179  64.7646956 118.8467815
  25.8207302  65.2133605 119.5927792  25.1290646  65.1745769 118.4097895
  25.6775474  64.8920691 118.8920364  19.4023273  70.3850498 115.2822562
  19.2042962  70.8741313 114.5878773  18.7810984  70.5891740 115.8606695
  19.2810838  70.4867036 115.2645785  13.4631252  62.1535395 109.6232806
  14.2073297  62.5409671 109.8615756  13.6091948  61.3092820 109.7873294
  13.5941837  62.0865868 109.6826776  16.4509128  57.7260868 115.5226725
  15.9769082  57.2002630 116.0332036  16.8227263  57.1790341 114.9541587
  16.4359016  57.5676865 115.5141872  22.7145858  62.7863244 116.9333506
  22.4744081  61.9469659 116.9375932  23.1937865  62.8663411 117.6574279
  22.7498042  62.6744644 117.0408308  18.3792627  58.6197423 108.5852479
  17.8515646  58.7026167 107.8958188  18.8388335  59.3615294 108.5817124
  18.3694478  58.7418085 108.4827174  24.7151045  59.5664701 114.8862765
  24.4760815  59.5260535 114.0483549  24.8784946  60.4135853 115.0128486
  24.7041349  59.6856786 114.7816247  21.3197075  63.9514651 120.8167810
  22.0431274  63.4987177 120.6378830  21.0547038  64.2319316 120.0340138
  21.3878349  63.9265619 120.6746525  10.3725692  56.8899943 103.6093374
  10.0238497  57.5419668 104.0724923   9.8922138  56.8757056 102.8817245
  10.2495936  56.9842996 103.5704465  17.9329710  67.1900987 107.7162136
  18.6563909  67.6559100 107.5726709  17.4930301  67.2574596 106.9659733
  17.9745402  67.2684823 107.5846917  17.1015865  64.0498529 118.9662825
  16.4872858  63.5056579 119.2611460  17.6183150  63.5362765 118.4868641
  17.0871527  63.8934938 118.9387053  16.3412162  65.1202799 116.7007124
  15.9139770  64.4952517 116.2672559  16.3337106  64.8377721 117.5266131
  16.2771303  64.9855579 116.7586951  10.7449601  59.5158473 109.1219419
  10.8852562  60.0130937 109.8248060  11.2432134  58.8144767 109.2633632
  10.8390682  59.4860452 109.2470998  10.7749823  60.3825584 106.4511995
  11.4094903  60.9786009 106.3861457  10.8575434  60.0829042 107.2657866
  10.8806374  60.4266492 106.5615082  23.7532389  62.9141061 119.3198360
  24.3450229  63.5538312 119.3516558  24.1891384  62.2164098 119.6090426
  23.9050820  62.9059412 119.3679192  12.3528806  56.3139559 106.4257437
  12.6744647  55.8342642 105.7716700  12.6155750  57.1239205 106.2348249
  12.4394832  56.3629457 106.3012930  15.5825779  67.3358434 119.9456254
  15.0750870  67.8894281 120.3896884  15.2852425  67.3966724 119.1275028
  15.4630664  67.4264745 119.8904710   7.2802811  62.5793425 109.7201542
   7.7895041  63.1757932 110.1012847   7.7537084  62.3119398 109.0377961
   7.4246187  62.6279240 109.6756064  18.1933559  71.2521691 107.8760197
  17.4762869  71.0782554 107.4107434  18.8440297  71.0174264 107.3435683
  18.1835410  71.1917484 107.7289415  16.1882184  52.1726853 112.1971494
  15.5450502  52.0224500 112.7656632  15.8481591  51.9269198 111.4320598
  16.0427261  52.1138976 112.1674509  20.7781531  60.1286280 111.6201502
  20.1072720  60.6715982 111.4914568  21.4721281  60.5981135 111.3783197
  20.7810398  60.2784551 111.5657030  14.8268264  72.2682992 116.8513260
  14.6033919  71.5101821 117.2197287  14.3378108  72.2981013 116.1293700
  14.7211713  72.1605216 116.7990001  20.9409658  56.5842164 114.5291875
  21.2937268  56.1571887 115.2037674  20.0824460  56.4993007 114.6592952
  20.8659103  56.5086904 114.6486886   9.6393343  59.2149683 112.5874722
   8.9205332  59.6313816 112.8547585  10.0105705  59.7803922 112.0366360
   9.5885275  59.3598965 112.5457529  18.9392924  59.8477532 118.4776718
  18.9190851  59.6660827 119.3311496  18.9872125  60.7189551 118.4536301
  18.9427565  59.9494070 118.6000012  13.4746721  72.4883450 114.3050345
  13.0607120  71.8257580 113.9154187  14.1594096  72.6361309 113.7846039
  13.5145093  72.4124108 114.1706842  16.8412015  71.6473535 115.0573962
  16.4428299  71.7575806 114.2894782  16.2263235  71.8555602 115.6400521
  16.6910905  71.6947103 115.0305261  15.4139917  58.2547683 107.9248101
  14.8204757  58.5764680 107.3732668  15.4515195  57.4088779 107.7169208
  15.3314307  58.1772011 107.8130873  22.3733718  51.7060575 115.4576188
  21.8664583  50.9989715 115.3897365  23.1701152  51.3753764 115.5877264
  22.4160957  51.5533727 115.4675183  18.2897734  58.2127188 111.3549852
  18.0611427  58.2359889 110.5128210  18.5495810  57.3884655 111.4744862
  18.2943922  58.0943268 111.2475049  11.3442497  56.7503734 112.6504047
  11.8199863  57.1120814 112.0154228  10.8431096  57.4060202 112.9304190
  11.3407855  56.8997923 112.5980788  24.5753858  66.2225502 108.4417052
  24.9587464  66.9716858 108.6715149  23.7797971  66.4691322 108.1829041
  24.5147640  66.3695196 108.4374626  13.3869150  58.8944934 106.0177431
  13.7668114  58.9124563 105.2328546  12.6461746  59.3398923 105.8968279
  13.3337987  58.9626708 105.8840999  21.0154440  57.2027125 111.6053010
  21.0148667  57.0475782 112.4637286  20.8110620  58.0490112 111.5494396
  20.9854218  57.3047746 111.7240949  18.7395292  61.8824627 115.2589217
  19.2348958  61.1647622 115.2193237  17.9295068  61.5795424 115.1443704
  18.6939186  61.7322273 115.2362943  14.1853904  65.7322440 107.4086221
  13.3765226  65.4089114 107.3619531  14.6928813  65.0255662 107.3414470
  14.1403571  65.5803756 107.3916516   4.8144181  63.1594633 113.1333586
   3.9489700  63.1480324 113.0216357   4.9142997  62.9724856 113.9804725
   4.7018348  63.1300694 113.2422530  20.8047111  64.6328314 117.9466346
  21.2302183  64.1102736 117.3936771  20.4404031  65.2309152 117.4254969
  20.8133714  64.6438541 117.7875355  17.3925711  68.3462579 114.2767503
  17.8636889  69.0602841 114.4457488  17.7285889  67.7461329 114.8127373
  17.5120826  68.3634043 114.3799879  18.0299657  68.1380513 121.0395196
  17.4820603  67.5138396 120.7715261  18.4912686  68.3274785 120.3239275
  18.0166866  68.0739563 120.8945627  13.3788320  55.1206462 108.7005063
  14.2004015  55.2904775 108.4586758  12.9157971  55.2753723 107.9771360
  13.4319483  55.1688195 108.5576707   7.7814211  66.8765640 116.3542299
   8.3859068  66.8361474 115.7256120   7.5741524  67.7236792 116.3846355
   7.8403108  66.9953643 116.2658416  17.5957983  69.1431585 117.5704537
  18.4156357  68.9994551 117.8320832  17.3152061  69.7677784 118.1120975
  17.6754727  69.2141937 117.6892476  34.0671634  76.7996437 110.5347413
  34.0365638  77.6541074 110.7065683  34.6652982  76.4991730 111.0933557
  34.1508791  76.8812934 110.6422216  27.2671318  75.8872088 115.2900344
  26.4109214  76.0480586 115.3409460  27.3138972  75.0164152 115.3105405
  27.1470430  75.7822890 115.3006410  21.6512458  85.4234806 111.0537575
  20.8995358  85.0450344 110.8253620  22.0998470  85.4553240 110.3056386
  21.6062125  85.3720413 110.9095077  30.5765035  82.1558614 124.8960800
  31.2831802  81.6610644 125.0247734  30.7652970  82.5967695 124.1663458
  30.7092941  82.1476964 124.8069845  27.1037418  85.8460175 106.4823122
  26.7688786  86.5237097 106.0467344  27.6164288  85.4565487 105.8939994
  27.1302999  85.8884754 106.3309914  26.6441709  87.7974444 112.4234234
  27.0281089  88.3661343 111.8839009  26.5800851  87.0723955 111.9440050
  26.6915137  87.7749908 112.2728096  30.1123139  77.9464132 117.9331995
  30.6579099  78.6249219 117.9925965  30.0540016  77.8051593 117.0733577
  30.1839054  78.0256134 117.8144056  23.2297214  85.4353198 113.3200348
  23.3307577  84.6253552 113.6297475  22.6338960  85.3410145 112.6900026
  23.1569753  85.3018226 113.2726586  31.8888208  79.3748739 108.8065723
  31.7727734  80.1256425 109.2357861  32.6844095  79.1172692 109.0561810
  31.9892798  79.4483586 108.9069815  23.0697954  90.3530787 114.7215204
  23.7135409  90.7943951 115.1111362  23.3954209  89.5484214 114.6345463
  23.2129783  90.2995982 114.7660681  16.4262259  81.4573485 112.9452681
  16.1912443  80.6241137 112.8384950  16.5647899  81.7378150 112.1313882
  16.4117921  81.3756988 112.8095036  18.7252346  73.6259215 115.8436989
  18.1057378  73.0351863 115.6747004  18.6236210  74.2170651 115.2101312
  18.6190022  73.6263298 115.7241979  23.7718534  83.3642762 110.0935065
  24.0934375  83.9047969 109.4896374  24.4190630  82.7939534 110.2257355
  23.9144589  83.3601937 110.0242101  25.8220242  75.3658757 110.1769452
  26.5200406  75.5446885 110.6690915  26.1372574  74.8429096 109.5539842
  25.9715579  75.3152529 110.1571462  18.4521479  77.1711497 118.0880558
  18.3280176  77.7573943 118.7230377  19.1039764  76.6771693 118.3892833
  18.5295128  77.1850301 118.2266487  26.0108177  81.7529202 110.1649244
  26.4501813  81.1446303 110.6104016  25.8612840  81.3736575 109.3934709
  26.0529643  81.6067673 110.1168411  23.4779820  80.3473214 117.3668069
  24.1228823  79.8545657 117.0479018  23.7181597  80.4898001 118.1934147
  23.6090405  80.2950656 117.4417602  26.0165911  83.1928120 117.0174962
  26.2989154  82.3979526 116.7961718  26.7452072  83.6708707 117.0380023
  26.1655475  83.1462717 116.9877977  23.9947105  70.7351154 114.2590727
  23.6650435  71.1862297 113.5894426  23.3192107  70.6567317 114.8063733
  23.8457542  70.7902289 114.2413950  29.6117514  80.1056383 107.1180013
  29.5268809  80.9617350 107.2629582  30.1001897  79.8300707 107.7862172
  29.6706411  80.1913705 107.2382094  31.2023513  66.7236677 112.5040337
  30.8876954  67.4140155 112.9360760  30.6850455  66.6681459 111.8025838
  31.0787983  66.8171565 112.4637287  30.5435947  76.7241178 108.6177748
  30.0147418  76.9400811 109.2775054  31.0660967  77.4177316 108.5378717
  30.5424400  76.8584314 108.7033347  35.9984000  82.2987482 113.9910792
  35.1681703  82.5098126 114.1544209  35.9493252  81.4724537 113.7153076
  35.8690735  82.2077088 113.9748158  22.4335555  80.6204394 107.4185216
  21.8492770  81.1254426 107.8251080  22.0305650  80.3946781 106.6781808
  22.2874858  80.6612643 107.3690241  24.0593737  85.1291336 116.8258702
  23.5420679  84.7698751 116.2220010  24.7568129  84.6053511 116.8364768
  24.0859318  84.9989024 116.7388961  26.8912769  76.8670046 105.8954137
  27.1308773  77.0748030 105.0829480  27.2128610  76.0627555 106.0043081
  26.9749927  76.7784148 105.7914690  22.2003059  68.7963442 109.7413675
  22.9549027  69.1641759 109.5030725  22.0230594  69.1702997 110.5092854
  22.2857538  68.9061630 109.8198563  20.8423781  86.8515331 114.3729167
  21.5444360  86.3367320 114.4301924  20.7621264  87.1789483 115.1776043
  20.9347541  86.8229558 114.5001960  35.4937958  74.9457883 117.7861214
  34.6566379  75.0160070 118.0208808  35.4626189  74.9482378 116.9135516
  35.3656240  74.9568110 117.6920762  20.5560124  71.2033761 106.4391788
  20.3735697  71.4205642 105.6132780  21.4185737  71.3172774 106.4950402
  20.6564713  71.2523659 106.3246275  20.1674556  83.0421683 113.8814775
  21.0063455  83.2744616 113.9288537  20.1986325  82.1725995 113.8121811
  20.2956274  82.9478630 113.8779420  26.2359843  68.2060172 109.4740811
  26.9646004  68.0276127 109.0278968  26.3254736  69.0478252 109.6847989
  26.3566505  68.3044050 109.4394329  30.2168144  79.1413559 113.3773105
  30.9725659  79.5745074 113.4162014  30.3230468  78.4918329 113.9507741
  30.3438314  79.1091043 113.4671131  33.2548315  82.9686836 114.1275508
  32.8183547  82.9723579 114.8834480  32.9211230  83.6492335 113.6955086
  33.1410935  83.0699292 114.1756341  33.1745798  70.0100664 116.3704936
  33.8171706  70.0798769 116.9566852  33.4268819  69.3429887 115.8684478
  33.3067930  69.9227013 116.3832215  20.1022151  74.4807934 104.9514261
  19.3880328  74.1946113 105.3636693  20.5866120  74.8204560 105.5920648
  20.0681514  74.4889583 105.1069896  20.9463010  73.2201228 120.9829510
  20.2534807  72.7498207 121.2290242  21.5623338  72.9939532 121.5571217
  20.9347540  73.1168360 121.1038663  27.9847782  86.9205271 119.0985114
  27.1863028  86.6804771 119.3558983  28.4333793  86.9719664 119.8452162
  27.9322393  86.8927663 119.2470038  36.3892661  79.6867756 113.0195146
  37.0509095  79.1258425 112.9191054  35.7484073  79.1919787 113.3447837
  36.3921529  79.5304165 113.0527486  27.2769469  82.9837888 105.3276069
  27.6920617  82.6522912 104.6360565  26.4461399  82.7506790 105.1996205
  27.2157478  82.9009144 105.2066916  16.6057818  80.4681629 115.6174247
  16.4233391  80.4428515 114.7646539  17.3407487  80.9380567 115.6563156
  16.6871882  80.5342991 115.4972165  32.6757492  80.7033139 112.7607134
  32.9113081  80.8478338 111.9333985  32.8247056  81.4675547 113.1538648
  32.7323295  80.8372193 112.6970738  34.5047949  79.5434805 110.5976738
  34.8356166  80.0762445 109.9916833  35.0781037  79.5973692 111.2538689
  34.6381628  79.6304374 110.6054520  29.7179838  77.3899707 111.2800318
  29.8126692  78.1289001 111.7339944  29.0938681  76.9617183 111.7134883
  29.6388868  77.4361028 111.4108466  27.9732312  80.5685920 121.9290599
  28.5471173  79.9313164 122.0839163  27.8947115  80.5690002 121.0600257
  28.0465546  80.4751031 121.8237010  16.5728728  77.3475129 115.7673313
  17.1502231  77.2111580 116.4065559  15.8742790  76.8910914 116.0218898
  16.5549749  77.2597396 115.8995603  29.9702859  79.2348447 104.5137270
  29.8883022  79.3050634 105.3792257  30.6082580  79.7978191 104.3221011
  30.0522696  79.3287418 104.6127220  23.3296030  79.0009185 113.9811797
  23.0715274  78.1680920 113.9543096  23.3844513  79.2266798 113.1404297
  23.2995808  78.9106956 113.8531933  28.4097080  71.1037636 114.0815889
  27.7053407  70.6146821 114.2399808  28.4582055  71.1160110 113.2104334
  28.3127132  71.0327284 113.9755229  22.3030742  76.5546948 114.4676691
  21.7280334  76.7139116 115.1040652  21.9266419  75.9182357 114.0045142
  22.1633555  76.4844761 114.4931250  25.9704031  75.0270297 119.3269070
  25.5818464  74.6024515 118.6721261  25.3058729  75.2752447 119.8346096
  25.8150959  75.0009018 119.3056938  35.6127300  74.7845302 112.1016900
  35.3563865  73.9725243 111.9114783  36.4556614  74.7922869 111.8747087
  35.6993326  74.6657299 112.0401717  12.0487561  76.1987022 112.4821132
  12.1347813  75.8218891 113.2634662  12.6763359  75.8247468 112.0041090
  12.1544112  76.0872505 112.5266609  29.7930393  68.7244926 116.8393054
  30.1740904  68.0423097 117.2260928  28.9893677  68.4354528 116.6568718
  29.7306854  68.5811974 116.8697110  27.0742969  79.2568901 107.5245877
  27.8883608  79.5483794 107.4128648  27.0102110  78.6028764 106.9504170
  27.1845708  79.2034096 107.4234714  33.2952459  81.9394898 121.9375452
  33.0591097  81.1082962 121.8187513  33.9395688  81.8880505 122.5230297
  33.3547130  81.8092586 122.0061346  22.9450878  82.7290419 112.6518189
  23.5824824  82.4902166 113.1969982  23.3705949  82.9327578 111.9171349
  23.1027044  82.7241429 112.6235346  23.5853693  77.9492709 106.9893078
  23.9698845  77.7300415 107.7409623  23.3365313  78.7755654 107.1194155
  23.6055765  78.0390855 107.1194155  23.7522233  71.2299124 126.7055662
  23.4375674  71.9998687 126.4425225  23.4312165  70.6669380 126.1207889
  23.6581152  71.2609393 126.5797012  34.3188880  81.7239346 118.0003747
  34.0134697  82.4567403 118.3617062  33.5995096  81.3177276 117.7196533
  34.1676222  81.7721079 118.0116884  25.3272349  83.2062842 114.3311975
  25.4011358  83.0438013 115.1853825  26.1441856  83.3953031 114.0872457
  25.4588708  83.2099584 114.4210001  40.0190672  78.3632347 117.3272091
  39.9515172  78.3828306 116.4574678  40.0046335  79.2062674 117.5527762
  40.0069429  78.4906082 117.2324568  19.0878106  83.5520704 111.3606419
  18.2616224  83.7982442 111.2340697  19.1490097  83.4732785 112.2268477
  18.9752273  83.5765653 111.4695363  21.3054130  69.6189645 112.3201859
  20.4376555  69.6912245 112.3859468  21.5929334  70.4211724 112.5089834
  21.2193878  69.7483792 112.3576625  30.4287019  69.7667505 120.6513181
  31.1740611  69.5777315 120.2376606  30.0124323  70.2925743 120.0927037
  30.4771993  69.8169650 120.5077754  23.8676935  86.1697585 109.0625448
  24.1575234  85.7786566 108.3384675  24.5980416  86.3514290 109.5030724
  24.0183819  86.1391398 109.0208255  37.8049290  77.1376733 115.6018685
  38.3557211  76.5044802 115.8415778  37.7893405  77.6692126 116.2934190
  37.8834486  77.1225681 115.7397544  24.4571680  80.9715331 120.1478579
  23.9583374  81.6831098 120.2263467  25.2671905  81.2915997 120.1096741
  24.5027787  81.1242179 120.1535147  21.8082851  88.1464967 112.1285598
  21.5883146  87.8562322 112.9212265  21.5877373  87.4879922 111.6003511
  21.7430445  88.0064675 112.1674507  20.7199798  80.2338284 114.3941300
  20.4313047  79.6075755 114.9287027  21.5883146  80.1758571 114.4605980
  20.8060050  80.1325828 114.4832254  31.5077696  75.3773067 114.7123282
  31.1642462  74.6563402 115.0630531  31.6070738  75.1686918 113.8701640
  31.4719739  75.2397270 114.6394962  23.9750806  89.5194357 110.9116291
  24.6274864  88.9870799 111.1407317  23.2776415  89.1663009 111.2984165
  23.9681524  89.3883880 111.0028458  20.9232071  81.8733535 110.3183665
  21.6778039  82.2546574 110.5319127  20.3302684  82.3244678 110.7730361
  20.9468785  81.9962362 110.4166543  31.9690725  81.8398771 110.2547270
  32.5348757  82.4991981 110.1705813  31.3218628  82.1848469 110.7263672
  31.9569481  81.9880712 110.3120026  23.3838738  73.8296375 125.4440877
  22.5738514  74.1354155 125.3330719  23.8613425  74.5501957 125.5593461
  23.3342217  73.9810976 125.4447948  22.2430298  83.0442096 115.6923780
  21.7211051  83.1842388 116.3775645  22.6304318  82.2852760 115.8825898
  22.2233999  82.9527620 115.8224857  19.2321482  73.0947905 109.7618735
  18.9446278  72.7249175 109.0250682  19.9191950  73.5642760 109.5002440
  19.2910379  73.1094874 109.6133811  28.4397303  84.7837555 109.6784349
  28.1983979  84.0505416 109.2711414  28.6198636  85.3324412 109.0250682
  28.4304927  84.7559946 109.5214572  23.6696624  80.0746115 111.0905271
  23.4739406  80.6820850 110.4965574  23.8930969  79.3814059 110.6096945
  23.6731265  80.0623640 110.9321352  22.0675154  76.9600853 111.2086140
  22.7897805  77.1242011 110.7489946  21.5883146  77.6810518 111.1025479
  22.1038884  77.0899082 111.1251754  30.0268661  73.2964652 116.5882825
  29.1879762  73.3225931 116.3521088  30.0973028  73.9435387 117.1688171
  29.9137055  73.3960778 116.6391941  28.4737939  70.1950029 111.3210441
  29.1764292  69.9957777 110.8430399  28.2082128  69.4225971 111.6279284
  28.5384572  70.0512995 111.2955882  33.9026185  78.5032638 113.8744066
  33.8160159  78.6588065 114.7278845  33.4476665  79.1470714 113.5003471
  33.8229442  78.6208394 113.9451173  16.8049677  73.8729117 110.6104016
  16.9065813  74.6755279 110.9384991  17.6005563  73.6716453 110.3127097
  16.9377582  73.9615016 110.6139371  23.2366496  71.4585314 120.3741321
  23.0449693  71.4740448 121.2240745  24.0865092  71.6548988 120.3507976
  23.3342218  71.4899665 120.4964616  17.6213409  73.9876295 118.3525138
  17.4798900  73.1360236 118.4769646  17.9053972  74.0304956 117.5287344
  17.6421255  73.8676045 118.2492762  27.7752001  75.8243386 112.4969626
  27.5286715  75.7439136 113.3306415  28.1037124  75.0396853 112.3032153
  27.7873245  75.6969651 112.5917149  31.6700050  82.5326745 116.2856407
  31.5314409  83.2307791 116.7905149  30.8900048  82.3775401 115.9292589
  31.5343277  82.6126912 116.3082681  30.0078135  78.8323120 122.5378789
  30.0026173  77.9602937 122.5421215  30.7139129  79.0311289 122.0648244
  30.1123139  78.7326994 122.4685824  23.7349028  78.5600104 121.9092609
  23.8792404  79.1401312 121.2735719  24.0824677  78.9376401 122.6142464
  23.8076490  78.7020808 121.9191604  25.9068946  77.7590273 119.6917741
  25.1592260  77.9521287 119.2866019  26.0610471  76.9335492 119.4541862
  25.8191373  77.6655384 119.5963146  33.1653423  81.8904999 107.0472906
  32.7860231  81.1042137 107.0402196  32.5019668  82.4391856 106.9044551
  33.0111897  81.8549823 107.0253703  26.1470723  71.6540823 120.5813144
  26.6043337  72.3864798 120.7085936  26.2227051  71.2307289 121.3400400
  26.2261693  71.6998061 120.7114221  18.3903714  71.9006643 121.6702588
  17.8545903  71.2887001 121.9863355  18.4521479  72.4754779 122.3236255
  18.3199347  71.8953571 121.8138015  30.6198049  64.8330698 114.4506987
  30.7381617  65.2907162 113.7174290  30.4460224  64.0275960 114.1643205
  30.6117220  64.7824471 114.3007921  25.9900331  85.4418518 110.8861733
  26.7550222  85.1728161 110.5644397  25.8878421  84.9568528 111.6031795
  26.0881826  85.3308082 110.9441560  24.0253101  73.6442927 117.4254968
  23.2349175  73.4634387 117.7472304  24.4213723  72.8669880 117.4085263
  23.9669977  73.5030388 117.4707517  28.5118991  82.4730701 102.8661682
  29.2791977  82.5330826 102.4567534  28.0650300  81.9011143 102.3818000
  28.5592419  82.3967277 102.7339392  29.4096787  81.2785357 115.1514414
  28.7341789  81.0470590 115.6527801  29.4189163  80.6706540 114.5256519
  29.3115291  81.1544283 115.1330566  26.5390931  76.1203186 121.9078467
  26.4750072  76.9813143 121.7798604  26.6788119  75.8035180 121.1074018
  26.5506401  76.2003353 121.7706680  31.4113521  84.1350490 107.3824592
  31.4933359  84.9417476 107.0586043  31.8963264  84.1546449 108.1065366
  31.4950679  84.2571152 107.4411491  25.2210025  78.8135326 116.0494670
  24.7972274  79.0139825 115.3133688  25.0454880  77.9664174 116.1618970
  25.1320905  78.7184107 115.9568360  20.5092470  79.3087377 111.4822643
  20.6657089  79.2434180 112.3378635  20.8493063  80.0835930 111.2701322
  20.5825705  79.4136575 111.5777237  27.0471614  78.6845261 110.3516006
  27.5887160  78.1815642 110.8154626  27.3618173  78.6310455 109.5405491
  27.1736011  78.6024682 110.2999818  25.2158064  84.0762612 107.6356034
  25.2850884  83.2177151 107.7749034  25.9946519  84.2934493 107.3075058
  25.3410914  83.9815476 107.6073191  28.1960884  73.5781565 120.4038306
  28.4102853  72.9392479 119.8501660  27.5794783  74.0227389 119.9746168
  28.1366213  73.5491709 120.2588737  29.6065552  86.5000313 111.8492527
  29.2145343  86.1967029 111.1315393  29.7618624  87.3369403 111.6597481
  29.5719141  86.5784150 111.7149024  17.0826731  76.4922328 111.7983410
  17.4625696  76.9106872 111.1343677  16.5082096  77.0735783 112.1052253
  17.0538056  76.6400186 111.7460151  30.3599972  75.1870630 121.3421613
  29.5476653  74.8796521 121.4234786  30.8189906  74.7069630 121.9064326
  30.3080357  75.0707123 121.4376208  29.7705226  83.0650302 111.7898558
  29.4119881  83.2364945 112.5662590  29.2843937  83.5263508 111.2326556
  29.6463923  83.1589273 111.8223827  27.5875612  66.6881501 115.3925649
  26.7169170  66.6620222 115.3458959  27.8415954  66.5158693 114.5751495
  27.4969172  66.6591645 115.2645786  24.5593592  78.7449468 104.3298792
  24.8486117  79.5214350 104.6042366  24.6465391  78.2338199 105.0313291
  24.6147848  78.7841386 104.4741290  27.4553479  76.5930702 126.1250316
  27.9253110  77.2172818 126.5118190  27.5015359  75.9247677 126.6843530
  27.5321355  76.5865382 126.2650387  24.6124753  68.6987729 116.8499119
  24.0963241  68.0067921 116.9750698  24.0518682  69.3658506 116.7961718
  24.4531266  68.6950987 116.8605185  26.6816986  69.2380689 118.6791972
  26.2948739  69.2629721 119.4605502  26.1949924  68.6722368 118.2266489
  26.5529495  69.1576440 118.7279876  30.9309966  83.9554198 122.7365759
  31.5689686  83.4614394 122.4028215  30.2884057  83.8831599 122.1517985
  30.9304192  83.8713207 122.6008114  32.6566966  75.8043344 117.3031674
  32.2294574  75.7169693 116.5479774  32.0193019  75.9121120 117.8886518
  32.4996573  75.8076004 117.2777116  26.3474128  66.1247675 120.9702232
  26.9767246  66.6607975 120.6923302  26.5159991  66.0325034 121.8215798
  26.4651923  66.1909037 121.0550760  26.1488043  70.9118869 123.2428644
  26.9761472  70.6404018 123.2987258  26.1695889  71.7079711 123.5992462
  26.2740893  70.9898624 123.3043826  30.9864222  84.6474007 119.3771115
  31.7756601  84.2963071 119.4973197  31.1607820  85.4610395 119.1147749
  31.1284504  84.7159864 119.3558983  20.7257533  78.0582732 116.4298904
  19.8845539  77.9586606 116.6377798  20.9347541  78.8278213 116.7813225
  20.6322225  78.1574776 116.5126219  18.2033100  75.6802269 114.2583655
  17.8089797  75.7545281 113.4833765  17.6473217  76.0660216 114.8092017
  18.0635912  75.7484044 114.2251315  29.8398047  68.6583563 113.9387534
  30.0447640  68.5905871 114.7844531  29.5124471  69.4642384 113.8708711
  29.8213294  68.7669504 114.0547189  24.5374198  75.9864131 115.6796502
  24.2337335  75.4320120 116.2806909  23.8353618  76.1656341 115.1924536
  24.3890407  75.9308914 115.6966207  23.5940295  73.2964651 110.2441204
  23.8700029  72.5783564 109.8318771  24.1938964  73.8949571 110.0362310
  23.7233559  73.2785022 110.1521965  33.0931734  69.2115328 113.4190299
  32.4806048  69.6985730 113.8044031  33.1895909  68.5358818 113.9627950
  33.0169632  69.1833636 113.5569157  27.0950815  70.9678169 108.5187799
  27.5494562  71.1388729 109.2435643  27.5690861  70.3546279 108.1185574
  27.2319135  70.9029054 108.5661560  20.6166341  80.4526495 117.8490537
  20.0254274  81.0935993 117.8193552  21.3787364  80.8764112 117.8221837
  20.6414601  80.6102333 117.8405684  21.0126963  71.6128492 118.5158555
  21.4728445  71.6867422 119.2533678  21.0583070  72.4109746 118.1658376
  21.0877519  71.7422639 118.5731311  22.6610313  72.2795187 123.0830582
  22.2695878  71.6328534 123.5186360  22.8296176  72.8706622 123.7024837
  22.6281224  72.2709455 123.2393288  36.7356762  80.2832264 118.8467815
  36.7939886  80.7318913 119.5927792  36.1023230  80.6931077 118.4097895
  36.6508057  80.4105999 118.8920364  30.3755857  85.9035806 115.2822562
  30.1775546  86.3926621 114.5878773  29.7543568  86.1077048 115.8606695
  30.2543421  86.0052344 115.2645785  24.4363835  77.6720703 109.6232806
  25.1805880  78.0594979 109.8615756  24.5824531  76.8278128 109.7873294
  24.5674420  77.6051176 109.6826776  26.3543411  69.4670962 114.6564667
  25.5079456  69.6393770 114.5306017  26.3514543  68.6620306 114.9930496
  26.2290561  69.3731991 114.6875794  27.4241711  73.2446176 115.5226725
  26.9501665  72.7187938 116.0332036  27.7959847  72.6975649 114.9541587
  27.4091600  73.0862173 115.5141872  17.8014741  75.2417683 120.8910271
  18.6640354  75.1413392 120.8047601  17.4706524  74.6612392 120.3295843
  17.8799938  75.1409310 120.7955677  33.6878442  78.3048552 116.9333506
  33.4476665  77.4654967 116.9375932  34.1670449  78.3848719 117.6574279
  33.7230625  78.1929952 117.0408308  29.3525211  74.1382731 108.5852479
  28.8248229  74.2211475 107.8958188  29.8120919  74.8800602 108.5817124
  29.3427061  74.2603393 108.4827174  35.6883629  75.0850009 114.8862765
  35.4493399  75.0445843 114.0483549  35.8517530  75.9321161 115.0128486
  35.6773932  75.2042094 114.7816247  32.2929659  79.4699958 120.8167810
  33.0163858  79.0172485 120.6378830  32.0279621  79.7504624 120.0340138
  32.3610932  79.4450927 120.6746525  21.1616527  74.0660132 117.5520689
  20.5369597  74.0778524 116.9446642  20.8262122  74.5420307 118.2011929
  21.0202019  74.1378649 117.5577258  21.3458276  72.4085250 103.6093374
  20.9971080  73.0604976 104.0724923  20.8654722  72.3942364 102.8817245
  21.2228520  72.5028304 103.5704465  28.9062293  82.7086294 107.7162136
  29.6296492  83.1744407 107.5726709  28.4662884  82.7759904 106.9659733
  28.9477985  82.7870131 107.5846917  28.0748448  79.5683837 118.9662825
  27.4605441  79.0241887 119.2611460  28.5915733  79.0548073 118.4868641
  28.0604111  79.4120246 118.9387053  27.3144745  80.6388107 116.7007124
  26.8872354  80.0137825 116.2672559  27.3069690  80.3563029 117.5266131
  27.2503887  80.5040887 116.7586951  20.4307273  75.6753280 119.7695558
  20.5900759  74.9196604 120.1747280  20.2500166  76.2244219 120.4236295
  20.4272632  75.6447094 119.9258264  28.3727576  67.8414515 120.3246347
  27.8768137  68.0378190 119.6337914  29.1296638  68.2407184 120.1535149
  28.4114400  67.9292249 120.1966484  25.6430455  71.5156861 116.9149658
  25.6672942  70.9816974 116.2262438  25.8941929  71.0074170 117.5775248
  25.6840374  71.3617765 116.9114302  21.9231777  70.2427680 116.2955402
  21.9630149  70.7436886 117.0090109  21.0981442  70.3338073 116.0261325
  21.8071303  70.3309496 116.3605940  23.3446141  76.7588189 118.5929301
  22.5138070  76.9262007 118.3864549  23.2897658  76.3824140 119.3778186
  23.2135556  76.7277921 118.6777829  21.1529924  70.2497082 124.2285712
  21.7782627  69.7059215 124.5015144  20.6980404  69.7692000 123.6593502
  21.1778185  70.0986564 124.1847305  21.7182185  75.0343781 109.1219419
  21.8585146  75.5316245 109.8248060  22.2164717  74.3330075 109.2633632
  21.8123266  75.0045760 109.2470998  21.7482407  75.9010892 106.4511995
  22.3827486  76.4971317 106.3861457  21.8308018  75.6014350 107.2657866
  21.8538958  75.9451800 106.5615082  34.7264973  78.4326369 119.3198360
  35.3182813  79.0723620 119.3516558  35.1623967  77.7349406 119.6090426
  34.8783404  78.4244720 119.3679192  23.3261390  71.8324867 106.4257437
  23.6477231  71.3527950 105.7716700  23.5888334  72.6424513 106.2348249
  23.4127415  71.8814765 106.3012930  26.5558363  82.8543742 119.9456254
  26.0483454  83.4079589 120.3896884  26.2585009  82.9152032 119.1275028
  26.4363248  82.9450053 119.8904710  28.7220545  71.2197061 118.7880917
  29.1475616  70.7669588 118.1764443  28.1077538  70.6657132 119.0645704
  28.6949190  71.0711038 118.7385942  18.2535395  78.0978733 109.7201542
  18.7627624  78.6943240 110.1012847  18.7269667  77.8304706 109.0377961
  18.3978771  78.1464548 109.6756064  29.1666143  86.7706999 107.8760197
  28.4495453  86.5967862 107.4107434  29.8172881  86.5359572 107.3435683
  29.1567993  86.7102792 107.7289415  27.1614768  67.6912161 112.1971494
  26.5183086  67.5409807 112.7656632  26.8214175  67.4454506 111.4320598
  27.0159845  67.6324284 112.1674509  31.7514114  75.6471588 111.6201502
  31.0805304  76.1901290 111.4914568  32.4453864  76.1166443 111.3783197
  31.7542982  75.7969859 111.5657030  25.8000848  87.7868300 116.8513260
  25.5766502  87.0287129 117.2197287  25.3110691  87.8166321 116.1293700
  25.6944297  87.6790524 116.7990001  31.9142242  72.1027472 114.5291875
  32.2669852  71.6757194 115.2037674  31.0557043  72.0178315 114.6592952
  31.8391686  72.0272212 114.6486886  20.6125927  74.7334991 112.5874722
  19.8937916  75.1499124 112.8547585  20.9838289  75.2989230 112.0366360
  20.5617858  74.8784273 112.5457529  29.9125507  75.3662840 118.4776718
  29.8923435  75.1846135 119.3311496  29.9604708  76.2374859 118.4536301
  29.9160148  75.4679378 118.6000012  27.8571837  81.9550032 124.4025194
  27.8167692  81.3099709 123.8170350  28.6695156  81.8986650 124.7150606
  27.9714991  81.8508999 124.3622143  24.4479305  88.0068758 114.3050345
  24.0339703  87.3442888 113.9154187  25.1326679  88.1546617 113.7846039
  24.4877677  87.9309416 114.1706842  27.8144599  87.1658843 115.0573962
  27.4160882  87.2761114 114.2894782  27.1995819  87.3740910 115.6400521
  27.6643488  87.2132411 115.0305261  26.3872501  73.7732991 107.9248101
  25.7937340  74.0949988 107.3732668  26.4247779  72.9274087 107.7169208
  26.3046890  73.6957319 107.8130873  33.3466302  67.2245883 115.4576188
  32.8397166  66.5175023 115.3897365  34.1433735  66.8939072 115.5877264
  33.3893541  67.0719035 115.4675183  29.2630318  73.7312496 111.3549852
  29.0344011  73.7545197 110.5128210  29.5228394  72.9069963 111.4744862
  29.2676506  73.6128576 111.2475049  23.5449546  75.5846969 120.9574952
  23.0328449  74.9768152 121.3159983  23.3729042  76.3003561 121.4248928
  23.4439183  75.6010268 121.0791175  22.3175080  72.2689042 112.6504047
  22.7932446  72.6306122 112.0154228  21.8163680  72.9245510 112.9304190
  22.3140439  72.4183231 112.5980788  35.5486442  81.7410810 108.4417052
  35.9320047  82.4902166 108.6715149  34.7530555  81.9876630 108.1829041
  35.4880224  81.8880504 108.4374626  27.4218616  73.5071213 123.3977207
  27.9790047  73.2785023 122.7655673  27.0979681  74.2676879 123.1212420
  27.4565027  73.5855050 123.2633704  25.1401734  76.5938867 124.3629215
  25.8913061  76.9090543 124.6768769  25.3324310  76.3918038 123.5363136
  25.2793148  76.6106248 124.2872610  24.3601733  74.4130242 106.0177431
  24.7400698  74.4309871 105.2328546  23.6194329  74.8584231 105.8968279
  24.3070571  74.4812016 105.8840999  31.9887024  72.7212433 111.6053010
  31.9881250  72.5661089 112.4637286  31.7843204  73.5675420 111.5494396
  31.9586802  72.8233054 111.7240949  14.0504295  76.1452217 116.0211827
  13.8726056  75.6928826 116.7466742  13.7623317  76.9478379 116.2050304
  13.9817248  76.1974775 116.1555329  29.7127876  77.4009935 115.2589217
  30.2081541  76.6832930 115.2193237  28.9027652  77.0980732 115.1443704
  29.6671769  77.2507581 115.2362943  25.1586487  81.2507748 107.4086221
  24.3497810  80.9274422 107.3619531  25.6661396  80.5440970 107.3414470
  25.1136154  81.0989064 107.3916516  15.7876765  78.6779941 113.1333586
  14.9222284  78.6665632 113.0216357  15.8875580  78.4910164 113.9804725
  15.6750932  78.6486002 113.2422530  31.7779695  80.1513622 117.9466346
  32.2034766  79.6288044 117.3936771  31.4136615  80.7494460 117.4254969
  31.7866297  80.1623849 117.7875355  28.3658294  83.8647886 114.2767503
  28.8369472  84.5788149 114.4457488  28.7018473  83.2646637 114.8127373
  28.4853409  83.8819351 114.3799879  25.2827789  68.6375357 121.2325598
  25.4155695  67.8406350 121.5606573  25.6672942  69.1641760 121.8123873
  25.3584118  68.5975274 121.3669101  29.0032240  83.6565821 121.0395196
  28.4553186  83.0323704 120.7715261  29.4645269  83.8460093 120.3239275
  28.9899450  83.5924871 120.8945627  28.3560144  65.5605683 117.8306691
  27.5506108  65.4503413 118.1474529  28.2266880  65.6618139 116.9736557
  28.2180277  65.5589353 117.7514731  31.8126105  71.7251175 118.4246388
  31.2289094  72.2260382 118.0123955  32.1330399  71.2180731 117.7910711
  31.7739280  71.7243010 118.2704895  24.3520904  70.6391770 108.7005063
  25.1736598  70.8090083 108.4586758  23.8890555  70.7939031 107.9771360
  24.4052066  70.6873503 108.5576707  22.9416236  68.6334532 119.4803492
  23.4860649  68.2925659 120.0707833  22.9953172  69.4919994 119.6224776
  23.0305355  68.7089791 119.5885365  18.7546795  82.3950948 116.3542299
  19.3591652  82.3546782 115.7256120  18.5474107  83.2422100 116.3846355
  18.8135692  82.5138951 116.2658416  28.5690567  84.6616893 117.5704537
  29.3888941  84.5179859 117.8320832  28.2884644  85.2863092 118.1120975
  28.6487310  84.7327245 117.6892476  45.0404217  92.3181745 110.5347413
  45.0098221  93.1726382 110.7065683  45.6385566  92.0177038 111.0933557
  45.1241375  92.3998242 110.6422216  38.2403902  91.4057396 115.2900344
  37.3841797  91.5665894 115.3409460  38.2871556  90.5349460 115.3105405
  38.1203013  91.3008198 115.3006410  32.6245042 100.9420114 111.0537575
  31.8727941 100.5635652 110.8253620  33.0731053 100.9738548 110.3056386
  32.5794709 100.8905721 110.9095077  41.5497619  97.6743922 124.8960800
  42.2564386  97.1795952 125.0247734  41.7385554  98.1153003 124.1663458
  41.6825524  97.6662272 124.8069845  38.0770002 101.3645483 106.4823122
  37.7421370 102.0422405 106.0467344  38.5896872 100.9750795 105.8939994
  38.1035583 101.4070062 106.3309914  37.6174293 103.3159752 112.4234234
  38.0013672 103.8846651 111.8839009  37.5533434 102.5909262 111.9440050
  37.6647720 103.2935216 112.2728096  41.0855723  93.4649440 117.9331995
  41.6311683  94.1434527 117.9925965  41.0272599  93.3236901 117.0733577
  41.1571637  93.5441442 117.8144056  34.2029798 100.9538506 113.3200348
  34.3040161 100.1438860 113.6297475  33.6071543 100.8595452 112.6900026
  34.1302337 100.8203534 113.2726586  42.8620792  94.8934047 108.8065723
  42.7460318  95.6441733 109.2357861  43.6576678  94.6358000 109.0561810
  42.9625381  94.9668894 108.9069815  34.0430537 105.8716095 114.7215204
  34.6867993 106.3129259 115.1111362  34.3686793 105.0669521 114.6345463
  34.1862366 105.8181290 114.7660681  27.3994842  96.9758793 112.9452681
  27.1645027  96.1426445 112.8384950  27.5380483  97.2563458 112.1313882
  27.3850505  96.8942296 112.8095036  29.6984930  89.1444523 115.8436989
  29.0789961  88.5537170 115.6747004  29.5968793  89.7355958 115.2101312
  29.5922605  89.1448606 115.7241979  34.7451117  98.8828070 110.0935065
  35.0666958  99.4233277 109.4896374  35.3923214  98.3124841 110.2257355
  34.8877172  98.8787245 110.0242101  36.7952825  90.8844065 110.1769452
  37.4932990  91.0632193 110.6690915  37.1105158  90.3614404 109.5539842
  36.9448162  90.8337837 110.1571462  29.4254063  92.6896805 118.0880558
  29.3012759  93.2759250 118.7230377  30.0772347  92.1957001 118.3892833
  29.5027712  92.7035609 118.2266487  36.9840761  97.2714510 110.1649244
  37.4234396  96.6631611 110.6104016  36.8345423  96.8921883 109.3934709
  37.0262226  97.1252981 110.1168411  34.4512404  95.8658522 117.3668069
  35.0961406  95.3730965 117.0479018  34.6914181  96.0083308 118.1934147
  34.5822989  95.8135964 117.4417602  36.9898495  98.7113428 117.0174962
  37.2721738  97.9164833 116.7961718  37.7184655  99.1894015 117.0380023
  37.1388059  98.6648025 116.9877977  34.9679689  86.2536462 114.2590727
  34.6383019  86.7047605 113.5894426  34.2924691  86.1752625 114.8063733
  34.8190125  86.3087597 114.2413950  40.5850097  95.6241691 107.1180013
  40.5001392  96.4802658 107.2629582  41.0734480  95.3486015 107.7862172
  40.6438994  95.7099013 107.2382094  42.1756097  82.2421985 112.5040337
  41.8609538  82.9325463 112.9360760  41.6583038  82.1866767 111.8025838
  42.0520567  82.3356873 112.4637287  41.5168530  92.2426486 108.6177748
  40.9880002  92.4586119 109.2775054  42.0393550  92.9362624 108.5378717
  41.5156983  92.3769622 108.7033347  46.9716583  97.8172790 113.9910792
  46.1414286  98.0283434 114.1544209  46.9225836  96.9909845 113.7153076
  46.8423319  97.7262396 113.9748158  33.4068138  96.1389702 107.4185216
  32.8225353  96.6439734 107.8251080  33.0038233  95.9132089 106.6781808
  33.2607442  96.1797951 107.3690241  35.0326321 100.6476644 116.8258702
  34.5153263 100.2884059 116.2220010  35.7300712 100.1238819 116.8364768
  35.0591902 100.5174332 116.7388961  37.8645353  92.3855354 105.8954137
  38.1041356  92.5933338 105.0829480  38.1861194  91.5812863 106.0043081
  37.9482511  92.2969456 105.7914690  33.1735643  84.3148750 109.7413675
  33.9281611  84.6827067 109.5030725  32.9963177  84.6888304 110.5092854
  33.2590121  84.4246938 109.8198563  31.8156364 102.3700639 114.3729167
  32.5176943 101.8552628 114.4301924  31.7353847 102.6974791 115.1776043
  31.9080125 102.3414866 114.5001960  46.4670542  90.4643191 117.7861214
  45.6298963  90.5345378 118.0208808  46.4358773  90.4667685 116.9135516
  46.3388824  90.4753418 117.6920762  31.5292708  86.7219069 106.4391788
  31.3468281  86.9390950 105.6132780  32.3918321  86.8358082 106.4950402
  31.6297297  86.7708967 106.3246275  31.1407140  98.5606991 113.8814775
  31.9796039  98.7929924 113.9288537  31.1718909  97.6911303 113.8121811
  31.2688857  98.4663938 113.8779420  37.2092427  83.7245480 109.4740811
  37.9378587  83.5461435 109.0278968  37.2987320  84.5663560 109.6847989
  37.3299089  83.8229358 109.4394329  41.1900727  94.6598867 113.3773105
  41.9458242  95.0930382 113.4162014  41.2963052  94.0103637 113.9507741
  41.3170898  94.6276351 113.4671131  44.2280899  98.4872144 114.1275508
  43.7916130  98.4908887 114.8834480  43.8943814  99.1677643 113.6955086
  44.1143518  98.5884600 114.1756341  44.1478381  85.5285972 116.3704936
  44.7904290  85.5984077 116.9566852  44.4001402  84.8615195 115.8684478
  44.2800514  85.4412321 116.3832215  31.0754735  89.9993242 104.9514261
  30.3612912  89.7131421 105.3636693  31.5598703  90.3389868 105.5920648
  31.0414098  90.0074891 105.1069896  31.9195594  88.7386536 120.9829510
  31.2267391  88.2683515 121.2290242  32.5355921  88.5124840 121.5571217
  31.9080124  88.6353667 121.1038663  38.9580365 102.4390579 119.0985114
  38.1595611 102.1990079 119.3558983  39.4066377 102.4904972 119.8452162
  38.9054977 102.4112970 119.2470038  47.3625245  95.2053064 113.0195146
  48.0241679  94.6443733 112.9191054  46.7216657  94.7105095 113.3447837
  47.3654112  95.0489473 113.0527486  38.2502052  98.5023196 105.3276069
  38.6653201  98.1708220 104.6360565  37.4193982  98.2692098 105.1996205
  38.1890061  98.4194452 105.2066916  27.5790401  95.9866937 115.6174247
  27.3965974  95.9613823 114.7646539  28.3140070  96.4565875 115.6563156
  27.6604465  96.0528299 115.4972165  43.6490075  96.2218447 112.7607134
  43.8845665  96.3663646 111.9333985  43.7979639  96.9860855 113.1538648
  43.7055879  96.3557501 112.6970738  45.4780532  95.0620113 110.5976738
  45.8088749  95.5947753 109.9916833  46.0513620  95.1159000 111.2538689
  45.6114211  95.1489681 110.6054520  40.6912421  92.9085015 111.2800318
  40.7859276  93.6474309 111.7339944  40.0671265  92.4802491 111.7134883
  40.6121451  92.9546336 111.4108466  38.9464895  96.0871228 121.9290599
  39.5203757  95.4498472 122.0839163  38.8679699  96.0875310 121.0600257
  39.0198130  95.9936339 121.8237010  27.5461312  92.8660437 115.7673313
  28.1234814  92.7296888 116.4065559  26.8475373  92.4096222 116.0218898
  27.5282333  92.7782704 115.8995603  40.9435443  94.7533755 104.5137270
  40.8615605  94.8235942 105.3792257  41.5815163  95.3163499 104.3221011
  41.0255280  94.8472726 104.6127220  34.3028614  94.5194493 113.9811797
  34.0447858  93.6866228 113.9543096  34.3577097  94.7452106 113.1404297
  34.2728392  94.4292264 113.8531933  39.3829664  86.6222944 114.0815889
  38.6785991  86.1332129 114.2399808  39.4314638  86.6345418 113.2104334
  39.2859715  86.5512592 113.9755229  33.2763326  92.0732256 114.4676691
  32.7012917  92.2324424 115.1040652  32.8999002  91.4367665 114.0045142
  33.1366138  92.0030068 114.4931250  36.9436615  90.5455605 119.3269070
  36.5551047  90.1209823 118.6721261  36.2791313  90.7937754 119.8346096
  36.7883542  90.5194326 119.3056938  46.5859884  90.3030609 112.1016900
  46.3296449  89.4910551 111.9114783  47.4289198  90.3108177 111.8747087
  46.6725909  90.1842607 112.0401717  23.0220145  91.7172330 112.4821132
  23.1080397  91.3404199 113.2634662  23.6495942  91.3432776 112.0041090
  23.1276696  91.6057812 112.5266609  40.7662976  84.2430234 116.8393054
  41.1473488  83.5608405 117.2260928  39.9626260  83.9539836 116.6568718
  40.7039438  84.0997282 116.8697110  38.0475553  94.7754209 107.5245877
  38.8616192  95.0669102 107.4128648  37.9834694  94.1214072 106.9504170
  38.1578292  94.7219404 107.4234714  44.2685043  97.4580206 121.9375452
  44.0323680  96.6268270 121.8187513  44.9128272  97.4065813 122.5230297
  44.3279714  97.3277893 122.0061346  33.9183461  98.2475727 112.6518189
  34.5557408  98.0087474 113.1969982  34.3438533  98.4512886 111.9171349
  34.0759627  98.2426737 112.6235346  34.5586276  93.4678017 106.9893078
  34.9431429  93.2485723 107.7409623  34.3097896  94.2940962 107.1194155
  34.5788349  93.5576163 107.1194155  34.7254817  86.7484432 126.7055662
  34.4108258  87.5183995 126.4425225  34.4044749  86.1854688 126.1207889
  34.6313736  86.7794701 126.5797012  45.2921464  97.2424654 118.0003747
  44.9867281  97.9752711 118.3617062  44.5727679  96.8362584 117.7196533
  45.1408806  97.2906387 118.0116884  36.3004933  98.7248149 114.3311975
  36.3743941  98.5623321 115.1853825  37.1174439  98.9138339 114.0872457
  36.4321292  98.7284892 114.4210001  50.9923256  93.8817655 117.3272091
  50.9247756  93.9013614 116.4574678  50.9778918  94.7247982 117.5527762
  50.9802012  94.0091390 117.2324568  30.0610690  99.0706012 111.3606419
  29.2348807  99.3167749 111.2340697  30.1222681  98.9918093 112.2268477
  29.9484857  99.0950961 111.4695363  32.2786713  85.1374953 112.3201859
  31.4109139  85.2097553 112.3859468  32.5661918  85.9397032 112.5089834
  32.1926462  85.2669100 112.3576625  41.4019602  85.2852813 120.6513181
  42.1473194  85.0962623 120.2376606  40.9856907  85.8111051 120.0927037
  41.4504576  85.3354958 120.5077754  34.8409519 101.6882893 109.0625448
  35.1307817 101.2971874 108.3384675  35.5713000 101.8699597 109.5030724
  34.9916403 101.6576706 109.0208255  48.7781873  92.6562041 115.6018685
  49.3289795  92.0230110 115.8415778  48.7625988  93.1877434 116.2934190
  48.8567069  92.6410989 115.7397544  35.4304264  96.4900638 120.1478579
  34.9315958  97.2016406 120.2263467  36.2404488  96.8101305 120.1096741
  35.4760371  96.6427487 120.1535147  32.7815434 103.6650275 112.1285598
  32.5615730 103.3747630 112.9212265  32.5609956 103.0065230 111.6003511
  32.7163029 103.5249983 112.1674507  31.6932382  95.7523591 114.3941300
  31.4045630  95.1261063 114.9287027  32.5615730  95.6943879 114.4605980
  31.7792633  95.6511136 114.4832254  42.4810279  90.8958375 114.7123282
  42.1375045  90.1748710 115.0630531  42.5803322  90.6872226 113.8701640
  42.4452322  90.7582578 114.6394962  34.9483390 105.0379665 110.9116291
  35.6007448 104.5056107 111.1407317  34.2508999 104.6848317 111.2984165
  34.9414108 104.9069188 111.0028458  31.8964655  97.3918843 110.3183665
  32.6510623  97.7731882 110.5319127  31.3035268  97.8429986 110.7730361
  31.9201368  97.5147670 110.4166543  42.9423308  97.3584079 110.2547270
  43.5081341  98.0177289 110.1705813  42.2951212  97.7033777 110.7263672
  42.9302065  97.5066020 110.3120026  34.3571322  89.3481683 125.4440877
  33.5471098  89.6539463 125.3330719  34.8346009  90.0687265 125.5593461
  34.3074801  89.4996284 125.4447948  33.2162882  98.5627404 115.6923780
  32.6943635  98.7027696 116.3775645  33.6036902  97.8038068 115.8825898
  33.1966582  98.4712928 115.8224857  30.2054066  88.6133213 109.7618735
  29.9178861  88.2434483 109.0250682  30.8924534  89.0828068 109.5002440
  30.2642963  88.6280182 109.6133811  39.4129886 100.3022863 109.6784349
  39.1716562  99.5690724 109.2711414  39.5931219 100.8509720 109.0250682
  39.4037510 100.2745254 109.5214572  34.6429207  95.5931423 111.0905271
  34.4471990  96.2006157 110.4965574  34.8663553  94.8999367 110.6096945
  34.6463848  95.5808948 110.9321352  33.0407737  92.4786161 111.2086140
  33.7630389  92.6427319 110.7489946  32.5615730  93.1995826 111.1025479
  33.0771468  92.6084390 111.1251754  41.0001245  88.8149960 116.5882825
  40.1612345  88.8411238 116.3521088  41.0705612  89.4620695 117.1688171
  40.8869638  88.9146085 116.6391941  39.4470523  85.7135337 111.3210441
  40.1496876  85.5143085 110.8430399  39.1814712  84.9411279 111.6279284
  39.5117155  85.5698303 111.2955882  44.8758769  94.0217946 113.8744066
  44.7892743  94.1773372 114.7278845  44.4209248  94.6656022 113.5003471
  44.7962025  94.1393701 113.9451173  27.7782260  89.3914425 110.6104016
  27.8798397  90.1940586 110.9384991  28.5738147  89.1901761 110.3127097
  27.9110166  89.4800324 110.6139371  34.2099079  86.9770622 120.3741321
  34.0182276  86.9925756 121.2240745  35.0597675  87.1734296 120.3507976
  34.3074801  87.0084973 120.4964616  28.5945992  89.5061603 118.3525138
  28.4531484  88.6545544 118.4769646  28.8786556  89.5490264 117.5287344
  28.6153838  89.3861353 118.2492762  38.7484585  91.3428693 112.4969626
  38.5019299  91.2624444 113.3306415  39.0769708  90.5582161 112.3032153
  38.7605828  91.2154959 112.5917149  42.6432633  98.0512053 116.2856407
  42.5046993  98.7493099 116.7905149  41.8632631  97.8960709 115.9292589
  42.5075860  98.1312219 116.3082681  40.9810719  94.3508428 122.5378789
  40.9758757  93.4788245 122.5421215  41.6871712  94.5496597 122.0648244
  41.0855723  94.2512302 122.4685824  34.7081612  94.0785412 121.9092609
  34.8524988  94.6586620 121.2735719  35.0557260  94.4561709 122.6142464
  34.7809073  94.2206116 121.9191604  36.8801529  93.2775580 119.6917741
  36.1324843  93.4706595 119.2866019  37.0343054  92.4520800 119.4541862
  36.7923957  93.1840692 119.5963146  44.1386006  97.4090307 107.0472906
  43.7592815  96.6227445 107.0402196  43.4752252  97.9577164 106.9044551
  43.9844481  97.3735131 107.0253703  37.1203306  87.1726131 120.5813144
  37.5775920  87.9050105 120.7085936  37.1959635  86.7492596 121.3400400
  37.1994276  87.2183369 120.7114221  29.3636297  87.4191951 121.6702588
  28.8278487  86.8072309 121.9863355  29.4254062  87.9940087 122.3236255
  29.2931930  87.4138879 121.8138015  41.5930632  80.3516006 114.4506987
  41.7114200  80.8092470 113.7174290  41.4192808  79.5461268 114.1643205
  41.5849803  80.3009778 114.3007921  36.9632914 100.9603826 110.8861733
  37.7282806 100.6913469 110.5644397  36.8611004 100.4753836 111.6031795
  37.0614410 100.8493390 110.9441560  34.9985684  89.1628235 117.4254968
  34.2081759  88.9819695 117.7472304  35.3946307  88.3855188 117.4085263
  34.9402560  89.0215696 117.4707517  39.4851575  97.9916009 102.8661682
  40.2524560  98.0516134 102.4567534  39.0382884  97.4196451 102.3818000
  39.5325002  97.9152585 102.7339392  40.3829370  96.7970665 115.1514414
  39.7074372  96.5655897 115.6527801  40.3921747  96.1891848 114.5256519
  40.2847875  96.6729590 115.1330566  37.5123514  91.6388494 121.9078467
  37.4482656  92.4998451 121.7798604  37.6520702  91.3220487 121.1074018
  37.5238985  91.7188661 121.7706680  42.3846105  99.6535798 107.3824592
  42.4665942 100.4602784 107.0586043  42.8695847  99.6731757 108.1065366
  42.4683263  99.7756460 107.4411491  36.1942608  94.3320634 116.0494670
  35.7704857  94.5325133 115.3133688  36.0187464  93.4849482 116.1618970
  36.1053489  94.2369415 115.9568360  31.4825053  94.8272685 111.4822643
  31.6389672  94.7619488 112.3378635  31.8225646  95.6021238 111.2701322
  31.5558288  94.9321883 111.5777237  38.0204198  94.2030569 110.3516006
  38.5619743  93.7000950 110.8154626  38.3350757  94.1495763 109.5405491
  38.1468595  94.1209989 110.2999818  36.1890648  99.5947920 107.6356034
  36.2583468  98.7362459 107.7749034  36.9679103  99.8119801 107.3075058
  36.3143498  99.5000784 107.6073191  39.1693467  89.0966873 120.4038306
  39.3835437  88.4577787 119.8501660  38.5527366  89.5412697 119.9746168
  39.1098797  89.0677017 120.2588737  40.5798135 102.0185621 111.8492527
  40.1877927 101.7152337 111.1315393  40.7351207 102.8554711 111.6597481
  40.5451725 102.0969458 111.7149024  28.0559315  92.0107635 111.7983410
  28.4358280  92.4292180 111.1343677  27.4814680  92.5921091 112.1052253
  28.0270640  92.1585494 111.7460151  41.3332555  90.7055938 121.3421613
  40.5209237  90.3981829 121.4234786  41.7922490  90.2254938 121.9064326
  41.2812940  90.5892431 121.4376208  40.7437810  98.5835610 111.7898558
  40.3852465  98.7550253 112.5662590  40.2576521  99.0448816 111.2326556
  40.6196507  98.6774581 111.8223827  38.5608196  82.2066809 115.3925649
  37.6901754  82.1805530 115.3458959  38.8148537  82.0344001 114.5751495
  38.4701756  82.1776952 115.2645786  35.5326175  94.2634776 104.3298792
  35.8218700  95.0399658 104.6042366  35.6197974  93.7523507 105.0313291
  35.5880432  94.3026694 104.4741290  38.4286063  92.1116010 126.1250316
  38.8985694  92.7358126 126.5118190  38.4747943  91.4432985 126.6843530
  38.5053939  92.1050690 126.2650387  35.5857336  84.2173037 116.8499119
  35.0695825  83.5253229 116.9750698  35.0251265  84.8843814 116.7961718
  35.4263850  84.2136295 116.8605185  37.6549570  84.7565997 118.6791972
  37.2681323  84.7815029 119.4605502  37.1682507  84.1907676 118.2266489
  37.5262079  84.6761748 118.7279876  41.9042549  99.4739506 122.7365759
  42.5422270  98.9799702 122.4028215  41.2616641  99.4016907 122.1517985
  41.9036776  99.3898515 122.6008114  43.6299549  91.3228652 117.3031674
  43.2027157  91.2355001 116.5479774  42.9925602  91.4306428 117.8886518
  43.4729157  91.3261312 117.2777116  37.3206712  81.6432983 120.9702232
  37.9499830  82.1793283 120.6923302  37.4892574  81.5510342 121.8215798
  37.4384506  81.7094345 121.0550760  37.1220627  86.4304177 123.2428644
  37.9494056  86.1589326 123.2987258  37.1428473  87.2265019 123.5992462
  37.2473477  86.5083932 123.3043826  41.9596806 100.1659314 119.3771115
  42.7489184  99.8148379 119.4973197  42.1340404 100.9795703 119.1147749
  42.1017088 100.2345172 119.3558983  31.6990116  93.5768040 116.4298904
  30.8578123  93.4771914 116.6377798  31.9080124  94.3463520 116.7813225
  31.6054809  93.6760084 116.5126219  29.1765683  91.1987577 114.2583655
  28.7822381  91.2730589 113.4833765  28.6205800  91.5845524 114.8092017
  29.0368496  91.2669352 114.2251315  40.8130630  84.1768871 113.9387534
  41.0180223  84.1091179 114.7844531  40.4857054  84.9827692 113.8708711
  40.7945878  84.2854812 114.0547189  35.5106781  91.5049439 115.6796502
  35.2069919  90.9505428 116.2806909  34.8086202  91.6841649 115.1924536
  35.3622991  91.4494222 115.6966207  34.5672878  88.8149959 110.2441204
  34.8432613  88.0968872 109.8318771  35.1671548  89.4134879 110.0362310
  34.6966143  88.7970330 110.1521965  44.0664318  84.7300635 113.4190299
  43.4538631  85.2171038 113.8044031  44.1628493  84.0544126 113.9627950
  43.9902215  84.7018944 113.5569157  38.0683399  86.4863477 108.5187799
  38.5227145  86.6574037 109.2435643  38.5423445  85.8731587 108.1185574
  38.2051719  86.4214362 108.5661560  31.5898924  95.9711803 117.8490537
  30.9986857  96.6121301 117.8193552  32.3519948  96.3949420 117.8221837
  31.6147185  96.1287641 117.8405684  31.9859547  87.1313800 118.5158555
  32.4461029  87.2052730 119.2533678  32.0315654  87.9295054 118.1658376
  32.0610102  87.2607947 118.5731311  33.6342897  87.7980495 123.0830582
  33.2428462  87.1513842 123.5186360  33.8028759  88.3891930 123.7024837
  33.6013807  87.7894763 123.2393288  47.7089346  95.8017572 118.8467815
  47.7672469  96.2504221 119.5927792  47.0755813  96.2116385 118.4097895
  47.6240641  95.9291307 118.8920364  41.3488440 101.4221114 115.2822562
  41.1508129 101.9111929 114.5878773  40.7276152 101.6262356 115.8606695
  41.2276005 101.5237652 115.2645785  35.4096419  93.1906011 109.6232806
  36.1538464  93.5780287 109.8615756  35.5557115  92.3463436 109.7873294
  35.5407004  93.1236484 109.6826776  37.3275994  84.9856270 114.6564667
  36.4812039  85.1579078 114.5306017  37.3247127  84.1805614 114.9930496
  37.2023144  84.8917299 114.6875794  38.3974295  88.7631484 115.5226725
  37.9234249  88.2373246 116.0332036  38.7692430  88.2160957 114.9541587
  38.3824184  88.6047481 115.5141872  28.7747325  90.7602991 120.8910271
  29.6372938  90.6598700 120.8047601  28.4439108  90.1797700 120.3295843
  28.8532521  90.6594618 120.7955677  44.6611025  93.8233860 116.9333506
  44.4209248  92.9840275 116.9375932  45.1403032  93.9034027 117.6574279
  44.6963209  93.7115260 117.0408308  40.3257794  89.6568039 108.5852479
  39.7980813  89.7396783 107.8958188  40.7853502  90.3985910 108.5817124
  40.3159645  89.7788701 108.4827174  46.6616212  90.6035317 114.8862765
  46.4225982  90.5631151 114.0483549  46.8250114  91.4506469 115.0128486
  46.6506516  90.7227402 114.7816247  43.2662242  94.9885266 120.8167810
  43.9896441  94.5357793 120.6378830  43.0012205  95.2689932 120.0340138
  43.3343516  94.9636235 120.6746525  32.1349111  89.5845440 117.5520689
  31.5102181  89.5963832 116.9446642  31.7994706  90.0605615 118.2011929
  31.9934603  89.6563957 117.5577258  32.3190859  87.9270558 103.6093374
  31.9703664  88.5790284 104.0724923  31.8387305  87.9127671 102.8817245
  32.1961103  88.0213612 103.5704465  39.8794877  98.2271602 107.7162136
  40.6029076  98.6929715 107.5726709  39.4395468  98.2945212 106.9659733
  39.9210569  98.3055439 107.5846917  39.0481032  95.0869145 118.9662825
  38.4338025  94.5427195 119.2611460  39.5648317  94.5733381 118.4868641
  39.0336694  94.9305554 118.9387053  38.2877329  96.1573415 116.7007124
  37.8604937  95.5323133 116.2672559  38.2802273  95.8748337 117.5266131
  38.2236470  96.0226195 116.7586951  31.4039856  91.1938588 119.7695558
  31.5633343  90.4381912 120.1747280  31.2232750  91.7429527 120.4236295
  31.4005215  91.1632401 119.9258264  39.3460159  83.3599823 120.3246347
  38.8500720  83.5563498 119.6337914  40.1029221  83.7592492 120.1535149
  39.3846984  83.4477557 120.1966484  36.6163039  87.0342169 116.9149658
  36.6405526  86.5002282 116.2262438  36.8674512  86.5259478 117.5775248
  36.6572957  86.8803073 116.9114302  32.8964361  85.7612987 116.2955402
  32.9362733  86.2622194 117.0090109  32.0714026  85.8523381 116.0261325
  32.7803887  85.8494804 116.3605940  34.3178724  92.2773497 118.5929301
  33.4870654  92.4447315 118.3864549  34.2630242  91.9009448 119.3778186
  34.1868139  92.2463229 118.6777829  32.1262508  85.7682390 124.2285712
  32.7515211  85.2244523 124.5015144  31.6712988  85.2877308 123.6593502
  32.1510768  85.6171872 124.1847305  32.6914768  90.5529089 109.1219419
  32.8317729  91.0501553 109.8248060  33.1897301  89.8515383 109.2633632
  32.7855849  90.5231068 109.2470998  32.7214991  91.4196200 106.4511995
  33.3560070  92.0156625 106.3861457  32.8040601  91.1199657 107.2657866
  32.8271542  91.4637108 106.5615082  45.6997556  93.9511677 119.3198360
  46.2915397  94.5908928 119.3516558  46.1356551  93.2534714 119.6090426
  45.8515988  93.9430028 119.3679192  34.2993973  87.3510175 106.4257437
  34.6209815  86.8713258 105.7716700  34.5620917  88.1609821 106.2348249
  34.3859999  87.4000073 106.3012930  37.5290946  98.3729050 119.9456254
  37.0216037  98.9264896 120.3896884  37.2317592  98.4337339 119.1275028
  37.4095831  98.4635361 119.8904710  39.6953128  86.7382369 118.7880917
  40.1208200  86.2854896 118.1764443  39.0810122  86.1842440 119.0645704
  39.6681774  86.5896345 118.7385942  29.2267978  93.6164041 109.7201542
  29.7360208  94.2128548 110.1012847  29.7002251  93.3490014 109.0377961
  29.3711354  93.6649856 109.6756064  40.1398727 102.2892307 107.8760197
  39.4228036 102.1153170 107.4107434  40.7905464 102.0544880 107.3435683
  40.1300577 102.2288100 107.7289415  38.1347351  83.2097469 112.1971494
  37.4915669  83.0595115 112.7656632  37.7946758  82.9639814 111.4320598
  37.9892429  83.1509591 112.1674509  42.7246698  91.1656896 111.6201502
  42.0537888  91.7086598 111.4914568  43.4186448  91.6351751 111.3783197
  42.7275565  91.3155167 111.5657030  36.7733431 103.3053608 116.8513260
  36.5499086 102.5472437 117.2197287  36.2843275 103.3351629 116.1293700
  36.6676881 103.1975832 116.7990001  42.8874825  87.6212779 114.5291875
  43.2402435  87.1942502 115.2037674  42.0289627  87.5363623 114.6592952
  42.8124270  87.5457520 114.6486886  31.5858510  90.2520299 112.5874722
  30.8670499  90.6684432 112.8547585  31.9570872  90.8174538 112.0366360
  31.5350442  90.3969581 112.5457529  40.8858091  90.8848148 118.4776718
  40.8656018  90.7031443 119.3311496  40.9337292  91.7560167 118.4536301
  40.8892732  90.9864686 118.6000012  38.8304421  97.4735340 124.4025194
  38.7900276  96.8285017 123.8170350  39.6427739  97.4171957 124.7150606
  38.9447574  97.3694307 124.3622143  35.4211888 103.5254066 114.3050345
  35.0072287 102.8628196 113.9154187  36.1059263 103.6731925 113.7846039
  35.4610260 103.4494724 114.1706842  38.7877183 102.6844151 115.0573962
  38.3893466 102.7946422 114.2894782  38.1728402 102.8926218 115.6400521
  38.6376072 102.7317719 115.0305261  37.3605085  89.2918299 107.9248101
  36.7669924  89.6135296 107.3732668  37.3980362  88.4459394 107.7169208
  37.2779474  89.2142627 107.8130873  44.3198885  82.7431191 115.4576188
  43.8129750  82.0360331 115.3897365  45.1166319  82.4124380 115.5877264
  44.3626125  82.5904343 115.4675183  40.2362901  89.2497804 111.3549852
  40.0076594  89.2730505 110.5128210  40.4960977  88.4255271 111.4744862
  40.2409089  89.1313884 111.2475049  34.5182130  91.1032277 120.9574952
  34.0061033  90.4953460 121.3159983  34.3461626  91.8188869 121.4248928
  34.4171767  91.1195576 121.0791175  33.2907664  87.7874350 112.6504047
  33.7665030  88.1491430 112.0154228  32.7896263  88.4430817 112.9304190
  33.2873023  87.9368539 112.5980788  46.5219025  97.2596118 108.4417052
  46.9052631  98.0087474 108.6715149  45.7263139  97.5061938 108.1829041
  46.4612807  97.4065812 108.4374626  38.3951200  89.0256521 123.3977207
  38.9522630  88.7970331 122.7655673  38.0712265  89.7862187 123.1212420
  38.4297610  89.1040358 123.2633704  36.1134317  92.1124175 124.3629215
  36.8645644  92.4275851 124.6768769  36.3056894  91.9103345 123.5363136
  36.2525731  92.1291556 124.2872610  35.3334317  89.9315550 106.0177431
  35.7133282  89.9495179 105.2328546  34.5926913  90.3769538 105.8968279
  35.2803155  89.9997324 105.8840999  42.9619607  88.2397741 111.6053010
  42.9613834  88.0846397 112.4637286  42.7575787  89.0860728 111.5494396
  42.9319385  88.3418362 111.7240949  25.0236878  91.6637525 116.0211827
  24.8458639  91.2114134 116.7466742  24.7355900  92.4663687 116.2050304
  24.9549831  91.7160083 116.1555329  40.6860459  92.9195243 115.2589217
  41.1814125  92.2018238 115.2193237  39.8760235  92.6166040 115.1443704
  40.6404353  92.7692889 115.2362943  36.1319071  96.7693056 107.4086221
  35.3230394  96.4459729 107.3619531  36.6393980  96.0626278 107.3414470
  36.0868738  96.6174372 107.3916516  26.7609348  94.1965249 113.1333586
  25.8954868  94.1850939 113.0216357  26.8608164  94.0095472 113.9804725
  26.6483515  94.1671310 113.2422530  42.7512278  95.6698930 117.9466346
  43.1767350  95.1473352 117.3936771  42.3869198  96.2679768 117.4254969
  42.7598881  95.6809157 117.7875355  39.3390878  99.3833194 114.2767503
  39.8102056 100.0973457 114.4457488  39.6751056  98.7831945 114.8127373
  39.4585993  99.4004659 114.3799879  36.2560373  84.1560665 121.2325598
  36.3888278  83.3591658 121.5606573  36.6405525  84.6827068 121.8123873
  36.3316702  84.1160582 121.3669101  39.9764824  99.1751129 121.0395196
  39.4285770  98.5509012 120.7715261  40.4377853  99.3645401 120.3239275
  39.9632033  99.1110179 120.8945627  39.3292728  81.0790991 117.8306691
  38.5238692  80.9688721 118.1474529  39.1999463  81.1803447 116.9736557
  39.1912861  81.0774661 117.7514731  42.7858688  87.2436483 118.4246388
  42.2021677  87.7445690 118.0123955  43.1062982  86.7366039 117.7910711
  42.7471864  87.2428318 118.2704895  35.3253488  86.1577078 108.7005063
  36.1469182  86.3275391 108.4586758  34.8623138  86.3124339 107.9771360
  35.3784650  86.2058811 108.5576707  33.9148819  84.1519840 119.4803492
  34.4593232  83.8110967 120.0707833  33.9685755  85.0105302 119.6224776
  34.0037939  84.2275099 119.5885365  29.7279378  97.9136256 116.3542299
  30.3324236  97.8732090 115.7256120  29.5206691  98.7607408 116.3846355
  29.7868275  98.0324259 116.2658416  39.5423150 100.1802201 117.5704537
  40.3621524 100.0365167 117.8320832  39.2617228 100.8048400 118.1120975
  39.6219894 100.2512553 117.6892476  56.0136801 107.8367053 110.5347413
  55.9830805 108.6911690 110.7065683  56.6118149 107.5362346 111.0933557
  56.0973959 107.9183550 110.6422216  49.2136486 106.9242704 115.2900344
  48.3574381 107.0851202 115.3409460  49.2604139 106.0534768 115.3105405
  49.0935597 106.8193506 115.3006410  43.5977625 116.4605422 111.0537575
  42.8460525 116.0820960 110.8253620  44.0463637 116.4923855 110.3056386
  43.5527292 116.4091029 110.9095077  49.0502585 116.8830791 106.4823122
  48.7153954 117.5607713 106.0467344  49.5629456 116.4936103 105.8939994
  49.0768166 116.9255370 106.3309914  48.5906876 118.8345060 112.4234234
  48.9746256 119.4031959 111.8839009  48.5266018 118.1094570 111.9440050
  48.6380304 118.8120523 112.2728096  45.1762381 116.4723814 113.3200348
  45.2772744 115.6624168 113.6297475  44.5804127 116.3780760 112.6900026
  45.1034920 116.3388842 113.2726586  53.8353375 110.4119355 108.8065723
  53.7192901 111.1627041 109.2357861  54.6309262 110.1543308 109.0561810
  53.9357965 110.4854202 108.9069815  38.3727426 112.4944101 112.9452681
  38.1377610 111.6611753 112.8384950  38.5113066 112.7748766 112.1313882
  38.3583088 112.4127604 112.8095036  40.6717513 104.6629831 115.8436989
  40.0522545 104.0722478 115.6747004  40.5701377 105.2541266 115.2101312
  40.5655189 104.6633914 115.7241979  45.7183701 114.4013378 110.0935065
  46.0399542 114.9418585 109.4896374  46.3655797 113.8310149 110.2257355
  45.8609756 114.3972553 110.0242101  47.7685409 106.4029373 110.1769452
  48.4665574 106.5817500 110.6690915  48.0837741 105.8799712 109.5539842
  47.9180746 106.3523145 110.1571462  40.3986646 108.2082113 118.0880558
  40.2745343 108.7944558 118.7230377  41.0504931 107.7142309 118.3892833
  40.4760296 108.2220917 118.2266487  47.9573344 112.7899818 110.1649244
  48.3966980 112.1816918 110.6104016  47.8078007 112.4107191 109.3934709
  47.9994810 112.6438289 110.1168411  45.4244987 111.3843830 117.3668069
  46.0693990 110.8916273 117.0479018  45.6646764 111.5268616 118.1934147
  45.5555572 111.3321272 117.4417602  45.9412272 101.7721770 114.2590727
  45.6115602 102.2232913 113.5894426  45.2657274 101.6937933 114.8063733
  45.7922709 101.8272905 114.2413950  51.5582681 111.1426999 107.1180013
  51.4733976 111.9987966 107.2629582  52.0467064 110.8671323 107.7862172
  51.6171578 111.2284321 107.2382094  53.1488680  97.7607292 112.5040337
  52.8342121  98.4510771 112.9360760  52.6315622  97.7052075 111.8025838
  53.0253151  97.8542181 112.4637287  52.4901114 107.7611793 108.6177748
  51.9612585 107.9771427 109.2775054  53.0126134 108.4547932 108.5378717
  52.4889567 107.8954930 108.7033347  44.3800722 111.6575010 107.4185216
  43.7957937 112.1625042 107.8251080  43.9770817 111.4317397 106.6781808
  44.2340026 111.6983259 107.3690241  48.8377936 107.9040662 105.8954137
  49.0773940 108.1118646 105.0829480  49.1593777 107.0998171 106.0043081
  48.9215094 107.8154764 105.7914690  44.1468226  99.8334058 109.7413675
  44.9014195 100.2012375 109.5030725  43.9695761 100.2073612 110.5092854
  44.2322705  99.9432246 109.8198563  42.7888948 117.8885947 114.3729167
  43.4909527 117.3737936 114.4301924  42.7086431 118.2160099 115.1776043
  42.8812708 117.8600173 114.5001960  42.5025291 102.2404377 106.4391788
  42.3200864 102.4576258 105.6132780  43.3650904 102.3543390 106.4950402
  42.6029881 102.2894275 106.3246275  42.1139723 114.0792299 113.8814775
  42.9528622 114.3115232 113.9288537  42.1451492 113.2096611 113.8121811
  42.2421441 113.9849246 113.8779420  48.1825010  99.2430788 109.4740811
  48.9111171  99.0646743 109.0278968  48.2719903 100.0848867 109.6847989
  48.3031672  99.3414666 109.4394329  52.1633311 110.1784175 113.3773105
  52.9190826 110.6115689 113.4162014  52.2695635 109.5288945 113.9507741
  52.2903482 110.1461659 113.4671131  55.1210965 101.0471280 116.3704936
  55.7636873 101.1169385 116.9566852  55.3733986 100.3800503 115.8684478
  55.2533097 100.9597629 116.3832215  42.0487318 105.5178550 104.9514261
  41.3345495 105.2316729 105.3636693  42.5331287 105.8575175 105.5920648
  42.0146681 105.5260199 105.1069896  42.8928178 104.2571844 120.9829510
  42.1999974 103.7868823 121.2290242  43.5088505 104.0310148 121.5571217
  42.8812707 104.1538975 121.1038663  58.3357828 110.7238372 113.0195146
  58.9974262 110.1629041 112.9191054  57.6949240 110.2290403 113.3447837
  58.3386696 110.5674781 113.0527486  49.2234636 114.0208504 105.3276069
  49.6385785 113.6893527 104.6360565  48.3926566 113.7877406 105.1996205
  49.1622645 113.9379760 105.2066916  38.5522985 111.5052245 115.6174247
  38.3698558 111.4799131 114.7646539  39.2872654 111.9751182 115.6563156
  38.6337049 111.5713607 115.4972165  54.6222659 111.7403755 112.7607134
  54.8578248 111.8848954 111.9333985  54.7712223 112.5046163 113.1538648
  54.6788462 111.8742809 112.6970738  56.4513116 110.5805421 110.5976738
  56.7821333 111.1133061 109.9916833  57.0246204 110.6344308 111.2538689
  56.5846795 110.6674989 110.6054520  51.6645005 108.4270323 111.2800318
  51.7591859 109.1659617 111.7339944  51.0403848 107.9987799 111.7134883
  51.5854035 108.4731644 111.4108466  38.5193895 108.3845745 115.7673313
  39.0967398 108.2482196 116.4065559  37.8207957 107.9281529 116.0218898
  38.5014917 108.2968012 115.8995603  51.9168026 110.2719063 104.5137270
  51.8348189 110.3421250 105.3792257  52.5547747 110.8348807 104.3221011
  51.9987864 110.3658034 104.6127220  45.2761197 110.0379801 113.9811797
  45.0180442 109.2051536 113.9543096  45.3309680 110.2637414 113.1404297
  45.2460975 109.9477572 113.8531933  50.3562247 102.1408252 114.0815889
  49.6518574 101.6517437 114.2399808  50.4047222 102.1530726 113.2104334
  50.2592299 102.0697900 113.9755229  44.2495909 107.5917563 114.4676691
  43.6745501 107.7509732 115.1040652  43.8731586 106.9552973 114.0045142
  44.1098722 107.5215376 114.4931250  47.9169198 106.0640913 119.3269070
  47.5283631 105.6395130 118.6721261  47.2523896 106.3123062 119.8346096
  47.7616126 106.0379634 119.3056938  57.5592467 105.8215917 112.1016900
  57.3029032 105.0095859 111.9114783  58.4021781 105.8293485 111.8747087
  57.6458493 105.7027915 112.0401717  33.9952728 107.2357638 112.4821132
  34.0812980 106.8589507 113.2634662  34.6228526 106.8618084 112.0041090
  34.1009279 107.1243120 112.5266609  51.7395560  99.7615542 116.8393054
  52.1206071  99.0793713 117.2260928  50.9358844  99.4725144 116.6568718
  51.6772021  99.6182590 116.8697110  49.0208136 110.2939517 107.5245877
  49.8348775 110.5854410 107.4128648  48.9567278 109.6399380 106.9504170
  49.1310875 110.2404712 107.4234714  44.8916045 113.7661035 112.6518189
  45.5289992 113.5272782 113.1969982  45.3171116 113.9698194 111.9171349
  45.0492211 113.7612045 112.6235346  45.5318860 108.9863325 106.9893078
  45.9164012 108.7671031 107.7409623  45.2830480 109.8126270 107.1194155
  45.5520932 109.0761471 107.1194155  47.2737517 114.2433457 114.3311975
  47.3476525 114.0808629 115.1853825  48.0907023 114.4323647 114.0872457
  47.4053875 114.2470200 114.4210001  41.0343273 114.5891320 111.3606419
  40.2081391 114.8353057 111.2340697  41.0955264 114.5103401 112.2268477
  40.9217440 114.6136269 111.4695363  43.2519297 100.6560261 112.3201859
  42.3841722 100.7282861 112.3859468  43.5394501 101.4582340 112.5089834
  43.1659045 100.7854408 112.3576625  52.3752186 100.8038121 120.6513181
  53.1205778 100.6147931 120.2376606  51.9589490 101.3296359 120.0927037
  52.4237160 100.8540266 120.5077754  45.8142102 117.2068200 109.0625448
  46.1040401 116.8157182 108.3384675  46.5445583 117.3884905 109.5030724
  45.9648987 117.1762014 109.0208255  43.7548018 119.1835583 112.1285598
  43.5348313 118.8932938 112.9212265  43.5342540 118.5250538 111.6003511
  43.6895612 119.0435291 112.1674507  42.6664965 111.2708899 114.3941300
  42.3778214 110.6446371 114.9287027  43.5348313 111.2129187 114.4605980
  42.7525217 111.1696444 114.4832254  53.4542863 106.4143683 114.7123282
  53.1107629 105.6934018 115.0630531  53.5535905 106.2057534 113.8701640
  53.4184906 106.2767886 114.6394962  45.9215974 120.5564973 110.9116291
  46.5740032 120.0241415 111.1407317  45.2241582 120.2033625 111.2984165
  45.9146692 120.4254496 111.0028458  42.8697238 112.9104150 110.3183665
  43.6243206 113.2917190 110.5319127  42.2767851 113.3615294 110.7730361
  42.8933952 113.0332978 110.4166543  53.9155892 112.8769387 110.2547270
  54.4813925 113.5362597 110.1705813  53.2683795 113.2219085 110.7263672
  53.9034648 113.0251328 110.3120026  44.1895465 114.0812712 115.6923780
  43.6676219 114.2213003 116.3775645  44.5769485 113.3223376 115.8825898
  44.1699166 113.9898236 115.8224857  41.1786649 104.1318521 109.7618735
  40.8911445 103.7619791 109.0250682  41.8657117 104.6013376 109.5002440
  41.2375546 104.1465490 109.6133811  50.3862470 115.8208171 109.6784349
  50.1449146 115.0876032 109.2711414  50.5663803 116.3695028 109.0250682
  50.3770094 115.7930562 109.5214572  45.6161791 111.1116731 111.0905271
  45.4204573 111.7191465 110.4965574  45.8396136 110.4184675 110.6096945
  45.6196432 111.0994256 110.9321352  44.0140321 107.9971469 111.2086140
  44.7362973 108.1612627 110.7489946  43.5348313 108.7181134 111.1025479
  44.0504051 108.1269698 111.1251754  51.9733828 104.3335268 116.5882825
  51.1344929 104.3596546 116.3521088  52.0438196 104.9806003 117.1688171
  51.8602222 104.4331393 116.6391941  50.4203107 101.2320645 111.3210441
  51.1229459 101.0328393 110.8430399  50.1547295 100.4596587 111.6279284
  50.4849739 101.0883611 111.2955882  55.8491352 109.5403254 113.8744066
  55.7625327 109.6958680 114.7278845  55.3941832 110.1841330 113.5003471
  55.7694609 109.6579009 113.9451173  38.7514844 104.9099733 110.6104016
  38.8530980 105.7125894 110.9384991  39.5470730 104.7087069 110.3127097
  38.8842749 104.9985632 110.6139371  45.1831663 102.4955930 120.3741321
  44.9914860 102.5111064 121.2240745  46.0330259 102.6919604 120.3507976
  45.2807385 102.5270281 120.4964616  39.5678576 105.0246911 118.3525138
  39.4264068 104.1730852 118.4769646  39.8519139 105.0675572 117.5287344
  39.5886422 104.9046661 118.2492762  49.7217168 106.8614001 112.4969626
  49.4751882 106.7809752 113.3306415  50.0502291 106.0767469 112.3032153
  49.7338412 106.7340267 112.5917149  55.1118590 112.9275615 107.0472906
  54.7325399 112.1412752 107.0402196  54.4484835 113.4762472 106.9044551
  54.9577065 112.8920439 107.0253703  48.0935890 102.6911439 120.5813144
  48.5508504 103.4235413 120.7085936  48.1692219 102.2677904 121.3400400
  48.1726860 102.7368677 120.7114221  40.3368881 102.9377259 121.6702588
  39.8011071 102.3257617 121.9863355  40.3986646 103.5125395 122.3236255
  40.2664514 102.9324187 121.8138015  52.5663216  95.8701314 114.4506987
  52.6846784  96.3277778 113.7174290  52.3925391  95.0646576 114.1643205
  52.5582387  95.8195086 114.3007921  47.9365498 116.4789134 110.8861733
  48.7015389 116.2098777 110.5644397  47.8343588 115.9939144 111.6031795
  48.0346993 116.3678698 110.9441560  45.9718268 104.6813543 117.4254968
  45.1814343 104.5005003 117.7472304  46.3678891 103.9040496 117.4085263
  45.9135144 104.5401004 117.4707517  50.4584159 113.5101317 102.8661682
  51.2257144 113.5701442 102.4567534  50.0115468 112.9381759 102.3818000
  50.5057586 113.4337893 102.7339392  51.3561954 112.3155973 115.1514414
  50.6806956 112.0841205 115.6527801  51.3654330 111.7077156 114.5256519
  51.2580459 112.1914898 115.1330566  53.3578689 115.1721106 107.3824592
  53.4398526 115.9788092 107.0586043  53.8428431 115.1917065 108.1065366
  53.4415847 115.2941768 107.4411491  47.1675192 109.8505941 116.0494670
  46.7437441 110.0510441 115.3133688  46.9920047 109.0034789 116.1618970
  47.0786073 109.7554723 115.9568360  42.4557637 110.3457993 111.4822643
  42.6122256 110.2804796 112.3378635  42.7958230 111.1206545 111.2701322
  42.5290872 110.4507191 111.5777237  48.9936782 109.7215876 110.3516006
  49.5352327 109.2186258 110.8154626  49.3083341 109.6681071 109.5405491
  49.1201179 109.6395297 110.2999818  47.1623231 115.1133228 107.6356034
  47.2316052 114.2547766 107.7749034  47.9411686 115.3305109 107.3075058
  47.2876081 115.0186092 107.6073191  50.1426051 104.6152181 120.4038306
  50.3568020 103.9763095 119.8501660  49.5259950 105.0598005 119.9746168
  50.0831380 104.5862325 120.2588737  51.5530719 117.5370929 111.8492527
  51.1610511 117.2337644 111.1315393  51.7083791 118.3740019 111.6597481
  51.5184309 117.6154766 111.7149024  39.0291898 107.5292943 111.7983410
  39.4090863 107.9477488 111.1343677  38.4547263 108.1106399 112.1052253
  39.0003223 107.6770802 111.7460151  51.7170394 114.1020918 111.7898558
  51.3585048 114.2735561 112.5662590  51.2309104 114.5634124 111.2326556
  51.5929090 114.1959889 111.8223827  49.5340780  97.7252117 115.3925649
  48.6634337  97.6990838 115.3458959  49.7881121  97.5529309 114.5751495
  49.4434340  97.6962260 115.2645786  46.5058759 109.7820084 104.3298792
  46.7951284 110.5584966 104.6042366  46.5930558 109.2708815 105.0313291
  46.5613015 109.8212002 104.4741290  46.5589920  99.7358345 116.8499119
  46.0428409  99.0438537 116.9750698  45.9983849 100.4029122 116.7961718
  46.3996433  99.7321603 116.8605185  48.6282154 100.2751305 118.6791972
  48.2413907 100.3000337 119.4605502  48.1415091  99.7092984 118.2266489
  48.4994662 100.1947056 118.7279876  54.6032133 106.8413960 117.3031674
  54.1759741 106.7540309 116.5479774  53.9658186 106.9491736 117.8886518
  54.4461740 106.8446620 117.2777116  48.2939295  97.1618291 120.9702232
  48.9232413  97.6978591 120.6923302  48.4625158  97.0695650 121.8215798
  48.4117090  97.2279653 121.0550760  42.6722700 109.0953348 116.4298904
  41.8310707 108.9957222 116.6377798  42.8812708 109.8648828 116.7813225
  42.5787393 109.1945391 116.5126219  40.1498267 106.7172885 114.2583655
  39.7554965 106.7915897 113.4833765  39.5938384 107.1030831 114.8092017
  40.0101079 106.7854660 114.2251315  51.7863214  99.6954179 113.9387534
  51.9912807  99.6276487 114.7844531  51.4589638 100.5013000 113.8708711
  51.7678462  99.8040120 114.0547189  46.4839365 107.0234747 115.6796502
  46.1802502 106.4690736 116.2806909  45.7818786 107.2026957 115.1924536
  46.3355575 106.9679530 115.6966207  45.5405462 104.3335267 110.2441204
  45.8165196 103.6154180 109.8318771  46.1404131 104.9320187 110.0362310
  45.6698727 104.3155638 110.1521965  55.0396901 100.2485943 113.4190299
  54.4271215 100.7356346 113.8044031  55.1361076  99.5729434 113.9627950
  54.9634799 100.2204252 113.5569157  49.0415982 102.0048785 108.5187799
  49.4959729 102.1759345 109.2435643  49.5156028 101.3916895 108.1185574
  49.1784303 101.9399670 108.5661560  42.5631508 111.4897110 117.8490537
  41.9719441 112.1306609 117.8193552  43.3252531 111.9134728 117.8221837
  42.5879768 111.6472949 117.8405684  42.9592131 102.6499108 118.5158555
  43.4193612 102.7238038 119.2533678  43.0048237 103.4480362 118.1658376
  43.0342686 102.7793255 118.5731311  46.3829002 108.7091319 109.6232806
  47.1271047 109.0965595 109.8615756  46.5289699 107.8648744 109.7873294
  46.5139588 108.6421792 109.6826776  48.3008578 100.5041578 114.6564667
  47.4544623 100.6764386 114.5306017  48.2979710  99.6990921 114.9930496
  48.1755728 100.4102607 114.6875794  49.3706878 104.2816792 115.5226725
  48.8966833 103.7558554 116.0332036  49.7425014 103.7346265 114.9541587
  49.3556767 104.1232789 115.5141872  39.7479908 106.2788299 120.8910271
  40.6105521 106.1784008 120.8047601  39.4171691 105.6983008 120.3295843
  39.8265105 106.1779926 120.7955677  51.2990378 105.1753347 108.5852479
  50.7713397 105.2582091 107.8958188  51.7586086 105.9171218 108.5817124
  51.2892228 105.2974009 108.4827174  57.6348796 106.1220625 114.8862765
  57.3958566 106.0816459 114.0483549  57.7982697 106.9691777 115.0128486
  57.6239099 106.2412710 114.7816247  43.1081694 105.1030748 117.5520689
  42.4834765 105.1149140 116.9446642  42.7727289 105.5790923 118.2011929
  42.9667186 105.1749265 117.5577258  43.2923443 103.4455866 103.6093374
  42.9436247 104.0975592 104.0724923  42.8119889 103.4312979 102.8817245
  43.1693687 103.5398920 103.5704465  50.8527460 113.7456910 107.7162136
  51.5761659 114.2115023 107.5726709  50.4128051 113.8130520 106.9659733
  50.8943153 113.8240747 107.5846917  42.3772440 106.7123896 119.7695558
  42.5365926 105.9567220 120.1747280  42.1965333 107.2614835 120.4236295
  42.3737799 106.6817709 119.9258264  50.3192743  98.8785131 120.3246347
  49.8233304  99.0748805 119.6337914  51.0761805  99.2777799 120.1535149
  50.3579567  98.9662865 120.1966484  47.5895622 102.5527477 116.9149658
  47.6138110 102.0187589 116.2262438  47.8407096 102.0444786 117.5775248
  47.6305541 102.3988381 116.9114302  43.8696945 101.2798295 116.2955402
  43.9095316 101.7807502 117.0090109  43.0446609 101.3708689 116.0261325
  43.7536470 101.3680112 116.3605940  45.2911308 107.7958805 118.5929301
  44.4603238 107.9632623 118.3864549  45.2362825 107.4194756 119.3778186
  45.1600723 107.7648536 118.6777829  43.0995091 101.2867698 124.2285712
  43.7247795 100.7429831 124.5015144  42.6445571 100.8062616 123.6593502
  43.1243352 101.1357179 124.1847305  43.6647352 106.0714397 109.1219419
  43.8050313 106.5686861 109.8248060  44.1629885 105.3700691 109.2633632
  43.7588433 106.0416376 109.2470998  43.6947574 106.9381508 106.4511995
  44.3292654 107.5341933 106.3861457  43.7773185 106.6384965 107.2657866
  43.8004125 106.9822416 106.5615082  45.2726557 102.8695483 106.4257437
  45.5942398 102.3898566 105.7716700  45.5353501 103.6795129 106.2348249
  45.3592582 102.9185381 106.3012930  50.6685712 102.2567677 118.7880917
  51.0940784 101.8040204 118.1764443  50.0542705 101.7027748 119.0645704
  50.6414357 102.1081653 118.7385942  40.2000562 109.1349349 109.7201542
  40.7092791 109.7313856 110.1012847  40.6734834 108.8675322 109.0377961
  40.3443938 109.1835164 109.6756064  51.1131310 117.8077615 107.8760197
  50.3960620 117.6338477 107.4107434  51.7638048 117.5730188 107.3435683
  51.1033161 117.7473408 107.7289415  49.1079935  98.7282777 112.1971494
  48.4648253  98.5780423 112.7656632  48.7679342  98.4825122 111.4320598
  48.9625012  98.6694899 112.1674509  53.6979281 106.6842204 111.6201502
  53.0270471 107.2271906 111.4914568  54.3919032 107.1537059 111.3783197
  53.7008149 106.8340475 111.5657030  53.8607409 103.1398087 114.5291875
  54.2135019 102.7127810 115.2037674  53.0022210 103.0548931 114.6592952
  53.7856853 103.0642828 114.6486886  42.5591094 105.7705607 112.5874722
  41.8403083 106.1869740 112.8547585  42.9303456 106.3359846 112.0366360
  42.5083026 105.9154889 112.5457529  51.8590675 106.4033456 118.4776718
  51.8388602 106.2216751 119.3311496  51.9069875 107.2745475 118.4536301
  51.8625316 106.5049994 118.6000012  48.3337668 104.8103607 107.9248101
  47.7402507 105.1320603 107.3732668  48.3712946 103.9644702 107.7169208
  48.2512057 104.7327935 107.8130873  55.2931469  98.2616499 115.4576188
  54.7862334  97.5545639 115.3897365  56.0898903  97.9309688 115.5877264
  55.3358708  98.1089651 115.4675183  51.2095485 104.7683111 111.3549852
  50.9809178 104.7915813 110.5128210  51.4693561 103.9440579 111.4744862
  51.2141673 104.6499191 111.2475049  44.2640247 103.3059658 112.6504047
  44.7397614 103.6676738 112.0154228  43.7628847 103.9616125 112.9304190
  44.2605606 103.4553847 112.5980788  57.4951609 112.7781426 108.4417052
  57.8785215 113.5272782 108.6715149  56.6995722 113.0247246 108.1829041
  57.4345391 112.9251120 108.4374626  46.3066900 105.4500858 106.0177431
  46.6865865 105.4680487 105.2328546  45.5659496 105.8954846 105.8968279
  46.2535738 105.5182632 105.8840999  53.9352191 103.7583049 111.6053010
  53.9346417 103.6031705 112.4637286  53.7308371 104.6046036 111.5494396
  53.9051969 103.8603670 111.7240949  35.9969462 107.1822833 116.0211827
  35.8191223 106.7299442 116.7466742  35.7088484 107.9848995 116.2050304
  35.9282415 107.2345391 116.1555329  51.6593043 108.4380551 115.2589217
  52.1546708 107.7203546 115.2193237  50.8492819 108.1351348 115.1443704
  51.6136936 108.2878197 115.2362943  47.1051654 112.2878364 107.4086221
  46.2962977 111.9645037 107.3619531  47.6126563 111.5811586 107.3414470
  47.0601321 112.1359680 107.3916516  37.7341932 109.7150557 113.1333586
  36.8687451 109.7036247 113.0216357  37.8340748 109.5280780 113.9804725
  37.6216099 109.6856618 113.2422530  47.2292956  99.6745973 121.2325598
  47.3620862  98.8776966 121.5606573  47.6138109 100.2012376 121.8123873
  47.3049285  99.6345890 121.3669101  50.3025311  96.5976299 117.8306691
  49.4971275  96.4874029 118.1474529  50.1732047  96.6988755 116.9736557
  50.1645444  96.5959969 117.7514731  53.7591272 102.7621791 118.4246388
  53.1754261 103.2630997 118.0123955  54.0795566 102.2551347 117.7910711
  53.7204447 102.7613626 118.2704895  46.2986071 101.6762386 108.7005063
  47.1201765 101.8460699 108.4586758  45.8355722 101.8309647 107.9771360
  46.3517233 101.7244119 108.5576707  44.8881403  99.6705148 119.4803492
  45.4325816  99.3296275 120.0707833  44.9418339 100.5290610 119.6224776
  44.9770522  99.7460407 119.5885365  40.7011962 113.4321564 116.3542299
  41.3056819 113.3917398 115.7256120  40.4939274 114.2792716 116.3846355
  40.7600859 113.5509567 116.2658416  59.8110520 123.4225970 105.8954137
  60.0506523 123.6303954 105.0829480  60.1326361 122.6183479 106.0043081
  59.8947678 123.3340071 105.7914690  55.1200810 115.3519366 109.7413675
  55.8746778 115.7197683 109.5030725  54.9428345 115.7258920 110.5092854
  55.2055288 115.4617554 109.8198563  53.4757875 117.7589685 106.4391788
  53.2933448 117.9761566 105.6132780  54.3383488 117.8728698 106.4950402
  53.5762464 117.8079583 106.3246275  59.1557594 114.7616096 109.4740811
  59.8843754 114.5832051 109.0278968  59.2452487 115.6034175 109.6847989
  59.2764256 114.8599974 109.4394329  53.0219902 121.0363858 104.9514261
  52.3078079 120.7502037 105.3636693  53.5063870 121.3760483 105.5920648
  52.9879265 121.0445507 105.1069896  52.1519233 119.6503828 109.7618735
  51.8644028 119.2805099 109.0250682  52.8389701 120.1198684 109.5002440
  52.2108130 119.6650798 109.6133811  49.7247427 120.4285041 110.6104016
  49.8263564 121.2311202 110.9384991  50.5203314 120.2272377 110.3127097
  49.8575333 120.5170940 110.6139371  57.4791343 125.3005391 104.3298792
  57.7683867 126.0770274 104.6042366  57.5663141 124.7894123 105.0313291
  57.5345599 125.3397310 104.4741290  54.2656027 118.9641174 103.6093374
  53.9168831 119.6160900 104.0724923  53.7852472 118.9498287 102.8817245
  54.1426271 119.0584228 103.5704465  54.6680158 122.4566816 106.4511995
  55.3025237 123.0527241 106.3861457  54.7505769 122.1570273 107.2657866
  54.7736709 122.5007724 106.5615082  56.2459141 118.3880791 106.4257437
  56.5674982 117.9083874 105.7716700  56.5086084 119.1980437 106.2348249
  56.3325166 118.4370689 106.3012930  59.3070252 120.3288915 107.9248101
  58.7135091 120.6505911 107.3732668  59.3445529 119.4830010 107.7169208
  59.2244641 120.2513243 107.8130873  57.2799484 120.9686166 106.0177431
  57.6598449 120.9865795 105.2328546  56.5392080 121.4140154 105.8968279
  57.2268322 121.0367940 105.8840999  57.2718655 117.1947694 108.7005063
  58.0934349 117.3646007 108.4586758  56.8088306 117.3494955 107.9771360
  57.3249817 117.2429427 108.5576707   4.8523075  31.7467691  93.4163169
   4.5174443  32.4244612  92.9807391   5.3649945  31.3573002  92.8280041
   4.8788656  31.7892269  93.2649961   9.6373865  25.2756254  95.7405770
   9.5213391  26.0263941  96.1697908  10.4329752  25.0180208  95.9901857
   9.7378454  25.3491101  95.8409862   7.3603170  26.0063899  94.0520060
   7.2754465  26.8624865  94.1969629   7.8487554  25.7308223  94.7202219
   7.4192068  26.0921220  94.1722141   5.0255126  28.8845403  92.2616116
   5.4406274  28.5530427  91.5700611   4.1947055  28.6514305  92.1336252
   4.9643134  28.8016659  92.1406963   7.7188516  25.1355963  91.4477317
   7.6368678  25.2058150  92.3132304   8.3568236  25.6985706  91.2561058
   7.8008353  25.2294934  91.5467267   1.6162592  32.0705100  95.9965495
   1.9060890  31.6794081  95.2724722   2.3466073  32.2521805  96.4370771
   1.7669476  32.0398914  95.9548302   6.1882960  30.6845071  96.6124396
   5.9469636  29.9512931  96.2051461   6.3684293  31.2331927  95.9590729
   6.1790584  30.6567462  96.4554619  10.9139079  27.7912514  93.9812953
  10.5345888  27.0049652  93.9742242  10.2505325  28.3399371  93.8384597
  10.7597554  27.7557338  93.9593750   6.2604648  28.3738217  89.8001729
   7.0277633  28.4338342  89.3907580   5.8135957  27.8018658  89.3158047
   6.3078075  28.2974793  89.6679439   9.1599178  30.0358005  94.3164639
   9.2419016  30.8424991  93.9926090   9.6448920  30.0553964  95.0405412
   9.2436336  30.1578667  94.3751538   2.9643721  29.9770127  94.5696081
   3.0336541  29.1184666  94.7089081   3.7432176  30.1942008  94.2415105
   3.0896571  29.8822991  94.5413238   7.3551208  32.4007829  98.7832574
   6.9631000  32.0974544  98.0655440   7.5104281  33.2376919  98.5937528
   7.3204798  32.4791665  98.6489071   2.3079249  24.6456983  91.2638839
   2.5971773  25.4221866  91.5382413   2.3951047  24.1345714  91.9653338
   2.3633505  24.6848901  91.4081337   6.6547950  28.6093810  94.6502183
   7.3782149  29.0751923  94.5066756   6.2148541  28.6767419  93.8999780
   6.6963642  28.6877646  94.5186964   6.9151800  32.6714515  94.8100244
   6.1981109  32.4975377  94.3447481   7.5658537  32.4367087  94.2775730
   6.9053650  32.6110307  94.6629462  13.2972098  27.6418325  95.3757099
  13.6805704  28.3909681  95.6055196  12.5016212  27.8884145  95.1169088
  13.2365881  27.7888019  95.3714673  22.7889874  38.2189260  97.4687460
  22.7583878  39.0733897  97.6405729  23.3871223  37.9184553  98.0273604
  22.8727032  38.3005757  97.5762262  15.9889559  37.3064911 102.2240390
  15.1327454  37.4673410 102.2749507  16.0357212  36.4356975 102.2445452
  15.8688670  37.2015713 102.2346456  10.3730698  46.8427629  97.9877622
   9.6213598  46.4643168  97.7593667  10.8216710  46.8746063  97.2396432
  10.3280365  46.7913236  97.8435124  15.8255658  47.2652999  93.4163169
  15.4907027  47.9429920  92.9807391  16.3382529  46.8758310  92.8280041
  15.8521239  47.3077577  93.2649961  15.3659950  49.2167267  99.3574281
  15.7499329  49.7854166  98.8179056  15.3019091  48.4916778  98.8780097
  15.4133377  49.1942731  99.2068143  18.8341380  39.3656955 104.8672042
  19.3797340  40.0442042 104.9266012  18.7758256  39.2244416 104.0073624
  18.9057294  39.4448957 104.7484103  11.9515455  46.8546021 100.2540395
  12.0525818  46.0446375 100.5637522  11.3557200  46.7602968  99.6240073
  11.8787993  46.7211049 100.2066633  20.6106448  40.7941562  95.7405770
  20.4945974  41.5449248  96.1697908  21.4062335  40.5365516  95.9901857
  20.7111038  40.8676409  95.8409862  11.7916194  51.7723611 101.6555251
  12.4353650  52.2136775 102.0451409  12.1172450  50.9677037 101.5685509
  11.9348023  51.7188805 101.7000728   5.1480499  42.8766308  99.8792728
   4.9130683  42.0433960  99.7724997   5.2866140  43.1570974  99.0653929
   5.1336161  42.7949811  99.7435083  12.4936774  44.7835585  97.0275112
  12.8152615  45.3240793  96.4236420  13.1408870  44.2132357  97.1597402
  12.6362829  44.7794761  96.9582148  14.5438482  36.7851580  97.1109499
  15.2418647  36.9639708  97.6030962  14.8590815  36.2621920  96.4879888
  14.6933819  36.7345352  97.0911509  14.7326417  43.1722025  97.0989290
  15.1720053  42.5639126  97.5444063  14.5831080  42.7929399  96.3274755
  14.7747883  43.0260497  97.0508458  12.1998060  41.7666037 104.3008116
  12.8447063  41.2738480 103.9819064  12.4399837  41.9090824 105.1274194
  12.3308646  41.7143479 104.3757649  14.7384152  44.6120943 103.9515009
  15.0207395  43.8172349 103.7301764  15.4670312  45.0901531 103.9720070
  14.8873715  44.5655540 103.9218024  18.3335754  41.5249207  94.0520060
  18.2487049  42.3810173  94.1969629  18.8220137  41.2493531  94.7202219
  18.3924651  41.6106528  94.1722141  19.9241753  28.1429500  99.4380384
  19.6095194  28.8332979  99.8700807  19.4068695  28.0874282  98.7365885
  19.8006224  28.2364388  99.3977333  19.2654187  38.1434001  95.5517795
  18.7365659  38.3593634  96.2115101  19.7879207  38.8370139  95.4718764
  19.2642640  38.2777138  95.6373394  24.7202240  43.7180305 100.9250839
  23.8899943  43.9290949 101.0884256  24.6711492  42.8917360 100.6493123
  24.5908976  43.6269912 100.9088205  11.1553795  42.0397218  94.3525263
  10.5711010  42.5447249  94.7591127  10.7523890  41.8139605  93.6121855
  11.0093099  42.0805466  94.3030288   6.7097824  47.7551979 101.1548934
   6.2265402  48.4802468 101.1308518   7.5221142  48.0528109 101.2659092
   6.7588571  47.9054332 101.1676214  12.7811978  46.5484159 103.7598749
  12.2638919  46.1891574 103.1560057  13.4786369  46.0246334 103.7704815
  12.8077559  46.4181847 103.6729008  16.4375570  46.9978974 109.7214922
  16.5258915  46.8105114 110.5693132  16.8665282  46.3516403 109.3219769
  16.5137672  46.8741981 109.7886673  14.0046029  46.2810133 108.7032584
  13.4416864  45.8682743 109.2272245  14.7667053  46.2063039 109.1225727
  14.0340478  46.2087534 108.8425584  15.6131009  38.2862870  92.8294183
  15.8527013  38.4940853  92.0169527  15.9346850  37.4820378  92.9383128
  15.6968167  38.1976971  92.7254736  10.9221300  30.2156265  96.6753721
  11.6767268  30.5834582  96.4370772  10.7448834  30.5895820  97.4432901
  11.0075778  30.3254453  96.7538610   9.5642021  48.2708155 101.3069214
  10.2662600  47.7560144 101.3641971   9.4839504  48.5982306 102.1116089
   9.6565781  48.2422381 101.4342006  24.2156198  36.3650706 104.7201261
  23.3784619  36.4352893 104.9548855  24.1844429  36.3675201 103.8475563
  24.0874481  36.3760933 104.6260809   9.2778364  32.6226584  93.3731834
   9.0953938  32.8398465  92.5472827  10.1403977  32.7365597  93.4290449
   9.3782954  32.6716482  93.2586321   8.8892796  44.4614507 100.8154822
   9.7281696  44.6937439 100.8628584   8.9204565  43.5918818 100.7461858
   9.0174514  44.3671453 100.8119467   9.5145499  44.8815382 105.1168128
  10.0543724  44.7386513 105.7871500   8.8315446  45.2812133 105.4852154
   9.4937653  44.9195053 105.2702549  14.9578084  29.6252995  96.4080858
  15.6864244  29.4468950  95.9619014  15.0472976  30.4671075  96.6188036
  15.0784746  29.7236873  96.3734376  18.9386384  40.5606382 100.3113152
  19.6943899  40.9937897 100.3502061  19.0448709  39.9111152 100.8847788
  19.0656555  40.5283866 100.4011178  21.9766555  44.3879660 101.0615555
  21.5401787  44.3916402 101.8174527  21.6429471  45.0685159 100.6295133
  21.8629175  44.4892116 101.1096388  21.8964038  31.4293488 103.3044983
  22.5389947  31.4991592 103.8906898  22.1487059  30.7622710 102.8024525
  22.0286170  31.3419836 103.3172262   8.8240391  35.9000757  91.8854307
   8.1098568  35.6138937  92.2976740   9.3084360  36.2397383  92.5260695
   8.7899755  35.9082407  92.0409942  16.7066022  48.3398095 106.0325161
  15.9081268  48.0997595 106.2899030  17.1552034  48.3912487 106.7792209
  16.6540633  48.3120486 106.1810085  25.1110902  41.1060580  99.9535192
  25.7727336  40.5451248  99.8531101  24.4702313  40.6112610 100.2787884
  25.1139769  40.9496989  99.9867533  15.9987709  44.4030711  92.2616116
  16.4138858  44.0715735  91.5700611  15.1679639  44.1699613  92.1336252
  15.9375718  44.3201967  92.1406963   5.3276058  41.8874452 102.5514294
   5.1451631  41.8621338 101.6986586   6.0625727  42.3573390 102.5903202
   5.4090122  41.9535814 102.4312212  21.3975732  42.1225962  99.6947181
  21.6331321  42.2671161  98.8674032  21.5465296  42.8868370 100.0878695
  21.4541535  42.2565016  99.6310785  23.2266189  40.9627628  97.5316785
  23.5574406  41.4955268  96.9256880  23.7999277  41.0166516  98.1878736
  23.3599868  41.0497197  97.5394567  18.4398078  38.8092531  98.2140365
  18.5344932  39.5481825  98.6679991  17.8156922  38.3810006  98.6474930
  18.3607108  38.8553851  98.3448513  18.6921099  40.6541270  91.4477317
  18.6101262  40.7243458  92.3132304  19.3300820  41.2171014  91.2561058
  18.7740937  40.7480242  91.5467267  12.0514271  40.4202008 100.9151843
  11.7933515  39.5873743 100.8883143  12.1062753  40.6459621 100.0744344
  12.0214048  40.3299780 100.7871980  17.1315321  32.5230459 101.0155936
  16.4271647  32.0339645 101.1739855  17.1800295  32.5352934 100.1444380
  17.0345372  32.4520107 100.9095276  11.0248983  37.9739771 101.4016738
  10.4498574  38.1331939 102.0380699  10.6484659  37.3375180 100.9385189
  10.8851795  37.9037584 101.4271297  24.3345540  36.2038125  99.0356947
  24.0782105  35.3918066  98.8454829  25.1774854  36.2115692  98.8087134
  24.4211566  36.0850122  98.9741764  15.7961210  40.6761725  94.4585924
  16.6101848  40.9676618  94.3468695  15.7320351  40.0221587  93.8844216
  15.9063949  40.6226919  94.3574761  22.0170700  43.3587721 108.8715499
  21.7809337  42.5275786 108.7527560  22.6613929  43.3073328 109.4570343
  22.0765371  43.2285409 108.9401393  11.6669118  44.1483242  99.5858236
  12.3043065  43.9094990 100.1310029  12.0924189  44.3520401  98.8511396
  11.8245284  44.1434252  99.5575393   6.3581760  46.3871579 103.4692539
   6.3985906  46.6586430 102.6412319   6.9176284  46.9113487 103.8850327
   6.4465106  46.5047334 103.4084428  12.3071933  39.3685532  93.9233125
  12.6917086  39.1493239  94.6749670  12.0583553  40.1948477  94.0534201
  12.3274005  39.4583678  94.0534201  23.0407120  43.1432170 104.9343794
  22.7352937  43.8760226 105.2957109  22.3213336  42.7370099 104.6536580
  22.8894463  43.1913903 104.9456931  14.0490590  44.6255665 101.2652022
  14.1229598  44.4630837 102.1193872  14.8660096  44.8145854 101.0212504
  14.1806948  44.6292407 101.3550047  28.7408913  39.7825170 104.2612138
  28.6733413  39.8021129 103.3914724  28.7264575  40.6255498 104.4867808
  28.7287669  39.9098905 104.1664615   7.8096347  44.9713528  98.2946465
   6.9834464  45.2175265  98.1680744   7.8708338  44.8925608  99.1608523
   7.6970513  44.9958477  98.4035410  12.5895176  47.5890408  95.9965495
  12.8793474  47.1979389  95.2724722  13.3198656  47.7707113  96.4370771
  12.7402060  47.5584222  95.9548302  26.5267530  38.5569557 102.5358732
  27.0775451  37.9237626 102.7755824  26.5111645  39.0884949 103.2274237
  26.6052726  38.5418505 102.6737591  13.1789921  42.3908154 107.0818626
  12.6801614  43.1023921 107.1603514  13.9890145  42.7108820 107.0436788
  13.2246027  42.5435002 107.0875194  10.5301091  49.5657790  99.0625645
  10.3101387  49.2755145  99.8552312  10.3095613  48.9072745  98.5343557
  10.4648685  49.4257499  99.1014554   9.4418038  41.6531107 101.3281347
   9.1531287  41.0268578 101.8627074  10.3101386  41.5951394 101.3946027
   9.5278290  41.5518651 101.4172301  20.2295936  36.7965890 101.6463329
  19.8860702  36.0756225 101.9970578  20.3288979  36.5879741 100.8041687
  20.1937979  36.6590093 101.5735009  12.6969047  50.9387180  97.8456337
  13.3493105  50.4063623  98.0747363  11.9994656  50.5855833  98.2324211
  12.6899765  50.8076703  97.9368505   9.6450312  43.2926358  97.2523712
  10.3996280  43.6739397  97.4659174   9.0520924  43.7437501  97.7070408
   9.6687025  43.4155185  97.3506590  20.6908965  43.2591594  97.1887317
  21.2566998  43.9184804  97.1045860  20.0436869  43.6041292  97.6603719
  20.6787722  43.4073536  97.2460073  10.9648538  44.4634919 102.6263827
  10.4429292  44.6035211 103.3115692  11.3522559  43.7045583 102.8165944
  10.9452239  44.3720443 102.7564904   7.9539722  34.5140728  96.6958782
   7.6664518  34.1441998  95.9590729   8.6410191  34.9835583  96.4342487
   8.0128620  34.5287697  96.5473858  17.1615543  46.2030378  96.6124396
  16.9202219  45.4698239  96.2051461  17.3416876  46.7517235  95.9590729
  17.1523167  46.1752770  96.4554619  12.3914864  41.4938938  98.0245318
  12.1957647  42.1013673  97.4305621  12.6149209  40.8006882  97.5436992
  12.3949505  41.4816464  97.8661399  10.7893394  38.3793676  98.1426186
  11.5116046  38.5434834  97.6829992  10.3101387  39.1003341  98.0365526
  10.8257125  38.5091906  98.0591800  18.7486902  34.7157475 103.5222871
  17.9098002  34.7418754 103.2861135  18.8191269  35.3628210 104.1028218
  18.6355295  34.8153601 103.5731988  17.1956180  31.6142852  98.2550487
  17.8982533  31.4150600  97.7770446  16.9300369  30.8418794  98.5619331
  17.2602812  31.4705818  98.2295929  22.6244425  39.9225462 100.8084113
  22.5378400  40.0780888 101.6618892  22.1694905  40.5663537 100.4343518
  22.5447682  40.0401217 100.8791220   5.5267917  35.2921940  97.5444063
   5.6284053  36.0948102  97.8725038   6.3223804  35.0909276  97.2467143
   5.6595823  35.3807839  97.5479418  16.4970241  37.2436209  99.4309673
  16.2504956  37.1631960 100.2646462  16.8255364  36.4589677  99.2372200
  16.5091485  37.1162474  99.5257196  20.3918290  43.9519568 103.2196454
  20.2532650  44.6500614 103.7245196  19.6118288  43.7968225 102.8632636
  20.2561517  44.0319735 103.2422728  11.5295024  48.1695699 105.7093683
  11.6784587  47.6098615 105.0567087  12.3095026  48.2487701 106.0926201
  11.6669117  48.0981265 105.6690632  21.8871663  43.3097822  93.9812953
  21.5078472  42.5234960  93.9742242  21.2237908  43.8584679  93.8384597
  21.7330138  43.2742646  93.9593750  14.0548324  48.3410342 106.9878173
  13.9791995  47.6719153 107.5428962  13.9838183  49.0428130 107.5018840
  14.0328931  48.3455249 107.1455022  14.7118571  46.8611341  97.8201779
  15.4768462  46.5920985  97.4984444  14.6096661  46.3761351  98.5371842
  14.8100067  46.7500906  97.8781607  17.2337232  43.8923525  89.8001729
  18.0010217  43.9523650  89.3907580  16.7868541  43.3203966  89.3158047
  17.2810659  43.8160100  89.6679439  18.1315027  42.6978181 102.0854461
  17.4560029  42.4663413 102.5867848  18.1407403  42.0899363 101.4596566
  18.0333532  42.5737106 102.0670613  20.1331762  45.5543313  94.3164639
  20.2151599  46.3610299  93.9926090  20.6181504  45.5739272  95.0405412
  20.2168920  45.6763975  94.3751538  13.9428265  40.2328149 102.9834717
  13.5190514  40.4332648 102.2473735  13.7673120  39.3856997 103.0959017
  13.8539146  40.1376930 102.8908407  13.4439959  51.7478662 105.4456174
  13.9335889  51.0489451 105.2631839  12.8724191  51.4502532 106.0332232
  13.4324489  51.6004886 105.5057215   9.2310710  40.7280200  98.4162689
   9.3875329  40.6627003  99.2718682   9.5711303  41.5028753  98.2041369
   9.3043945  40.8329398  98.5117284  15.7689855  40.1038084  97.2856053
  16.3105400  39.6008465  97.7494673  16.0836414  40.0503279  96.4745538
  15.8954252  40.0217505  97.2339865  13.9376304  45.4955435  94.5696081
  14.0069125  44.6369974  94.7089081  14.7164760  45.7127316  94.2415105
  14.0629155  45.4008299  94.5413238  18.3283792  47.9193137  98.7832574
  17.9363584  47.6159852  98.0655440  18.4836864  48.7562227  98.5937528
  18.2937382  47.9976973  98.6489071   5.8044972  37.9115151  98.7323457
   6.1843936  38.3299696  98.0683724   5.2300336  38.4928606  99.0392300
   5.7756296  38.0593010  98.6800198  18.4923467  44.4843126  98.7238605
  18.1338122  44.6557768  99.5002637  18.0062178  44.9456331  98.1666603
  18.3682164  44.5782097  98.7563874  13.2811832  40.1642291  91.2638839
  13.5704357  40.9407173  91.5382413  13.3683631  39.6531022  91.9653338
  13.3366088  40.2034209  91.4081337  19.6528206  45.3747021 109.6705805
  20.2907927  44.8807217 109.3368261  19.0102298  45.3024422 109.0858032
  19.6522433  45.2906030 109.5348160  21.3785206  37.2236167 104.2371721
  20.9512814  37.1362516 103.4819821  20.7411259  37.3313943 104.8226565
  21.2214813  37.2268827 104.2117163  19.7082463  46.0666830 106.3111162
  20.4974841  45.7155895 106.4313244  19.8826061  46.8803218 106.0487796
  19.8502744  46.1352687 106.2899030  18.5616287  30.0776386 100.8727581
  18.7665880  30.0098694 101.7184578  18.2342711  30.8835208 100.8048758
  18.5431535  30.1862327 100.9887236  13.2592438  37.4056955 102.6136549
  12.9555576  36.8512943 103.2146956  12.5571859  37.5849165 102.1264583
  13.1108648  37.3501737 102.6306254  12.3158535  34.7157475  97.1781250
  12.5918269  33.9976387  96.7658818  12.9157204  35.3142394  96.9702356
  12.4451800  34.6977845  97.0862012  21.8149975  30.6308151 100.3530346
  21.2024288  31.1178553 100.7384078  21.9114150  29.9551642 100.8967997
  21.7387872  30.6026459 100.4909204  15.8169056  32.3870992  95.4527845
  16.2712802  32.5581552  96.1775690  16.2909101  31.7739103  95.0525621
  15.9537376  32.3221877  95.5001607   9.3384581  41.8719318 104.7830584
   8.7472514  42.5128816 104.7533599  10.1005605  42.2956935 104.7561883
   9.3632842  42.0295156 104.7745731  25.4575003  41.7025088 105.7807862
  25.5158126  42.1511736 106.5267839  24.8241470  42.1123900 105.3437942
  25.3726298  41.8298822 105.8260410  19.0974097  47.3228629 102.2162608
  18.8993786  47.8119444 101.5218820  18.4761808  47.5269871 102.7946742
  18.9761662  47.4245168 102.1985832  13.1582076  39.0913526  96.5572853
  13.9024121  39.4787803  96.7955803  13.3042772  38.2470952  96.7213340
  13.2892661  39.0243999  96.6166822  16.1459951  34.6639000 102.4566772
  15.6719906  34.1380762 102.9672083  16.5178087  34.1168472 101.8881634
  16.1309840  34.5054996 102.4481919  22.4096682  39.7241375 103.8673553
  22.1694905  38.8847790 103.8715979  22.8888689  39.8041542 104.5914326
  22.4448866  39.6122775 103.9748355  18.0743451  35.5575554  95.5192526
  17.5466470  35.6404298  94.8298235  18.5339159  36.2993426  95.5157170
  18.0645302  35.6796217  95.4167221  24.4101869  36.5042832 101.8202812
  24.1711639  36.4638667 100.9823596  24.5735770  37.3513984 101.9468533
  24.3992173  36.6234917 101.7156294  21.0147899  40.8892782 107.7507857
  21.7382098  40.4365308 107.5718877  20.7497862  41.1697447 106.9680185
  21.0829173  40.8643750 107.6086572  10.0676516  33.8278074  90.5433421
   9.7189321  34.4797799  91.0064970   9.5872962  33.8135187  89.8157292
   9.9446760  33.9221127  90.5044512  17.6280534  44.1279118  94.6502183
  18.3514733  44.5937231  94.5066756  17.1881125  44.1952727  93.8999780
  17.6696226  44.2062954  94.5186964  16.7966689  40.9876660 105.9002872
  16.1823682  40.4434710 106.1951507  17.3133974  40.4740896 105.4208688
  16.7822351  40.8313069 105.8727100  16.0362986  42.0580930 103.6347170
  15.6090594  41.4330649 103.2012606  16.0287930  41.7755852 104.4606178
  15.9722127  41.9233711 103.6926998  10.4400425  36.4536604  96.0559465
  10.5803386  36.9509068  96.7588107  10.9382958  35.7522899  96.1973679
  10.5341506  36.4238583  96.1811044  10.4700647  37.3203715  93.3852042
  11.1045727  37.9164140  93.3201504  10.5526258  37.0207173  94.1997912
  10.5757198  37.3644623  93.4955129  23.4483213  39.8519193 106.2538406
  24.0401053  40.4916443 106.2856605  23.8842208  39.1542229 106.5430473
  23.6001644  39.8437543 106.3019239  12.0479630  33.2517691  93.3597484
  12.3695471  32.7720773  92.7056747  12.3106574  34.0617337  93.1688296
  12.1345656  33.3007588  93.2352976  15.2776603  44.2736565 106.8796300
  14.7701694  44.8272412 107.3236931  14.9803249  44.3344855 106.0615075
  15.1581488  44.3642876 106.8244757   6.9753635  39.5171556  96.6541588
   7.4845865  40.1136063  97.0352894   7.4487908  39.2497530  95.9718008
   7.1197011  39.5657371  96.6096111  17.8884383  48.1899823  94.8100244
  17.1713693  48.0160685  94.3447481  18.5391121  47.9552395  94.2775730
  17.8786234  48.1295615  94.6629462  15.8833008  29.1104984  99.1311540
  15.2401326  28.9602631  99.6996679  15.5432415  28.8647330  98.3660645
  15.7378085  29.0517107  99.1014556  20.4732355  37.0664411  98.5541549
  19.8023544  37.6094113  98.4254615  21.1672105  37.5359266  98.3123244
  20.4761222  37.2162682  98.4997077  14.5219088  49.2061123 103.7853307
  14.2984743  48.4479952 104.1537334  14.0328932  49.2359144 103.0633747
  14.4162537  49.0983348 103.7330048  20.6360482  33.5220295 101.4631922
  20.9888092  33.0950018 102.1377721  19.7775283  33.4371138 101.5932999
  20.5609927  33.4465035 101.5826933   9.3344167  36.1527814  99.5214769
   8.6156156  36.5691947  99.7887632   9.7056529  36.7182053  98.9706407
   9.2836099  36.2977096  99.4797576  13.1697545  49.4261581 101.2390392
  12.7557944  48.7635711 100.8494234  13.8544919  49.5739440 100.7186086
  13.2095917  49.3502239 101.1046889  16.5362839  48.5851667 101.9914008
  16.1379123  48.6953937 101.2234829  15.9214059  48.7933733 102.5740568
  16.3861729  48.6325235 101.9645308  15.1090741  35.1925814  94.8588148
  14.5155581  35.5142811  94.3072715  15.1466019  34.3466910  94.6509254
  15.0265130  35.1150143  94.7470919  17.9848558  35.1505319  98.2889898
  17.7562251  35.1738020  97.4468257  18.2446634  34.3262786  98.4084909
  17.9894746  35.0321399  98.1815096  11.0393320  33.6881865  99.5844094
  11.5150687  34.0498945  98.9494275  10.5381920  34.3438333  99.8644237
  11.0358679  33.8376054  99.5320835  24.2704682  43.1603633  95.3757099
  24.6538288  43.9094989  95.6055196  23.4748795  43.4069453  95.1169088
  24.2098464  43.3073327  95.3714673  13.0819974  35.8323065  92.9517478
  13.4618938  35.8502694  92.1668593  12.3412570  36.2777054  92.8308325
  13.0288811  35.9004840  92.8181046  20.7105264  34.1405256  98.5393057
  20.7099491  33.9853913  99.3977333  20.5061444  34.9868243  98.4834442
  20.6805042  34.2425877  98.6580996  18.4346116  38.8202758 102.1929264
  18.9299781  38.1025753 102.1533284  17.6245892  38.5173556 102.0783751
  18.3890009  38.6700404 102.1702989  13.8804728  42.6700571  94.3426268
  13.0716050  42.3467245  94.2959578  14.3879637  41.9633793  94.2754517
  13.8354394  42.5181888  94.3256562   4.5095005  40.0972764 100.0673632
   3.6440524  40.0858455  99.9556404   4.6093821  39.9102987 100.9144772
   4.3969172  40.0678826 100.1762577  20.4997935  41.5706445 104.8806392
  20.9253007  41.0480867 104.3276817  20.1354855  42.1687283 104.3595015
  20.5084538  41.5816673 104.7215402  10.1352015  49.8670663 103.6403738
  10.4498574  50.6807051 103.6481520  10.5445428  49.4820882 104.3085897
  10.2420113  49.9299365 103.7407830  17.0876534  45.2840710 101.2107550
  17.5587713  45.9980972 101.3797535  17.4236713  44.6839460 101.7467419
  17.2071650  45.3012174 101.3139926  17.7250481  45.0758644 107.9735242
  17.1771427  44.4516528 107.7055308  18.1863510  45.2652916 107.2579322
  17.7117690  45.0117694 107.8285674  13.0739144  32.0584593  95.6345110
  13.8954839  32.2282906  95.3926804  12.6108795  32.2131854  94.9111407
  13.1270307  32.1066326  95.4916754   7.4765035  43.8143771 103.2882346
   8.0809892  43.7739606 102.6596167   7.2692348  44.6614923 103.3186402
   7.5353932  43.9331774 103.1998463  17.2908807  46.0809717 104.5044584
  18.1107181  45.9372683 104.7660879  17.0102885  46.7055915 105.0461022
  17.3705550  46.1520069 104.6232523  33.7622458  53.7374568  97.4687460
  33.7316462  54.5919205  97.6405729  34.3603806  53.4369861  98.0273604
  33.8459615  53.8191065  97.5762262  26.9622142  52.8250219 102.2240390
  26.1060038  52.9858718 102.2749507  27.0089796  51.9542283 102.2445452
  26.8421254  52.7201021 102.2346456  21.3463282  62.3612937  97.9877622
  20.5946182  61.9828476  97.7593667  21.7949294  62.3931371  97.2396432
  21.3012949  62.3098544  97.8435124  30.2715859  59.0936745 111.8300847
  30.9782626  58.5988776 111.9587781  30.4603794  59.5345826 111.1003505
  30.4043764  59.0855095 111.7409892  26.7988242  62.7838307  93.4163169
  26.4639610  63.4615228  92.9807391  27.3115112  62.3943618  92.8280041
  26.8253823  62.8262885  93.2649961  26.3392533  64.7352575  99.3574281
  26.7231913  65.3039474  98.8179056  26.2751674  64.0102086  98.8780097
  26.3865960  64.7128039  99.2068143  29.8073963  54.8842263 104.8672042
  30.3529923  55.5627350 104.9266012  29.7490840  54.7429724 104.0073624
  29.8789878  54.9634265 104.7484103  22.9248038  62.3731329 100.2540395
  23.0258401  61.5631683 100.5637522  22.3289783  62.2788276  99.6240073
  22.8520577  62.2396357 100.2066633  31.5839032  56.3126870  95.7405770
  31.4678558  57.0634556  96.1697908  32.3794919  56.0550824  95.9901857
  31.6843621  56.3861717  95.8409862  22.7648778  67.2908918 101.6555251
  23.4086233  67.7322083 102.0451409  23.0905033  66.4862345 101.5685509
  22.9080606  67.2374113 101.7000728  16.1213083  58.3951616  99.8792728
  15.8863267  57.5619268  99.7724997  16.2598723  58.6756282  99.0653929
  16.1068745  58.3135119  99.7435083  18.4203170  50.5637347 102.7777036
  17.8008202  49.9729994 102.6087051  18.3187034  51.1548782 102.1441359
  18.3140845  50.5641429 102.6582025  23.4669358  60.3020893  97.0275112
  23.7885199  60.8426101  96.4236420  24.1141454  59.7317665  97.1597402
  23.6095413  60.2980069  96.9582148  25.5171066  52.3036888  97.1109499
  26.2151230  52.4825016  97.6030962  25.8323398  51.7807228  96.4879888
  25.6666403  52.2530660  97.0911509  18.1472303  54.1089628 105.0220605
  18.0231000  54.6952074 105.6570424  18.7990587  53.6149824 105.3232880
  18.2245952  54.1228433 105.1606534  25.7059001  58.6907333  97.0989290
  26.1452636  58.0824434  97.5444063  25.5563664  58.3114707  96.3274755
  25.7480467  58.5445804  97.0508458  23.1730644  57.2851345 104.3008116
  23.8179647  56.7923788 103.9819064  23.4132421  57.4276132 105.1274194
  23.3041229  57.2328787 104.3757649  25.7116735  60.1306251 103.9515009
  25.9939978  59.3357657 103.7301764  26.4402896  60.6086838 103.9720070
  25.8606299  60.0840848 103.9218024  23.6897929  47.6729285 101.1930774
  23.3601259  48.1240429 100.5234472  23.0142931  47.5945448 101.7403780
  23.5408365  47.7280420 101.1753997  29.3068338  57.0434515  94.0520060
  29.2219633  57.8995481  94.1969629  29.7952721  56.7678839  94.7202219
  29.3657235  57.1291836  94.1722141  30.8974337  43.6614808  99.4380384
  30.5827778  44.3518286  99.8700807  30.3801279  43.6059590  98.7365885
  30.7738807  43.7549696  99.3977333  30.2386771  53.6619309  95.5517795
  29.7098242  53.8778942  96.2115101  30.7611791  54.3555447  95.4718764
  30.2375224  53.7962446  95.6373394  35.6934824  59.2365613 100.9250839
  34.8632527  59.4476257 101.0884256  35.6444076  58.4102668 100.6493123
  35.5641559  59.1455220 100.9088205  22.1286379  57.5582526  94.3525263
  21.5443594  58.0632557  94.7591127  21.7256474  57.3324912  93.6121855
  21.9825682  57.5990774  94.3030288  17.6830407  63.2737287 101.1548934
  17.1997985  63.9987776 101.1308518  18.4953725  63.5713417 101.2659092
  17.7321155  63.4239640 101.1676214  23.7544561  62.0669467 103.7598749
  23.2371503  61.7076882 103.1560057  24.4518952  61.5431642 103.7704815
  23.7810142  61.9367155 103.6729008  27.4108153  62.5164281 109.7214922
  27.4991499  62.3290422 110.5693132  27.8397866  61.8701711 109.3219769
  27.4870256  62.3927289 109.7886673  24.9778613  61.7995441 108.7032584
  24.4149448  61.3868051 109.2272245  25.7399636  61.7248347 109.1225727
  25.0073062  61.7272842 108.8425584  26.5863593  53.8048178  92.8294183
  26.8259597  54.0126161  92.0169527  26.9079434  53.0005686  92.9383128
  26.6700751  53.7162279  92.7254736  21.8953883  45.7341573  96.6753721
  22.6499851  46.1019890  96.4370772  21.7181418  46.1081128  97.4432901
  21.9808362  45.8439761  96.7538610  20.5374604  63.7893463 101.3069214
  21.2395184  63.2745452 101.3641971  20.4572088  64.1167614 102.1116089
  20.6298365  63.7607689 101.4342006  35.1888782  51.8836014 104.7201261
  34.3517203  51.9538201 104.9548855  35.1577013  51.8860509 103.8475563
  35.0607064  51.8946241 104.6260809  21.5853511  54.0269050 110.4349629
  21.7574015  53.9174944 111.2834911  22.1222869  54.6723455 110.1980822
  21.6898515  54.1061051 110.5254726  20.2510948  48.1411892  93.3731834
  20.0686521  48.3583773  92.5472827  21.1136561  48.2550905  93.4290449
  20.3515537  48.1901790  93.2586321  19.8625380  59.9799815 100.8154822
  20.7014279  60.2122747 100.8628584  19.8937149  59.1104126 100.7461858
  19.9907097  59.8856761 100.8119467  20.4878083  60.4000690 105.1168128
  21.0276308  60.2571821 105.7871500  19.8048029  60.7997441 105.4852154
  20.4670237  60.4380361 105.2702549  25.9310667  45.1438303  96.4080858
  26.6596828  44.9654258  95.9619014  26.0205560  45.9856383  96.6188036
  26.0517329  45.2422181  96.3734376  29.9118968  56.0791690 100.3113152
  30.6676483  56.5123205 100.3502061  30.0181292  55.4296460 100.8847788
  30.0389138  56.0469174 100.4011178  32.9499139  59.9064968 101.0615555
  32.5134371  59.9101710 101.8174527  32.6162054  60.5870467 100.6295133
  32.8361759  60.0077423 101.1096388  27.5228212  61.9473300 112.3858705
  28.3068629  62.0604148 112.7514448  27.3224807  61.1214438 112.5817391
  27.6094238  61.8420020 112.4693091  15.8915228  56.6200981 105.2702549
  15.6253643  55.8040097 105.4293540  15.9053792  56.6654136 104.3998065
  15.8539950  56.5057885 105.1656031  32.8696622  46.9478795 103.3044983
  33.5122530  47.0176900 103.8906898  33.1219643  46.2808018 102.8024525
  33.0018754  46.8605144 103.3172262  19.7972975  51.4186065  91.8854307
  19.0831152  51.1324244  92.2976740  20.2816944  51.7582691  92.5260695
  19.7632338  51.4267715  92.0409942  20.6413834  50.1579359 107.9169557
  19.9485631  49.6876339 108.1630289  21.2574162  49.9317663 108.4911264
  20.6298364  50.0546491 108.0378710  27.6798606  63.8583403 106.0325161
  26.8813852  63.6182903 106.2899030  28.1284617  63.9097795 106.7792209
  27.6273217  63.8305794 106.1810085  36.0843485  56.6245888  99.9535192
  36.7459919  56.0636556  99.8531101  35.4434897  56.1297918 100.2787884
  36.0872353  56.4682297  99.9867533  26.9720293  59.9216019  92.2616116
  27.3871441  59.5901043  91.5700611  26.1412222  59.6884921  92.1336252
  26.9108302  59.8387275  92.1406963  16.3008642  57.4059760 102.5514294
  16.1184215  57.3806646 101.6986586  17.0358311  57.8758698 102.5903202
  16.3822705  57.4721122 102.4312212  32.3708316  57.6411270  99.6947181
  32.6063905  57.7856469  98.8674032  32.5197879  58.4053678 100.0878695
  32.4274119  57.7750324  99.6310785  19.3654393  54.1244763 109.0596402
  20.0894366  54.1097793 109.5461297  19.4670530  54.8340118 108.5618370
  19.4872602  54.2269466 109.0575189  34.1998773  56.4812936  97.5316785
  34.5306990  57.0140576  96.9256880  34.7731861  56.5351824  98.1878736
  34.3332452  56.5682505  97.5394567  26.7399343  57.6043847 113.9245349
  25.9472323  57.9187359 114.1097969  26.8548270  57.8195316 113.0866134
  26.6394753  57.6827684 113.8283684  29.4130662  54.3277839  98.2140365
  29.5077516  55.0667133  98.6679991  28.7889505  53.8995314  98.6474930
  29.3339692  54.3739159  98.3448513  27.6683136  57.5064051 108.8630646
  28.2421997  56.8691295 109.0179210  27.5897939  57.5068134 107.9940304
  27.7416370  57.4129163 108.7577057  16.2679552  54.2853261 102.7013360
  16.8453055  54.1489711 103.3405605  15.5693614  53.8289045 102.9558945
  16.2500573  54.1975527 102.8335650  29.6653683  56.1726578  91.4477317
  29.5833846  56.2428765  92.3132304  30.3033403  56.7356322  91.2561058
  29.7473520  56.2665549  91.5467267  23.0246854  55.9387316 100.9151843
  22.7666098  55.1059051 100.8883143  23.0795337  56.1644929 100.0744344
  22.9946632  55.8485088 100.7871980  28.1047904  48.0415767 101.0155936
  27.4004231  47.5524952 101.1739855  28.1532879  48.0538241 100.1444380
  28.0077956  47.9705415 100.9095276  21.9981566  53.4925079 101.4016738
  21.4231158  53.6517247 102.0380699  21.6217243  52.8560488 100.9385189
  21.8584379  53.4222892 101.4271297  25.6654855  51.9648428 106.2609117
  25.2769288  51.5402646 105.6061308  25.0009553  52.2130578 106.7686143
  25.5101783  51.9387149 106.2396984  35.3078124  51.7223433  99.0356947
  35.0514689  50.9103374  98.8454829  36.1507438  51.7301000  98.8087134
  35.3944149  51.6035430  98.9741764  11.7438385  53.1365154  99.4161179
  11.8298637  52.7597022 100.1974709  12.3714183  52.7625599  98.9381137
  11.8494936  53.0250636  99.4606656  29.4881216  45.6623057 103.7733101
  29.8691728  44.9801228 104.1600975  28.6844501  45.3732659 103.5908765
  29.4257678  45.5190105 103.8037157  26.7693793  56.1947033  94.4585924
  27.5834432  56.4861925  94.3468695  26.7052934  55.5406895  93.8844216
  26.8796532  56.1412227  94.3574761  32.9903283  58.8773029 108.8715499
  32.7541921  58.0461094 108.7527560  33.6346512  58.8258636 109.4570343
  33.0497954  58.7470717 108.9401393  22.6401701  59.6668550  99.5858236
  23.2775648  59.4280298 100.1310029  23.0656773  59.8705709  98.8511396
  22.7977868  59.6619560  99.5575393  17.3314344  61.9056887 103.4692539
  17.3718489  62.1771738 102.6412319  17.8908868  62.4298795 103.8850327
  17.4197690  62.0232642 103.4084428  23.2804516  54.8870840  93.9233125
  23.6649669  54.6678547  94.6749670  23.0316137  55.7133785  94.0534201
  23.3006589  54.9768986  94.0534201  23.4473057  48.1677255 113.6395709
  23.1326498  48.9376818 113.3765272  23.1262989  47.6047511 113.0547936
  23.3531976  48.1987524 113.5137059  34.0139704  58.6617478 104.9343794
  33.7085521  59.3945534 105.2957109  33.2945920  58.2555407 104.6536580
  33.8627046  58.7099211 104.9456931  25.0223173  60.1440973 101.2652022
  25.0962182  59.9816145 102.1193872  25.8392680  60.3331162 101.0212504
  25.1539532  60.1477715 101.3550047  39.7141496  55.3010478 104.2612138
  39.6465996  55.3206437 103.3914724  39.6997159  56.1440805 104.4867808
  39.7020253  55.4284213 104.1664615  18.7828930  60.4898836  98.2946465
  17.9567048  60.7360573  98.1680744  18.8440921  60.4110916  99.1608523
  18.6703097  60.5143785  98.4035410  21.0004954  46.5567777  99.2541906
  20.1327379  46.6290376  99.3199515  21.2880158  47.3589855  99.4429881
  20.9144702  46.6861924  99.2916672  30.1237843  46.7045636 107.5853227
  30.8691435  46.5155446 107.1716653  29.7075147  47.2303874 107.0267084
  30.1722817  46.7547781 107.4417801  23.5627759  63.1075716  95.9965495
  23.8526058  62.7164697  95.2724722  24.2931240  63.2892421  96.4370771
  23.7134643  63.0769530  95.9548302  37.5000113  54.0754864 102.5358732
  38.0508035  53.4422933 102.7755824  37.4844229  54.6070257 103.2274237
  37.5785310  54.0603813 102.6737591  24.1522504  57.9093462 107.0818626
  23.6534198  58.6209229 107.1603514  24.9622729  58.2294128 107.0436788
  24.1978611  58.0620310 107.0875194  21.5033675  65.0843098  99.0625645
  21.2833970  64.7940453  99.8552312  21.2828197  64.4258053  98.5343557
  21.4381269  64.9442807  99.1014554  20.4150622  57.1716415 101.3281347
  20.1263871  56.5453886 101.8627074  21.2833970  57.1136702 101.3946027
  20.5010874  57.0703959 101.4172301  31.2028520  52.3151198 101.6463329
  30.8593286  51.5941533 101.9970578  31.3021562  52.1065049 100.8041687
  31.1670563  52.1775401 101.5735009  23.6701630  66.4572488  97.8456337
  24.3225688  65.9248930  98.0747363  22.9727239  66.1041140  98.2324211
  23.6632348  66.3262011  97.9368505  20.6182895  58.8111666  97.2523712
  21.3728863  59.1924705  97.4659174  20.0253508  59.2622809  97.7070408
  20.6419609  58.9340493  97.3506590  31.6641549  58.7776902  97.1887317
  32.2299581  59.4370112  97.1045860  31.0169452  59.1226600  97.6603719
  31.6520305  58.9258843  97.2460073  23.0789562  50.7674506 112.3780924
  22.2689338  51.0732286 112.2670766  23.5564249  51.4880088 112.4933508
  23.0293041  50.9189107 112.3787995  21.9381122  59.9820227 102.6263827
  21.4161875  60.1220519 103.3115692  22.3255142  59.2230891 102.8165944
  21.9184823  59.8905751 102.7564904  18.9272306  50.0326036  96.6958782
  18.6397102  49.6627306  95.9590729  19.6142774  50.5020891  96.4342487
  18.9861203  50.0473005  96.5473858  28.1348127  61.7215686  96.6124396
  27.8934803  60.9883547  96.2051461  28.3149460  62.2702543  95.9590729
  28.1255751  61.6938078  96.4554619  23.3647447  57.0124246  98.0245318
  23.1690230  57.6198981  97.4305621  23.5881793  56.3192190  97.5436992
  23.3682089  57.0001772  97.8661399  21.7625977  53.8978984  98.1426186
  22.4848629  54.0620142  97.6829992  21.2833970  54.6188649  98.0365526
  21.7989708  54.0277214  98.0591800  29.7219485  50.2342783 103.5222871
  28.8830586  50.2604062 103.2861135  29.7923852  50.8813518 104.1028218
  29.6087879  50.3338909 103.5731988  19.4133594  56.3037056 107.2480326
  19.9254691  56.5821310 106.5989086  19.1269937  57.0426351 107.6143139
  19.4468457  56.4539410 107.2070204  28.1688763  47.1328160  98.2550487
  28.8715116  46.9335908  97.7770446  27.9032952  46.3604102  98.5619331
  28.2335396  46.9891126  98.2295929  33.5977009  55.4410770 100.8084113
  33.5110983  55.5966196 101.6618892  33.1427489  56.0848845 100.4343518
  33.5180266  55.5586525 100.8791220  16.5000501  50.8107248  97.5444063
  16.6016637  51.6133410  97.8725038  17.2956387  50.6094584  97.2467143
  16.6328406  50.8993147  97.5479418  22.9317320  48.3963445 107.3081368
  22.7400517  48.4118579 108.1580791  23.7815916  48.5927119 107.2848023
  23.0293042  48.4277796 107.4304663  17.3164233  50.9254427 105.2865184
  17.1749724  50.0738367 105.4109692  17.6004796  50.9683087 104.4627390
  17.3372079  50.8054177 105.1832808  27.4702825  52.7621517  99.4309673
  27.2237539  52.6817268 100.2646462  27.7987948  51.9774985  99.2372200
  27.4824069  52.6347782  99.5257196  31.3650874  59.4704876 103.2196454
  31.2265233  60.1685922 103.7245196  30.5850872  59.3153533 102.8632636
  31.2294101  59.5505043 103.2422728  29.7028959  55.7701251 109.4718836
  29.6976997  54.8981068 109.4761262  30.4089953  55.9689421 108.9988291
  29.8073963  55.6705126 109.4025871  23.4299852  55.4978235 108.8432656
  23.5743228  56.0779443 108.2075766  23.7775501  55.8754532 109.5482510
  23.5027314  55.6398939 108.8531651  25.6019770  54.6968404 106.6257787
  24.8543084  54.8899418 106.2206065  25.7561295  53.8713623 106.3881909
  25.5142197  54.6033515 106.5303193  22.5027607  63.6881007 105.7093683
  22.6517171  63.1283923 105.0567087  23.2827609  63.7673009 106.0926201
  22.6401701  63.6166573 105.6690632  32.8604247  58.8283130  93.9812953
  32.4811055  58.0420268  93.9742242  32.1970492  59.3769987  93.8384597
  32.7062721  58.7927954  93.9593750  25.0280908  63.8595650 106.9878173
  24.9524579  63.1904461 107.5428962  24.9570767  64.5613438 107.5018840
  25.0061515  63.8640557 107.1455022  25.8421547  48.5918954 107.5153191
  26.2994161  49.3242929 107.6425983  25.9177875  48.1685420 108.2740447
  25.9212516  48.6376192 107.6454268  18.0854538  48.8384774 108.6042635
  17.5496727  48.2265132 108.9203402  18.1472303  49.4132910 109.2576301
  18.0150171  48.8331702 108.7478062  30.3148873  41.7708830 101.3847034
  30.4332441  42.2285293 100.6514337  30.1411048  40.9654091 101.0983252
  30.3068044  41.7202602 101.2347968  25.6851155  62.3796649  97.8201779
  26.4501046  62.1106293  97.4984444  25.5829245  61.8946659  98.5371842
  25.7832650  62.2686214  97.8781607  23.7203925  50.5821058 104.3595015
  22.9299999  50.4012518 104.6812351  24.1164547  49.8048011 104.3425310
  23.6620801  50.4408519 104.4047563  28.2069815  59.4108833  89.8001729
  28.9742800  59.4708958  89.3907580  27.7601124  58.8389274  89.3158047
  28.2543243  59.3345408  89.6679439  29.1047611  58.2163489 102.0854461
  28.4292613  57.9848721 102.5867848  29.1139987  57.6084671 101.4596566
  29.0066115  58.0922414 102.0670613  26.2341755  53.0581317 108.8418514
  26.1700896  53.9191274 108.7138651  26.3738943  52.7413311 108.0414065
  26.2457225  53.1381484 108.7046727  31.1064345  61.0728621  94.3164639
  31.1884183  61.8795607  93.9926090  31.5914088  61.0924580  95.0405412
  31.1901503  61.1949283  94.3751538  24.9160849  55.7513457 102.9834717
  24.4923098  55.9517956 102.2473735  24.7405704  54.9042305 103.0959017
  24.8271729  55.6562238 102.8908407  24.4172542  67.2663970 105.4456174
  24.9068472  66.5674759 105.2631839  23.8456774  66.9687840 106.0332232
  24.4057072  67.1190193 105.5057215  20.2043294  56.2465508  98.4162689
  20.3607913  56.1812311  99.2718682  20.5443887  57.0214061  98.2041369
  20.2776529  56.3514706  98.5117284  26.7422438  55.6223392  97.2856053
  27.2837984  55.1193773  97.7494673  27.0568997  55.5688587  96.4745538
  26.8686835  55.5402813  97.2339865  30.6139546  59.8326039 114.3982965
  31.4274411  59.5611188 114.5588097  30.4534512  59.5333579 113.5943161
  30.7109494  59.7480965 114.3028371  24.9108888  61.0140743  94.5696081
  24.9801708  60.1555282  94.7089081  25.6897343  61.2312624  94.2415105
  25.0361738  60.9193607  94.5413238  27.8911708  50.5159696 107.3378353
  28.1053677  49.8770611 106.7841707  27.2745607  50.9605520 106.9086215
  27.8317037  50.4869840 107.1928784  29.3016376  63.4378445  98.7832574
  28.9096167  63.1345160  98.0655440  29.4569448  64.2747535  98.5937528
  29.2669965  63.5162281  98.6489071  16.7777555  53.4300459  98.7323457
  17.1576520  53.8485004  98.0683724  16.2032920  54.0113914  99.0392300
  16.7488880  53.5778318  98.6800198  30.0550796  52.1248762 108.2761660
  29.2427477  51.8174652 108.3574833  30.5140730  51.6447762 108.8404372
  30.0031180  52.0085254 108.3716254  29.4656050  60.0028433  98.7238605
  29.1070705  60.1743076  99.5002637  28.9794761  60.4641639  98.1666603
  29.3414747  60.0967405  98.7563874  27.2826436  43.6259632 102.3265696
  26.4119994  43.5998353 102.2799005  27.5366778  43.4536824 101.5091542
  27.1919996  43.5969776 102.1985833  24.2544416  55.6827599  91.2638839
  24.5436941  56.4592481  91.5382413  24.3416215  55.1716330  91.9653338
  24.3098672  55.7219517  91.4081337  27.1504303  53.5308833 113.0590363
  27.6203934  54.1550949 113.4458237  27.1966183  52.8625808 113.6183577
  27.2272179  53.5243513 113.1990434  24.3075577  45.6365860 103.7839166
  23.7914065  44.9446052 103.9090745  23.7469506  46.3036637 103.7301765
  24.1482090  45.6329118 103.7945232  26.3767810  46.1758820 105.6132019
  25.9899563  46.2007852 106.3945549  25.8900748  45.6100499 105.1606535
  26.2480319  46.0954571 105.6619923  30.6260790  60.8932329 109.6705805
  31.2640510  60.3992525 109.3368261  29.9834881  60.8209730 109.0858032
  30.6255016  60.8091338 109.5348160  32.3517790  52.7421475 104.2371721
  31.9245398  52.6547824 103.4819821  31.7143843  52.8499251 104.8226565
  32.1947397  52.7454135 104.2117163  26.0424952  43.0625806 107.9042279
  26.6718070  43.5986106 107.6263349  26.2110815  42.9703165 108.7555844
  26.1602747  43.1287168 107.9890807  25.8438867  47.8497001 110.1768690
  26.6712296  47.5782150 110.2327305  25.8646713  48.6457842 110.5332509
  25.9691717  47.9276755 110.2383873  30.6815046  61.5852138 106.3111162
  31.4707424  61.2341202 106.4313244  30.8558644  62.3988526 106.0487796
  30.8235328  61.6537995 106.2899030  20.4208357  54.9960863 103.3638951
  19.5796363  54.8964738 103.5717845  20.6298365  55.7656344 103.7153272
  20.3273049  55.0952907 103.4466266  17.8983924  52.6180400 101.1923702
  17.5040621  52.6923412 100.4173811  17.3424041  53.0038347 101.7432063
  17.7586736  52.6862175 101.1591361  29.5348870  45.5961694 100.8727581
  29.7398464  45.5284002 101.7184578  29.2075294  46.4020516 100.8048758
  29.5164118  45.7047635 100.9887236  24.2325022  52.9242263 102.6136549
  23.9288159  52.3698251 103.2146956  23.5304442  53.1034473 102.1264583
  24.0841231  52.8687045 102.6306254  23.2891119  50.2342782  97.1781250
  23.5650853  49.5161695  96.7658818  23.8889788  50.8327702  96.9702356
  23.4184383  50.2163153  97.0862012  22.2943373  60.1391983 107.3208646
  22.1863728  60.1494045 108.1870704  22.5039154  60.9646764 107.1313600
  22.3093484  60.2633058 107.4212738  32.7882558  46.1493459 100.3530346
  32.1756872  46.6363861 100.7384078  32.8846733  45.4736950 100.8967997
  32.7120456  46.1211767 100.4909204  26.7901639  47.9056300  95.4527845
  27.2445386  48.0766860  96.1775690  27.2641685  47.2924410  95.0525621
  26.9269959  47.8407185  95.5001607  20.3117165  57.3904626 104.7830584
  19.7205098  58.0314124 104.7533599  21.0738188  57.8142243 104.7561883
  20.3365425  57.5480464 104.7745731  20.7077787  48.5506623 105.4498602
  21.1679269  48.6245553 106.1873725  20.7533894  49.3487878 105.0998423
  20.7828343  48.6800771 105.5071358  22.3561137  49.2173318 110.0170629
  21.9646702  48.5706665 110.4526406  22.5247000  49.8084754 110.6364884
  22.3232047  49.2087586 110.1733335  36.4307586  57.2210395 105.7807862
  36.4890710  57.6697044 106.5267839  35.7974054  57.6309208 105.3437942
  36.3458881  57.3484130 105.8260410  30.0706681  62.8413937 102.2162608
  29.8726369  63.3304752 101.5218820  29.4494392  63.0455179 102.7946742
  29.9494245  62.9430476 102.1985832  24.1314659  54.6098834  96.5572853
  24.8756704  54.9973110  96.7955803  24.2775355  53.7656260  96.7213340
  24.2625244  54.5429307  96.6166822  26.0494235  46.4049093 101.5904714
  25.2030280  46.5771901 101.4646064  26.0465367  45.5998437 101.9270542
  25.9241385  46.3110122 101.6215841  27.1192535  50.1824307 102.4566772
  26.6452489  49.6566070 102.9672083  27.4910671  49.6353780 101.8881634
  27.1042424  50.0240304 102.4481919  17.4965565  52.1795814 107.8250318
  18.3591178  52.0791523 107.7387648  17.1657348  51.5990523 107.2635890
  17.5750762  52.0787441 107.7295724  33.3829266  55.2426683 103.8673553
  33.1427489  54.4033098 103.8715979  33.8621273  55.3226850 104.5914326
  33.4181449  55.1308083 103.9748355  29.0476035  51.0760862  95.5192526
  28.5199053  51.1589606  94.8298235  29.5071743  51.8178734  95.5157170
  29.0377885  51.1981524  95.4167221  35.3834453  52.0228140 101.8202812
  35.1444223  51.9823974 100.9823596  35.5468354  52.8699292 101.9468533
  35.3724756  52.1420225 101.7156294  31.9880483  56.4078090 107.7507857
  32.7114682  55.9550616 107.5718877  31.7230445  56.6882755 106.9680185
  32.0561756  56.3829058 107.6086572  20.8567351  51.0038263 104.4860736
  20.2320421  51.0156655 103.8786689  20.5212946  51.4798438 105.1351976
  20.7152843  51.0756780 104.4917304  21.0409100  49.3463382  90.5433421
  20.6921904  49.9983107  91.0064970  20.5605546  49.3320495  89.8157292
  20.9179344  49.4406435  90.5044512  17.5693027  59.0638723 105.9264500
  17.0392951  58.3731162 105.9759475  17.8418120  59.0548909 105.0977209
  17.5317749  58.9605855 105.8111916  28.6013117  59.6464426  94.6502183
  29.3247316  60.1122539  94.5066756  28.1613708  59.7138035  93.8999780
  28.6428809  59.7248262  94.5186964  27.7699272  56.5061968 105.9002872
  27.1556265  55.9620018 106.1951507  28.2866557  55.9926204 105.4208688
  27.7554935  56.3498377 105.8727100  27.0095569  57.5766238 103.6347170
  26.5823177  56.9515957 103.2012606  27.0020514  57.2941160 104.4606178
  26.9454711  57.4419019 103.6926998  20.1258097  52.6131411 106.7035604
  20.2851583  51.8574735 107.1087326  19.9450990  53.1622351 107.3576342
  20.1223456  52.5825225 106.8598310  28.0678400  44.7792647 107.2586394
  27.5718961  44.9756321 106.5677961  28.8247462  45.1785315 107.0875196
  28.1065224  44.8670380 107.1306531  25.3381279  48.4534992 103.8489704
  25.3623766  47.9195105 103.1602484  25.5892753  47.9452301 104.5115295
  25.3791198  48.2995896 103.8454349  12.8488869  55.7366487 103.2832849
  12.7432318  55.6913332 102.4184933  12.0989089  56.0820268 103.5647133
  12.7224472  55.7807396 103.1970178  21.6182601  47.1805811 103.2295449
  21.6580973  47.6815017 103.9430156  20.7932266  47.2716204 102.9601372
  21.5022127  47.2687627 103.2945987  23.8012214  56.7466551 111.3315743
  22.9507845  56.8838265 111.4673388  23.9640342  56.0130329 111.7763445
  23.6996078  56.6580652 111.4171343  23.0396965  53.6966321 105.5269348
  22.2088894  53.8640138 105.3204596  22.9848482  53.3202271 106.3118233
  22.9086380  53.6656052 105.6117876  20.8480748  47.1875213 111.1625758
  21.4733451  46.6437346 111.4355191  20.3931228  46.7070131 110.5933549
  20.8729009  47.0364695 111.1187352  21.4133009  51.9721912  96.0559465
  21.5535970  52.4694376  96.7588107  21.9115541  51.2708206  96.1973679
  21.5074089  51.9423891  96.1811044  21.4433231  52.8389023  93.3852042
  22.0778310  53.4349448  93.3201504  21.5258842  52.5392481  94.1997912
  21.5489782  52.8829931  93.4955129  34.4215797  55.3704500 106.2538406
  35.0133637  56.0101751 106.2856605  34.8574791  54.6727537 106.5430473
  34.5734228  55.3622851 106.3019239  23.0212214  48.7702998  93.3597484
  23.3428055  48.2906081  92.7056747  23.2839158  49.5802645  93.1688296
  23.1078239  48.8192896  93.2352976  26.2509187  59.7921873 106.8796300
  25.7434278  60.3457720 107.3236931  25.9535833  59.8530163 106.0615075
  26.1314072  59.8828184 106.8244757  28.4171369  48.1575192 105.7220963
  28.8426440  47.7047719 105.1104490  27.8028362  47.6035263 105.9985751
  28.3900014  48.0089169 105.6725989  17.9486219  55.0356864  96.6541588
  18.4578448  55.6321371  97.0352894  18.4220491  54.7682837  95.9718008
  18.0929595  55.0842679  96.6096111  28.8616967  63.7085131  94.8100244
  28.1446277  63.5345993  94.3447481  29.5123704  63.4737703  94.2775730
  28.8518817  63.6480923  94.6629462  26.8565592  44.6290292  99.1311540
  26.2133910  44.4787939  99.6996679  26.5164999  44.3832638  98.3660645
  26.7110669  44.5702415  99.1014556  31.4464938  52.5849719  98.5541549
  30.7756128  53.1279421  98.4254615  32.1404688  53.0544574  98.3123244
  31.4493806  52.7347990  98.4997077  25.4951672  64.7246431 103.7853307
  25.2717326  63.9665260 104.1537334  25.0061515  64.7544452 103.0633747
  25.3895121  64.6168656 103.7330048  31.6093066  49.0405603 101.4631922
  31.9620676  48.6135326 102.1377721  30.7507867  48.9556446 101.5932999
  31.5342510  48.9650343 101.5826933  20.3076751  51.6713122  99.5214769
  19.5888740  52.0877255  99.7887632  20.6789113  52.2367361  98.9706407
  20.2568682  51.8162404  99.4797576  29.6076331  52.3040971 105.4116764
  29.5874259  52.1224266 106.2651543  29.6555532  53.1752990 105.3876348
  29.6110972  52.4057510 105.5340059  27.5522661  58.8928163 111.3365241
  27.5118516  58.2477840 110.7510397  28.3645979  58.8364781 111.6490653
  27.6665815  58.7887130 111.2962190  24.1430129  64.9446889 101.2390392
  23.7290527  64.2821019 100.8494234  24.8277503  65.0924748 100.7186086
  24.1828500  64.8687547 101.1046889  27.5095423  64.1036974 101.9914008
  27.1111706  64.2139245 101.2234829  26.8946642  64.3119041 102.5740568
  27.3594312  64.1510542 101.9645308  26.0823325  50.7111122  94.8588148
  25.4888164  51.0328119  94.3072715  26.1198603  49.8652218  94.6509254
  25.9997714  50.6335451  94.7470919  33.0417126  44.1624015 102.3916235
  32.5347990  43.4553154 102.3237412  33.8384559  43.8317203 102.5217311
  33.0844365  44.0097166 102.4015230  28.9581142  50.6690627  98.2889898
  28.7294835  50.6923328  97.4468257  29.2179218  49.8448094  98.4084909
  28.9627330  50.5506707  98.1815096  23.2400370  52.5225100 107.8914999
  22.7279273  51.9146283 108.2500030  23.0679866  53.2381692 108.3588974
  23.1390007  52.5388399 108.0131222  18.0866085  50.9662675 110.5417360
  17.9168675  51.6264050 109.9965567  17.6432035  51.1769236 111.2629850
  17.9965418  51.0948657 110.5678990  22.0125904  49.2067173  99.5844094
  22.4883270  49.5684253  98.9494275  21.5114504  49.8623641  99.8644237
  22.0091263  49.3561362  99.5320835  35.2437266  58.6788941  95.3757099
  35.6270871  59.4280297  95.6055196  34.4481379  58.9254761  95.1169088
  35.1831048  58.8258635  95.3714673  27.1169440  50.4449344 110.3317254
  27.6740870  50.2163154 109.6995720  26.7930505  51.2055010 110.0552467
  27.1515850  50.5233181 110.1973751  14.9868149  53.8709541 105.8005850
  14.4394869  53.2010186 105.9186719  15.7760527  53.5039389 105.8649318
  15.0220333  53.7174527 105.8274551  24.8352558  53.5316998 111.2969261
  25.5863885  53.8468675 111.6108815  25.0275134  53.3296169 110.4703183
  24.9743972  53.5484380 111.2212657  24.0552557  51.3508373  92.9517478
  24.4351522  51.3688002  92.1668593  23.3145153  51.7962362  92.8308325
  24.0021395  51.4190148  92.8181046  31.6837848  49.6590564  98.5393057
  31.6832074  49.5039221  99.3977333  31.4794028  50.5053551  98.4834442
  31.6537626  49.7611185  98.6580996  13.7455119  53.0830349 102.9551873
  13.5676880  52.6306958 103.6806789  13.4574141  53.8856510 103.1390351
  13.6768072  53.1352906 103.0895376  29.4078700  54.3388066 102.1929264
  29.9032365  53.6211061 102.1533284  28.5978475  54.0358864 102.0783751
  29.3622593  54.1885712 102.1702989  24.8537311  58.1885879  94.3426268
  24.0448634  57.8652553  94.2959578  25.3612220  57.4819101  94.2754517
  24.8086978  58.0367196  94.3256562  15.4827589  55.6158072 100.0673632
  14.6173108  55.6043763  99.9556404  15.5826404  55.4288295 100.9144772
  15.3701755  55.5864134 100.1762577  31.4730519  57.0891753 104.8806392
  31.8985590  56.5666175 104.3276817  31.1087438  57.6872591 104.3595015
  31.4817121  57.1001980 104.7215402  21.1084598  65.3855971 103.6403738
  21.4231157  66.1992359 103.6481520  21.5178012  65.0006190 104.3085897
  21.2152696  65.4484673 103.7407830  28.0609118  60.8026018 101.2107550
  28.5320296  61.5166280 101.3797535  28.3969297  60.2024768 101.7467419
  28.1804233  60.8197482 101.3139926  30.1486103  62.4127331 113.3899622
  30.2583068  61.6235892 113.7456369  30.4776999  62.3233267 112.5873960
  30.2138508  62.2833184 113.3242013  24.9778613  45.5753488 108.1665645
  25.1106519  44.7784482 108.4946620  25.3623766  46.1019891 108.7463920
  25.0534942  45.5353405 108.3009148  28.6983064  60.5943952 107.9735242
  28.1504010  59.9701835 107.7055308  29.1596093  60.7838224 107.2579322
  28.6850274  60.5303002 107.8285674  28.0510968  42.4983814 104.7646738
  27.2456932  42.3881544 105.0814576  27.9217704  42.5996270 103.9076604
  27.9131101  42.4967484 104.6854778  31.5076929  48.6629306 105.3586435
  30.9239918  49.1638513 104.9464002  31.8281223  48.1558862 104.7250758
  31.4690104  48.6621141 105.2044942  24.0471728  47.5769901  95.6345110
  24.8687422  47.7468214  95.3926804  23.5841379  47.7317162  94.9111407
  24.1002890  47.6251634  95.4916754  22.6367060  45.5712663 106.4143538
  23.1811473  45.2303790 107.0047880  22.6903996  46.4298125 106.5564823
  22.7256179  45.6467923 106.5225412  18.4497619  59.3329079 103.2882346
  19.0542476  59.2924913 102.6596167  18.2424931  60.1800231 103.3186402
  18.5086516  59.4517082 103.1998463  28.2641391  61.5995025 104.5044584
  29.0839764  61.4557991 104.7660879  27.9835468  62.2241223 105.0461022
  28.3438134  61.6705377 104.6232523  13.6848901  58.3163697 103.1581269
  13.5873179  57.5059968 103.4671326  14.4677771  58.2955490 102.7727538
  13.7865037  58.1930787 103.1468132  44.7355041  69.2559876  97.4687460
  44.7049045  70.1104513  97.6405729  45.3336390  68.9555169  98.0273604
  44.8192199  69.3376373  97.5762262  37.9354726  68.3435527 102.2240390
  37.0792621  68.5044025 102.2749507  37.9822380  67.4727591 102.2445452
  37.8153837  68.2386329 102.2346456  32.3195866  77.8798245  97.9877622
  31.5678765  77.5013783  97.7593667  32.7681877  77.9116679  97.2396432
  32.2745532  77.8283852  97.8435124  41.2448442  74.6122053 111.8300847
  41.9515210  74.1174084 111.9587781  41.4336378  75.0531134 111.1003505
  41.3776348  74.6040403 111.7409892  37.7720825  78.3023615  93.4163169
  37.4372194  78.9800536  92.9807391  38.2847696  77.9128926  92.8280041
  37.7986407  78.3448193  93.2649961  37.3125117  80.2537883  99.3574281
  37.6964496  80.8224782  98.8179056  37.2484258  79.5287394  98.8780097
  37.3598544  80.2313347  99.2068143  40.7806547  70.4027571 104.8672042
  41.3262507  71.0812658 104.9266012  40.7223423  70.2615032 104.0073624
  40.8522461  70.4819573 104.7484103  33.8980622  77.8916637 100.2540395
  33.9990985  77.0816991 100.5637522  33.3022367  77.7973584  99.6240073
  33.8253160  77.7581665 100.2066633  42.5571616  71.8312178  95.7405770
  42.4411142  72.5819864  96.1697908  43.3527502  71.5736132  95.9901857
  42.6576205  71.9047025  95.8409862  33.7381361  82.8094226 101.6555251
  34.3818817  83.2507390 102.0451409  34.0637617  82.0047653 101.5685509
  33.8813190  82.7559421 101.7000728  27.0945666  73.9136924  99.8792728
  26.8595851  73.0804576  99.7724997  27.2331307  74.1941590  99.0653929
  27.0801329  73.8320427  99.7435083  29.3935754  66.0822654 102.7777036
  28.7740785  65.4915302 102.6087051  29.2919617  66.6734090 102.1441359
  29.2873429  66.0826737 102.6582025  34.4401941  75.8206201  97.0275112
  34.7617782  76.3611409  96.4236420  35.0874038  75.2502973  97.1597402
  34.5827996  75.8165376  96.9582148  36.4903649  67.8222196  97.1109499
  37.1883814  68.0010324  97.6030962  36.8055982  67.2992536  96.4879888
  36.6398986  67.7715968  97.0911509  29.1204887  69.6274936 105.0220605
  28.9963583  70.2137382 105.6570424  29.7723171  69.1335132 105.3232880
  29.1978536  69.6413741 105.1606534  36.6791585  74.2092641  97.0989290
  37.1185220  73.6009742  97.5444063  36.5296247  73.8300015  96.3274755
  36.7213050  74.0631112  97.0508458  34.1463228  72.8036653 104.3008116
  34.7912230  72.3109096 103.9819064  34.3865005  72.9461440 105.1274194
  34.2773813  72.7514095 104.3757649  36.6849319  75.6491559 103.9515009
  36.9672562  74.8542965 103.7301764  37.4135479  76.1272146 103.9720070
  36.8338883  75.6026156 103.9218024  34.6630513  63.1914593 101.1930774
  34.3333843  63.6425736 100.5234472  33.9875515  63.1130756 101.7403780
  34.5140949  63.2465728 101.1753997  40.2800921  72.5619823  94.0520060
  40.1952216  73.4180789  94.1969629  40.7685304  72.2864147  94.7202219
  40.3389818  72.6477144  94.1722141  41.8706921  59.1800116  99.4380384
  41.5560362  59.8703594  99.8700807  41.3533862  59.1244898  98.7365885
  41.7471391  59.2735004  99.3977333  41.2119354  69.1804617  95.5517795
  40.6830826  69.3964250  96.2115101  41.7344374  69.8740755  95.4718764
  41.2107807  69.3147754  95.6373394  46.6667407  74.7550921 100.9250839
  45.8365110  74.9661565 101.0884256  46.6176660  73.9287976 100.6493123
  46.5374143  74.6640527 100.9088205  33.1018962  73.0767833  94.3525263
  32.5176177  73.5817865  94.7591127  32.6989057  72.8510220  93.6121855
  32.9558266  73.1176082  94.3030288  28.6562991  78.7922595 101.1548934
  28.1730569  79.5173084 101.1308518  29.4686309  79.0898725 101.2659092
  28.7053738  78.9424948 101.1676214  34.7277145  77.5854775 103.7598749
  34.2104086  77.2262190 103.1560057  35.4251536  77.0616950 103.7704815
  34.7542726  77.4552463 103.6729008  38.3840737  78.0349589 109.7214922
  38.4724083  77.8475730 110.5693132  38.8130449  77.3887019 109.3219769
  38.4602839  77.9112597 109.7886673  35.9511197  77.3180749 108.7032584
  35.3882031  76.9053359 109.2272245  36.7132220  77.2433655 109.1225727
  35.9805645  77.2458150 108.8425584  37.5596177  69.3233486  92.8294183
  37.7992180  69.5311469  92.0169527  37.8812018  68.5190994  92.9383128
  37.6433334  69.2347587  92.7254736  32.8686467  61.2526881  96.6753721
  33.6232435  61.6205198  96.4370772  32.6914001  61.6266436  97.4432901
  32.9540945  61.3625069  96.7538610  31.5107188  79.3078771 101.3069214
  32.2127767  78.7930760 101.3641971  31.4304671  79.6352922 102.1116089
  31.6030948  79.2792997 101.4342006  46.1621366  67.4021322 104.7201261
  45.3249787  67.4723509 104.9548855  46.1309596  67.4045817 103.8475563
  46.0339648  67.4131549 104.6260809  32.5586095  69.5454357 110.4349629
  32.7306598  69.4360252 111.2834911  33.0955452  70.1908763 110.1980822
  32.6631099  69.6246359 110.5254726  31.2243531  63.6597200  93.3731834
  31.0419105  63.8769081  92.5472827  32.0869144  63.7736213  93.4290449
  31.3248121  63.7087098  93.2586321  30.8357963  75.4985123 100.8154822
  31.6746863  75.7308055 100.8628584  30.8669733  74.6289434 100.7461858
  30.9639681  75.4042069 100.8119467  31.4610666  75.9185998 105.1168128
  32.0008891  75.7757129 105.7871500  30.7780613  76.3182748 105.4852154
  31.4402820  75.9565669 105.2702549  36.9043251  60.6623611  96.4080858
  37.6329411  60.4839566  95.9619014  36.9938144  61.5041691  96.6188036
  37.0249913  60.7607489  96.3734376  40.8851551  71.5976998 100.3113152
  41.6409066  72.0308513 100.3502061  40.9913876  70.9481768 100.8847788
  41.0121722  71.5654482 100.4011178  43.9231722  75.4250276 101.0615555
  43.4866954  75.4287018 101.8174527  43.5894638  76.1055775 100.6295133
  43.8094342  75.5262731 101.1096388  38.4960796  77.4658608 112.3858705
  39.2801213  77.5789456 112.7514448  38.2957391  76.6399745 112.5817391
  38.5826821  77.3605328 112.4693091  26.8647812  72.1386288 105.2702549
  26.5986227  71.3225405 105.4293540  26.8786376  72.1839444 104.3998065
  26.8272534  72.0243193 105.1656031  43.8429205  62.4664103 103.3044983
  44.4855114  62.5362208 103.8906898  44.0952226  61.7993326 102.8024525
  43.9751337  62.3790452 103.3172262  30.7705558  66.9371373  91.8854307
  30.0563736  66.6509552  92.2976740  31.2549527  67.2767999  92.5260695
  30.7364922  66.9453023  92.0409942  31.6146418  65.6764667 107.9169557
  30.9218215  65.2061646 108.1630289  32.2306745  65.4502971 108.4911264
  31.6030948  65.5731799 108.0378710  38.6531189  79.3768710 106.0325161
  37.8546435  79.1368211 106.2899030  39.1017201  79.4283103 106.7792209
  38.6005801  79.3491102 106.1810085  47.0576069  72.1431195  99.9535192
  47.7192503  71.5821864  99.8531101  46.4167481  71.6483226 100.2787884
  47.0604936  71.9867605  99.9867533  37.9452876  75.4401327  92.2616116
  38.3604025  75.1086351  91.5700611  37.1144806  75.2070229  92.1336252
  37.8840885  75.3572583  92.1406963  27.2741225  72.9245068 102.5514294
  27.0916798  72.8991954 101.6986586  28.0090894  73.3944006 102.5903202
  27.3555289  72.9906430 102.4312212  43.3440899  73.1596578  99.6947181
  43.5796489  73.3041777  98.8674032  43.4930463  73.9238986 100.0878695
  43.4006703  73.2935632  99.6310785  30.3386977  69.6430071 109.0596402
  31.0626949  69.6283101 109.5461297  30.4403113  70.3525426 108.5618370
  30.4605186  69.7454774 109.0575189  45.1731356  71.9998244  97.5316785
  45.5039573  72.5325884  96.9256880  45.7464444  72.0537132  98.1878736
  45.3065035  72.0867813  97.5394567  37.7131926  73.1229155 113.9245349
  36.9204907  73.4372667 114.1097969  37.8280853  73.3380624 113.0866134
  37.6127337  73.2012992 113.8283684  40.3863245  69.8463147  98.2140365
  40.4810100  70.5852441  98.6679991  39.7622089  69.4180622  98.6474930
  40.3072275  69.8924467  98.3448513  38.6415719  73.0249359 108.8630646
  39.2154581  72.3876603 109.0179210  38.5630523  73.0253442 107.9940304
  38.7148954  72.9314471 108.7577057  27.2412136  69.8038569 102.7013360
  27.8185638  69.6675019 103.3405605  26.5426197  69.3474353 102.9558945
  27.2233157  69.7160835 102.8335650  40.6386267  71.6911886  91.4477317
  40.5566429  71.7614073  92.3132304  41.2765987  72.2541630  91.2561058
  40.7206104  71.7850857  91.5467267  33.9979438  71.4572624 100.9151843
  33.7398682  70.6244359 100.8883143  34.0527921  71.6830237 100.0744344
  33.9679216  71.3670396 100.7871980  39.0780488  63.5601075 101.0155936
  38.3736815  63.0710260 101.1739855  39.1265462  63.5723549 100.1444380
  38.9810539  63.4890723 100.9095276  32.9714150  69.0110387 101.4016738
  32.3963741  69.1702555 102.0380699  32.5949826  68.3745796 100.9385189
  32.8316962  68.9408200 101.4271297  36.6387438  67.4833736 106.2609117
  36.2501871  67.0587954 105.6061308  35.9742137  67.7315886 106.7686143
  36.4834366  67.4572457 106.2396984  46.2810708  67.2408741  99.0356947
  46.0247272  66.4288682  98.8454829  47.1240022  67.2486308  98.8087134
  46.3676733  67.1220738  98.9741764  22.7170969  68.6550461  99.4161179
  22.8031221  68.2782330 100.1974709  23.3446766  68.2810907  98.9381137
  22.8227520  68.5435944  99.4606656  40.4613800  61.1808365 103.7733101
  40.8424312  60.4986536 104.1600975  39.6577084  60.8917967 103.5908765
  40.3990262  61.0375413 103.8037157  37.7426377  71.7132341  94.4585924
  38.5567016  72.0047233  94.3468695  37.6785518  71.0592203  93.8844216
  37.8529116  71.6597535  94.3574761  43.9635867  74.3958337 108.8715499
  43.7274504  73.5646402 108.7527560  44.6079096  74.3443944 109.4570343
  44.0230538  74.2656025 108.9401393  33.6134285  75.1853858  99.5858236
  34.2508232  74.9465606 100.1310029  34.0389357  75.3891017  98.8511396
  33.7710451  75.1804868  99.5575393  28.3046927  77.4242195 103.4692539
  28.3451073  77.6957046 102.6412319  28.8641451  77.9484103 103.8850327
  28.3930273  77.5417950 103.4084428  34.2537100  70.4056148  93.9233125
  34.6382253  70.1863855  94.6749670  34.0048720  71.2319093  94.0534201
  34.2739173  70.4954294  94.0534201  34.4205640  63.6862563 113.6395709
  34.1059082  64.4562126 113.3765272  34.0995573  63.1232819 113.0547936
  34.3264560  63.7172832 113.5137059  44.9872288  74.1802785 104.9343794
  44.6818105  74.9130842 105.2957109  44.2678503  73.7740715 104.6536580
  44.8359630  74.2284518 104.9456931  35.9955757  75.6626281 101.2652022
  36.0694765  75.5001453 102.1193872  36.8125263  75.8516470 101.0212504
  36.1272116  75.6663023 101.3550047  50.6874080  70.8195786 104.2612138
  50.6198580  70.8391745 103.3914724  50.6729742  71.6626113 104.4867808
  50.6752836  70.9469521 104.1664615  29.7561514  76.0084143  98.2946465
  28.9299631  76.2545881  98.1680744  29.8173505  75.9296224  99.1608523
  29.6435681  76.0329092  98.4035410  31.9737537  62.0753084  99.2541906
  31.1059963  62.1475684  99.3199515  32.2612742  62.8775163  99.4429881
  31.8877286  62.2047232  99.2916672  41.0970426  62.2230944 107.5853227
  41.8424018  62.0340754 107.1716653  40.6807731  62.7489182 107.0267084
  41.1455400  62.2733089 107.4417801  34.5360343  78.6261024  95.9965495
  34.8258641  78.2350005  95.2724722  35.2663824  78.8077729  96.4370771
  34.6867227  78.5954837  95.9548302  48.4732697  69.5940172 102.5358732
  49.0240619  68.9608241 102.7755824  48.4576812  70.1255565 103.2274237
  48.5517893  69.5789121 102.6737591  35.1255088  73.4278770 107.0818626
  34.6266782  74.1394537 107.1603514  35.9355312  73.7479436 107.0436788
  35.1711195  73.5805618 107.0875194  32.4766258  80.6028406  99.0625645
  32.2566554  80.3125761  99.8552312  32.2560780  79.9443361  98.5343557
  32.4113852  80.4628115  99.1014554  31.3883205  72.6901723 101.3281347
  31.0996454  72.0639194 101.8627074  32.2566554  72.6322010 101.3946027
  31.4743457  72.5889267 101.4172301  42.1761103  67.8336506 101.6463329
  41.8325869  67.1126841 101.9970578  42.2754146  67.6250357 100.8041687
  42.1403146  67.6960709 101.5735009  34.6434214  81.9757796  97.8456337
  35.2958272  81.4434238  98.0747363  33.9459823  81.6226448  98.2324211
  34.6364932  81.8447319  97.9368505  31.5915479  74.3296974  97.2523712
  32.3461447  74.7110013  97.4659174  30.9986092  74.7808117  97.7070408
  31.6152192  74.4525801  97.3506590  42.6374132  74.2962210  97.1887317
  43.2032165  74.9555420  97.1045860  41.9902036  74.6411908  97.6603719
  42.6252889  74.4444151  97.2460073  34.0522146  66.2859814 112.3780924
  33.2421922  66.5917594 112.2670766  34.5296833  67.0065396 112.4933508
  34.0025625  66.4374415 112.3787995  32.9113705  75.5005535 102.6263827
  32.3894459  75.6405827 103.3115692  33.2987726  74.7416199 102.8165944
  32.8917406  75.4091059 102.7564904  29.9004889  65.5511344  96.6958782
  29.6129685  65.1812614  95.9590729  30.5875358  66.0206199  96.4342487
  29.9593787  65.5658313  96.5473858  39.1080710  77.2400994  96.6124396
  38.8667386  76.5068855  96.2051461  39.2882043  77.7887851  95.9590729
  39.0988334  77.2123385  96.4554619  34.3380031  72.5309554  98.0245318
  34.1422814  73.1384289  97.4305621  34.5614377  71.8377498  97.5436992
  34.3414672  72.5187080  97.8661399  32.7358561  69.4164292  98.1426186
  33.4581213  69.5805450  97.6829992  32.2566554  70.1373957  98.0365526
  32.7722292  69.5462522  98.0591800  40.6952069  65.7528091 103.5222871
  39.8563169  65.7789370 103.2861135  40.7656436  66.3998826 104.1028218
  40.5820462  65.8524217 103.5731988  30.3866178  71.8222364 107.2480326
  30.8987275  72.1006618 106.5989086  30.1002520  72.5611658 107.6143139
  30.4201041  71.9724718 107.2070204  39.1421347  62.6513468  98.2550487
  39.8447700  62.4521216  97.7770446  38.8765536  61.8789410  98.5619331
  39.2067979  62.5076434  98.2295929  44.5709592  70.9596078 100.8084113
  44.4843567  71.1151504 101.6618892  44.1160072  71.6034153 100.4343518
  44.4912849  71.0771833 100.8791220  27.4733084  66.3292556  97.5444063
  27.5749221  67.1318718  97.8725038  28.2688971  66.1279892  97.2467143
  27.6060990  66.4178455  97.5479418  33.9049903  63.9148753 107.3081368
  33.7133100  63.9303887 108.1580791  34.7548499  64.1112427 107.2848023
  34.0025625  63.9463104 107.4304663  28.2896816  66.4439734 105.2865184
  28.1482308  65.5923675 105.4109692  28.5737380  66.4868395 104.4627390
  28.3104662  66.3239484 105.1832808  38.4435409  68.2806825  99.4309673
  38.1970123  68.2002576 100.2646462  38.7720532  67.4960293  99.2372200
  38.4556652  68.1533090  99.5257196  42.3383457  74.9890184 103.2196454
  42.1997817  75.6871230 103.7245196  41.5583455  74.8338840 102.8632636
  42.2026684  75.0690351 103.2422728  40.6761543  71.2886559 109.4718836
  40.6709581  70.4166376 109.4761262  41.3822536  71.4874729 108.9988291
  40.7806547  71.1890434 109.4025871  34.4032436  71.0163543 108.8432656
  34.5475812  71.5964751 108.2075766  34.7508084  71.3939840 109.5482510
  34.4759897  71.1584247 108.8531651  36.5752353  70.2153712 106.6257787
  35.8275667  70.4084726 106.2206065  36.7293878  69.3898931 106.3881909
  36.4874781  70.1218823 106.5303193  33.4760191  79.2066315 105.7093683
  33.6249755  78.6469231 105.0567087  34.2560193  79.2858317 106.0926201
  33.6134284  79.1351881 105.6690632  43.8336830  74.3468438  93.9812953
  43.4543639  73.5605576  93.9742242  43.1703076  74.8955295  93.8384597
  43.6795305  74.3113262  93.9593750  36.0013491  79.3780958 106.9878173
  35.9257163  78.7089769 107.5428962  35.9303351  80.0798746 107.5018840
  35.9794098  79.3825865 107.1455022  36.8154130  64.1104262 107.5153191
  37.2726744  64.8428237 107.6425983  36.8910459  63.6870728 108.2740447
  36.8945100  64.1561500 107.6454268  29.0587121  64.3570082 108.6042635
  28.5229311  63.7450440 108.9203402  29.1204886  64.9318218 109.2576301
  28.9882754  64.3517010 108.7478062  41.2881456  57.2894138 101.3847034
  41.4065024  57.7470601 100.6514337  41.1143632  56.4839399 101.0983252
  41.2800627  57.2387910 101.2347968  36.6583738  77.8981957  97.8201779
  37.4233629  77.6291601  97.4984444  36.5561828  77.4131967  98.5371842
  36.7565234  77.7871521  97.8781607  34.6936508  66.1006366 104.3595015
  33.9032583  65.9197826 104.6812351  35.0897131  65.3233319 104.3425310
  34.6353384  65.9593827 104.4047563  39.1802399  74.9294141  89.8001729
  39.9475384  74.9894266  89.3907580  38.7333708  74.3574582  89.3158047
  39.2275826  74.8530716  89.6679439  40.0780194  73.7348796 102.0854461
  39.4025196  73.5034029 102.5867848  40.0872571  73.1269979 101.4596566
  39.9798699  73.6107722 102.0670613  37.2074338  68.5766625 108.8418514
  37.1433480  69.4376582 108.7138651  37.3471526  68.2598619 108.0414065
  37.2189808  68.6566792 108.7046727  42.0796929  76.5913929  94.3164639
  42.1616766  77.3980915  93.9926090  42.5646671  76.6109888  95.0405412
  42.1634087  76.7134591  94.3751538  35.8893432  71.2698765 102.9834717
  35.4655681  71.4703264 102.2473735  35.7138287  70.4227613 103.0959017
  35.8004313  71.1747546 102.8908407  35.3905126  82.7849278 105.4456174
  35.8801056  82.0860067 105.2631839  34.8189358  82.4873148 106.0332232
  35.3789656  82.6375501 105.5057215  31.1775877  71.7650816  98.4162689
  31.3340496  71.6997619  99.2718682  31.5176470  72.5399369  98.2041369
  31.2509112  71.8700014  98.5117284  37.7155022  71.1408700  97.2856053
  38.2570567  70.6379081  97.7494673  38.0301581  71.0873894  96.4745538
  37.8419419  71.0588121  97.2339865  41.5872129  75.3511347 114.3982965
  42.4006995  75.0796496 114.5588097  41.4267096  75.0518887 113.5943161
  41.6842078  75.2666273 114.3028371  35.8841472  76.5326051  94.5696081
  35.9534292  75.6740590  94.7089081  36.6629927  76.7497932  94.2415105
  36.0094322  76.4378915  94.5413238  38.8644291  66.0345004 107.3378353
  39.0786261  65.3955918 106.7841707  38.2478190  66.4790828 106.9086215
  38.8049621  66.0055148 107.1928784  40.2748959  78.9563753  98.7832574
  39.8828751  78.6530468  98.0655440  40.4302031  79.7932843  98.5937528
  40.2402549  79.0347589  98.6489071  27.7510139  68.9485767  98.7323457
  28.1309104  69.3670312  98.0683724  27.1765504  69.5299222  99.0392300
  27.7221464  69.0963625  98.6800198  41.0283379  67.6434069 108.2761660
  40.2160061  67.3359960 108.3574833  41.4873314  67.1633070 108.8404372
  40.9763764  67.5270562 108.3716254  40.4388634  75.5213741  98.7238605
  40.0803289  75.6928384  99.5002637  39.9527345  75.9826947  98.1666603
  40.3147331  75.6152712  98.7563874  38.2559020  59.1444940 102.3265696
  37.3852578  59.1183661 102.2799005  38.5099361  58.9722132 101.5091542
  38.1652580  59.1155084 102.1985833  35.2276999  71.2012907  91.2638839
  35.5169524  71.9777789  91.5382413  35.3148798  70.6901638  91.9653338
  35.2831256  71.2404825  91.4081337  38.1236887  69.0494141 113.0590363
  38.5936518  69.6736257 113.4458237  38.1698767  68.3811116 113.6183577
  38.2004763  69.0428821 113.1990434  35.2808160  61.1551168 103.7839166
  34.7646649  60.4631360 103.9090745  34.7202089  61.8221945 103.7301765
  35.1214674  61.1514426 103.7945232  37.3500394  61.6944128 105.6132019
  36.9632147  61.7193160 106.3945549  36.8633331  61.1285807 105.1606535
  37.2212903  61.6139879 105.6619923  41.5993373  76.4117637 109.6705805
  42.2373094  75.9177833 109.3368261  40.9567465  76.3395038 109.0858032
  41.5987600  76.3276646 109.5348160  43.3250373  68.2606783 104.2371721
  42.8977981  68.1733132 103.4819821  42.6876426  68.3684559 104.8226565
  43.1679981  68.2639443 104.2117163  37.0157536  58.5811114 107.9042279
  37.6450654  59.1171414 107.6263349  37.1843398  58.4888473 108.7555844
  37.1335330  58.6472476 107.9890807  36.8171450  63.3682309 110.1768690
  37.6444880  63.0967457 110.2327305  36.8379297  64.1643150 110.5332509
  36.9424301  63.4462063 110.2383873  41.6547630  77.1037446 106.3111162
  42.4440008  76.7526510 106.4313244  41.8291228  77.9173834 106.0487796
  41.7967912  77.1723303 106.2899030  31.3940940  70.5146171 103.3638951
  30.5528947  70.4150046 103.5717845  31.6030948  71.2841652 103.7153272
  31.3005633  70.6138215 103.4466266  28.8716507  68.1365708 101.1923702
  28.4773205  68.2108720 100.4173811  28.3156624  68.5223655 101.7432063
  28.7319320  68.2047483 101.1591361  40.5081454  61.1147002 100.8727581
  40.7131047  61.0469310 101.7184578  40.1807878  61.9205824 100.8048758
  40.4896702  61.2232943 100.9887236  35.2057605  68.4427571 102.6136549
  34.9020743  67.8883559 103.2146956  34.5037026  68.6219781 102.1264583
  35.0573815  68.3872353 102.6306254  34.2623702  65.7528090  97.1781250
  34.5383437  65.0347003  96.7658818  34.8622372  66.3513010  96.9702356
  34.3916967  65.7348461  97.0862012  33.2675956  75.6577291 107.3208646
  33.1596311  75.6679353 108.1870704  33.4771738  76.4832072 107.1313600
  33.2826067  75.7818366 107.4212738  43.7615142  61.6678767 100.3530346
  43.1489455  62.1549169 100.7384078  43.8579317  60.9922257 100.8967997
  43.6853039  61.6397075 100.4909204  37.7634223  63.4241608  95.4527845
  38.2177969  63.5952168  96.1775690  38.2374269  62.8109718  95.0525621
  37.9002543  63.3592493  95.5001607  31.2849748  72.9089934 104.7830584
  30.6937681  73.5499432 104.7533599  32.0470772  73.3327551 104.7561883
  31.3098009  73.0665772 104.7745731  31.6810371  64.0691931 105.4498602
  32.1411853  64.1430861 106.1873725  31.7266478  64.8673185 105.0998423
  31.7560926  64.1986079 105.5071358  33.3293721  64.7358626 110.0170629
  32.9379286  64.0891973 110.4526406  33.4979583  65.3270062 110.6364884
  33.2964631  64.7272894 110.1733335  47.4040170  72.7395703 105.7807862
  47.4623293  73.1882352 106.5267839  46.7706637  73.1494516 105.3437942
  47.3191465  72.8669438 105.8260410  41.0439264  78.3599245 102.2162608
  40.8458953  78.8490060 101.5218820  40.4226975  78.5640487 102.7946742
  40.9226829  78.4615784 102.1985832  35.1047243  70.1284142  96.5572853
  35.8489288  70.5158418  96.7955803  35.2507939  69.2841567  96.7213340
  35.2357828  70.0614615  96.6166822  37.0226818  61.9234401 101.5904714
  36.1762863  62.0957209 101.4646064  37.0197951  61.1183745 101.9270542
  36.8973968  61.8295430 101.6215841  38.0925119  65.7009615 102.4566772
  37.6185073  65.1751377 102.9672083  38.4643254  65.1539088 101.8881634
  38.0775008  65.5425612 102.4481919  28.4698149  67.6981122 107.8250318
  29.3323762  67.5976831 107.7387648  28.1389932  67.1175831 107.2635890
  28.5483345  67.5972749 107.7295724  44.3561849  70.7611991 103.8673553
  44.1160072  69.9218406 103.8715979  44.8353856  70.8412158 104.5914326
  44.3914033  70.6493391 103.9748355  40.0208618  66.5946170  95.5192526
  39.4931637  66.6774914  94.8298235  40.4804326  67.3364041  95.5157170
  40.0110469  66.7166832  95.4167221  46.3567036  67.5413448 101.8202812
  46.1176806  67.5009282 100.9823596  46.5200937  68.3884600 101.9468533
  46.3457340  67.6605533 101.7156294  42.9613066  71.9263398 107.7507857
  43.6847265  71.4735924 107.5718877  42.6963029  72.2068063 106.9680185
  43.0294340  71.9014366 107.6086572  31.8299935  66.5223571 104.4860736
  31.2053005  66.5341963 103.8786689  31.4945530  66.9983746 105.1351976
  31.6885427  66.5942088 104.4917304  32.0141683  64.8648690  90.5433421
  31.6654488  65.5168415  91.0064970  31.5338129  64.8505803  89.8157292
  31.8911927  64.9591743  90.5044512  28.5425610  74.5824031 105.9264500
  28.0125535  73.8916470 105.9759475  28.8150704  74.5734217 105.0977209
  28.5050333  74.4791163 105.8111916  39.5745701  75.1649734  94.6502183
  40.2979900  75.6307847  94.5066756  39.1346292  75.2323343  93.8999780
  39.6161393  75.2433570  94.5186964  38.7431856  72.0247276 105.9002872
  38.1288849  71.4805326 106.1951507  39.2599141  71.5111512 105.4208688
  38.7287518  71.8683685 105.8727100  37.9828153  73.0951546 103.6347170
  37.5555761  72.4701264 103.2012606  37.9753097  72.8126468 104.4606178
  37.9187294  72.9604326 103.6926998  31.0990680  68.1316719 106.7035604
  31.2584167  67.3760043 107.1087326  30.9183574  68.6807658 107.3576342
  31.0956039  68.1010533 106.8598310  39.0410983  60.2977954 107.2586394
  38.5451544  60.4941629 106.5677961  39.7980045  60.6970623 107.0875196
  39.0797808  60.3855688 107.1306531  36.3113863  63.9720300 103.8489704
  36.3356350  63.4380413 103.1602484  36.5625336  63.4637609 104.5115295
  36.3523781  63.8181204 103.8454349  23.8221453  71.2551795 103.2832849
  23.7164902  71.2098640 102.4184933  23.0721672  71.6005576 103.5647133
  23.6957055  71.2992704 103.1970178  32.5915185  62.6991119 103.2295449
  32.6313557  63.2000325 103.9430156  31.7664850  62.7901512 102.9601372
  32.4754711  62.7872935 103.2945987  34.7744798  72.2651859 111.3315743
  33.9240428  72.4023573 111.4673388  34.9372926  71.5315637 111.7763445
  34.6728661  72.1765960 111.4171343  34.0129548  69.2151628 105.5269348
  33.1821478  69.3825446 105.3204596  33.9581065  68.8387579 106.3118233
  33.8818963  69.1841360 105.6117876  31.8213332  62.7060521 111.1625758
  32.4466035  62.1622654 111.4355191  31.3663812  62.2255439 110.5933549
  31.8461592  62.5550003 111.1187352  32.3865592  67.4907220  96.0559465
  32.5268553  67.9879684  96.7588107  32.8848125  66.7893514  96.1973679
  32.4806673  67.4609199  96.1811044  32.4165815  68.3574331  93.3852042
  33.0510894  68.9534756  93.3201504  32.4991425  68.0577789  94.1997912
  32.5222366  68.4015239  93.4955129  45.3948380  70.8889808 106.2538406
  45.9866221  71.5287059 106.2856605  45.8307375  70.1912845 106.5430473
  45.5466812  70.8808159 106.3019239  33.9944797  64.2888306  93.3597484
  34.3160638  63.8091389  92.7056747  34.2571741  65.0987952  93.1688296
  34.0810823  64.3378204  93.2352976  37.2241770  75.3107181 106.8796300
  36.7166861  75.8643028 107.3236931  36.9268416  75.3715471 106.0615075
  37.1046655  75.4013492 106.8244757  39.3903952  63.6760500 105.7220963
  39.8159024  63.2233027 105.1104490  38.7760945  63.1220571 105.9985751
  39.3632598  63.5274477 105.6725989  28.9218802  70.5542172  96.6541588
  29.4311032  71.1506679  97.0352894  29.3953075  70.2868145  95.9718008
  29.0662178  70.6027987  96.6096111  39.8349550  79.2270438  94.8100244
  39.1178860  79.0531301  94.3447481  40.4856288  78.9923011  94.2775730
  39.8251401  79.1666231  94.6629462  37.8298175  60.1475600  99.1311540
  37.1866493  59.9973247  99.6996679  37.4897582  59.9017945  98.3660645
  37.6843253  60.0887723  99.1014556  42.4197522  68.1035027  98.5541549
  41.7488712  68.6464729  98.4254615  43.1137272  68.5729882  98.3123244
  42.4226389  68.2533298  98.4997077  36.4684255  80.2431739 103.7853307
  36.2449910  79.4850568 104.1537334  35.9794099  80.2729760 103.0633747
  36.3627704  80.1353964 103.7330048  42.5825649  64.5590911 101.4631922
  42.9353259  64.1320634 102.1377721  41.7240451  64.4741754 101.5932999
  42.5075094  64.4835651 101.5826933  31.2809334  67.1898430  99.5214769
  30.5621323  67.6062563  99.7887632  31.6521696  67.7552669  98.9706407
  31.2301266  67.3347712  99.4797576  40.5808915  67.8226279 105.4116764
  40.5606842  67.6409574 106.2651543  40.6288116  68.6938298 105.3876348
  40.5843556  67.9242817 105.5340059  38.5255245  74.4113471 111.3365241
  38.4851100  73.7663148 110.7510397  39.3378563  74.3550089 111.6490653
  38.6398398  74.3072438 111.2962190  35.1162712  80.4632197 101.2390392
  34.7023111  79.8006327 100.8494234  35.8010087  80.6110056 100.7186086
  35.1561084  80.3872855 101.1046889  38.4828006  79.6222282 101.9914008
  38.0844290  79.7324553 101.2234829  37.8679226  79.8304349 102.5740568
  38.3326896  79.6695850 101.9645308  37.0555909  66.2296430  94.8588148
  36.4620748  66.5513427  94.3072715  37.0931186  65.3837526  94.6509254
  36.9730298  66.1520758  94.7470919  44.0149709  59.6809322 102.3916235
  43.5080574  58.9738462 102.3237412  44.8117143  59.3502511 102.5217311
  44.0576948  59.5282474 102.4015230  39.9313725  66.1875935  98.2889898
  39.7027418  66.2108636  97.4468257  40.1911801  65.3633402  98.4084909
  39.9359913  66.0692015  98.1815096  34.2132954  68.0410408 107.8914999
  33.7011857  67.4331591 108.2500030  34.0412450  68.7567000 108.3588974
  34.1122591  68.0573707 108.0131222  29.0598668  66.4847983 110.5417360
  28.8901259  67.1449358 109.9965567  28.6164618  66.6954544 111.2629850
  28.9698002  66.6133965 110.5678990  32.9858488  64.7252481  99.5844094
  33.4615854  65.0869561  98.9494275  32.4847087  65.3808949  99.8644237
  32.9823847  64.8746670  99.5320835  46.2169849  74.1974249  95.3757099
  46.6003455  74.9465605  95.6055196  45.4213962  74.4440069  95.1169088
  46.1563631  74.3443943  95.3714673  38.0902024  65.9634652 110.3317254
  38.6473454  65.7348462 109.6995720  37.7663089  66.7240318 110.0552467
  38.1248434  66.0418489 110.1973751  25.9600733  69.3894849 105.8005850
  25.4127452  68.7195494 105.9186719  26.7493111  69.0224697 105.8649318
  25.9952916  69.2359835 105.8274551  35.8085141  69.0502306 111.2969261
  36.5596468  69.3653983 111.6108815  36.0007718  68.8481477 110.4703183
  35.9476555  69.0669688 111.2212657  35.0285141  66.8693681  92.9517478
  35.4084106  66.8873310  92.1668593  34.2877737  67.3147670  92.8308325
  34.9753979  66.9375455  92.8181046  42.6570431  65.1775872  98.5393057
  42.6564658  65.0224529  99.3977333  42.4526611  66.0238859  98.4834442
  42.6270209  65.2796493  98.6580996  24.7187702  68.6015656 102.9551873
  24.5409463  68.1492265 103.6806789  24.4306724  69.4041818 103.1390351
  24.6500655  68.6538214 103.0895376  40.3811283  69.8573374 102.1929264
  40.8764949  69.1396369 102.1533284  39.5711059  69.5544171 102.0783751
  40.3355177  69.7071020 102.1702989  35.8269895  73.7071187  94.3426268
  35.0181218  73.3837861  94.2959578  36.3344804  73.0004409  94.2754517
  35.7819562  73.5552503  94.3256562  26.4560172  71.1343380 100.0673632
  25.5905692  71.1229071  99.9556404  26.5558988  70.9473603 100.9144772
  26.3434339  71.1049441 100.1762577  42.4463102  72.6077061 104.8806392
  42.8718174  72.0851483 104.3276817  42.0820022  73.2057899 104.3595015
  42.4549705  72.6187288 104.7215402  32.0817182  80.9041279 103.6403738
  32.3963741  81.7177667 103.6481520  32.4910595  80.5191497 104.3085897
  32.1885280  80.9669981 103.7407830  39.0341702  76.3211326 101.2107550
  39.5052880  77.0351588 101.3797535  39.3701880  75.7210076 101.7467419
  39.1536817  76.3382790 101.3139926  41.1218686  77.9312639 113.3899622
  41.2315652  77.1421200 113.7456369  41.4509583  77.8418575 112.5873960
  41.1871092  77.8018492 113.3242013  35.9511197  61.0938796 108.1665645
  36.0839102  60.2969790 108.4946620  36.3356349  61.6205199 108.7463920
  36.0267525  61.0538713 108.3009148  39.6715648  76.1129260 107.9735242
  39.1236594  75.4887143 107.7055308  40.1328677  76.3023532 107.2579322
  39.6582857  76.0488310 107.8285674  39.0243552  58.0169122 104.7646738
  38.2189515  57.9066852 105.0814576  38.8950287  58.1181578 103.9076604
  38.8863685  58.0152792 104.6854778  42.4809512  64.1814614 105.3586435
  41.8972501  64.6823821 104.9464002  42.8013806  63.6744170 104.7250758
  42.4422688  64.1806449 105.2044942  35.0204311  63.0955209  95.6345110
  35.8420006  63.2653522  95.3926804  34.5573962  63.2502470  94.9111407
  35.0735474  63.1436942  95.4916754  33.6099643  61.0897971 106.4143538
  34.1544056  60.7489098 107.0047880  33.6636579  61.9483433 106.5564823
  33.6988763  61.1653231 106.5225412  29.4230202  74.8514387 103.2882346
  30.0275060  74.8110221 102.6596167  29.2157515  75.6985539 103.3186402
  29.4819099  74.9702390 103.1998463  39.2373974  77.1180332 104.5044584
  40.0572348  76.9743298 104.7660879  38.9568052  77.7426531 105.0461022
  39.3170718  77.1890684 104.6232523  24.6581484  73.8349005 103.1581269
  24.5605762  73.0245276 103.4671326  25.4410354  73.8140798 102.7727538
  24.7597621  73.7116095 103.1468132  55.7087625  84.7745184  97.4687460
  55.6781629  85.6289821  97.6405729  56.3068973  84.4740477  98.0273604
  55.7924783  84.8561681  97.5762262  48.9087309  83.8620835 102.2240390
  48.0525205  84.0229333 102.2749507  48.9554963  82.9912899 102.2445452
  48.7886421  83.7571637 102.2346456  43.2928449  93.3983553  97.9877622
  42.5411349  93.0199091  97.7593667  43.7414461  93.4301987  97.2396432
  43.2478116  93.3469160  97.8435124  52.2181026  90.1307361 111.8300847
  52.9247793  89.6359392 111.9587781  52.4068961  90.5716442 111.1003505
  52.3508932  90.1225711 111.7409892  48.7453409  93.8208923  93.4163169
  48.4104778  94.4985844  92.9807391  49.2580280  93.4314234  92.8280041
  48.7718990  93.8633501  93.2649961  48.2857700  95.7723191  99.3574281
  48.6697080  96.3410090  98.8179056  48.2216842  95.0472702  98.8780097
  48.3331128  95.7498655  99.2068143  51.7539131  85.9212879 104.8672042
  52.2995091  86.5997966 104.9266012  51.6956007  85.7800340 104.0073624
  51.8255045  86.0004881 104.7484103  44.8713205  93.4101945 100.2540395
  44.9723568  92.6002299 100.5637522  44.2754951  93.3158892  99.6240073
  44.7985744  93.2766973 100.2066633  53.5304199  87.3497486  95.7405770
  53.4143725  88.1005172  96.1697908  54.3260086  87.0921439  95.9901857
  53.6308789  87.4232333  95.8409862  44.7113945  98.3279534 101.6555251
  45.3551400  98.7692698 102.0451409  45.0370201  97.5232961 101.5685509
  44.8545774  98.2744729 101.7000728  38.0678250  89.4322232  99.8792728
  37.8328434  88.5989884  99.7724997  38.2063890  89.7126897  99.0653929
  38.0533912  89.3505735  99.7435083  40.3668337  81.6007962 102.7777036
  39.7473369  81.0100610 102.6087051  40.2652201  82.1919398 102.1441359
  40.2606013  81.6012045 102.6582025  45.4134525  91.3391509  97.0275112
  45.7350366  91.8796717  96.4236420  46.0606621  90.7688281  97.1597402
  45.5560580  91.3350684  96.9582148  47.4636233  83.3407504  97.1109499
  48.1616397  83.5195632  97.6030962  47.7788565  82.8177843  96.4879888
  47.6131570  83.2901276  97.0911509  40.0937470  85.1460244 105.0220605
  39.9696167  85.7322690 105.6570424  40.7455755  84.6520440 105.3232880
  40.1711119  85.1599048 105.1606534  47.6524168  89.7277949  97.0989290
  48.0917804  89.1195050  97.5444063  47.5028831  89.3485322  96.3274755
  47.6945634  89.5816420  97.0508458  45.1195811  88.3221961 104.3008116
  45.7644814  87.8294404 103.9819064  45.3597588  88.4646748 105.1274194
  45.2506396  88.2699403 104.3757649  47.6581903  91.1676867 103.9515009
  47.9405145  90.3728273 103.7301764  48.3868063  91.6457454 103.9720070
  47.8071466  91.1211464 103.9218024  45.6363096  78.7099901 101.1930774
  45.3066426  79.1611044 100.5234472  44.9608098  78.6316064 101.7403780
  45.4873533  78.7651036 101.1753997  51.2533505  88.0805130  94.0520060
  51.1684800  88.9366097  94.1969629  51.7417888  87.8049455  94.7202219
  51.3122402  88.1662452  94.1722141  52.8439504  74.6985424  99.4380384
  52.5292945  75.3888902  99.8700807  52.3266446  74.6430206  98.7365885
  52.7203975  74.7920312  99.3977333  52.1851938  84.6989925  95.5517795
  51.6563409  84.9149558  96.2115101  52.7076958  85.3926063  95.4718764
  52.1840391  84.8333062  95.6373394  57.6399991  90.2736229 100.9250839
  56.8097694  90.4846873 101.0884256  57.5909243  89.4473284 100.6493123
  57.5106726  90.1825835 100.9088205  44.0751546  88.5953141  94.3525263
  43.4908761  89.1003173  94.7591127  43.6721641  88.3695528  93.6121855
  43.9290850  88.6361390  94.3030288  39.6295574  94.3107903 101.1548934
  39.1463153  95.0358392 101.1308518  40.4418893  94.6084033 101.2659092
  39.6786322  94.4610256 101.1676214  45.7009728  93.1040083 103.7598749
  45.1836670  92.7447498 103.1560057  46.3984120  92.5802258 103.7704815
  45.7275310  92.9737771 103.6729008  49.3573320  93.5534897 109.7214922
  49.4456666  93.3661038 110.5693132  49.7863033  92.9072327 109.3219769
  49.4335423  93.4297905 109.7886673  46.9243780  92.8366057 108.7032584
  46.3614615  92.4238667 109.2272245  47.6864804  92.7618963 109.1225727
  46.9538229  92.7643458 108.8425584  48.5328760  84.8418793  92.8294183
  48.7724764  85.0496777  92.0169527  48.8544601  84.0376302  92.9383128
  48.6165918  84.7532895  92.7254736  43.8419050  76.7712189  96.6753721
  44.5965018  77.1390506  96.4370772  43.6646585  77.1451744  97.4432901
  43.9273529  76.8810377  96.7538610  42.4839772  94.8264078 101.3069214
  43.1860351  94.3116068 101.3641971  42.4037255  95.1538230 102.1116089
  42.5763532  94.7978305 101.4342006  57.1353949  82.9206630 104.7201261
  56.2982370  82.9908817 104.9548855  57.1042180  82.9231125 103.8475563
  57.0072232  82.9316857 104.6260809  43.5318678  85.0639665 110.4349629
  43.7039182  84.9545560 111.2834911  44.0688036  85.7094071 110.1980822
  43.6363682  85.1431667 110.5254726  42.1976115  79.1782508  93.3731834
  42.0151688  79.3954389  92.5472827  43.0601728  79.2921521  93.4290449
  42.2980705  79.2272406  93.2586321  41.8090547  91.0170430 100.8154822
  42.6479446  91.2493363 100.8628584  41.8402316  90.1474742 100.7461858
  41.9372265  90.9227377 100.8119467  42.4343250  91.4371306 105.1168128
  42.9741475  91.2942437 105.7871500  41.7513196  91.8368056 105.4852154
  42.4135404  91.4750977 105.2702549  47.8775834  76.1808919  96.4080858
  48.6061995  76.0024874  95.9619014  47.9670727  77.0226999  96.6188036
  47.9982496  76.2792797  96.3734376  51.8584135  87.1162306 100.3113152
  52.6141650  87.5493821 100.3502061  51.9646459  86.4667076 100.8847788
  51.9854306  87.0839790 100.4011178  54.8964306  90.9435584 101.0615555
  54.4599538  90.9472326 101.8174527  54.5627222  91.6241082 100.6295133
  54.7826926  91.0448039 101.1096388  49.4693380  92.9843916 112.3858705
  50.2533796  93.0974764 112.7514448  49.2689974  92.1585053 112.5817391
  49.5559405  92.8790636 112.4693091  37.8380395  87.6571596 105.2702549
  37.5718810  86.8410713 105.4293540  37.8518959  87.7024752 104.3998065
  37.8005117  87.5428501 105.1656031  54.8161789  77.9849411 103.3044983
  55.4587697  78.0547516 103.8906898  55.0684810  77.3178634 102.8024525
  54.9483921  77.8975760 103.3172262  41.7438142  82.4556681  91.8854307
  41.0296319  82.1694860  92.2976740  42.2282111  82.7953307  92.5260695
  41.7097505  82.4638331  92.0409942  42.5879001  81.1949975 107.9169557
  41.8950798  80.7246954 108.1630289  43.2039329  80.9688279 108.4911264
  42.5763531  81.0917107 108.0378710  49.6263773  94.8954018 106.0325161
  48.8279019  94.6553518 106.2899030  50.0749785  94.9468411 106.7792209
  49.5738384  94.8676410 106.1810085  58.0308652  87.6616503  99.9535192
  58.6925086  87.1007172  99.8531101  57.3900064  87.1668534 100.2787884
  58.0337520  87.5052912  99.9867533  48.9185460  90.9586635  92.2616116
  49.3336608  90.6271659  91.5700611  48.0877390  90.7255537  92.1336252
  48.8573469  90.8757891  92.1406963  38.2473809  88.4430376 102.5514294
  38.0649382  88.4177262 101.6986586  38.9823478  88.9129314 102.5903202
  38.3287873  88.5091738 102.4312212  54.3173483  88.6781886  99.6947181
  54.5529072  88.8227085  98.8674032  54.4663047  89.4424294 100.0878695
  54.3739286  88.8120940  99.6310785  41.3119560  85.1615379 109.0596402
  42.0359533  85.1468409 109.5461297  41.4135697  85.8710734 108.5618370
  41.4337769  85.2640082 109.0575189  56.1463940  87.5183552  97.5316785
  56.4772157  88.0511192  96.9256880  56.7197028  87.5722440  98.1878736
  56.2797619  87.6053121  97.5394567  48.6864510  88.6414463 113.9245349
  47.8937491  88.9557975 114.1097969  48.8013437  88.8565932 113.0866134
  48.5859920  88.7198300 113.8283684  51.3595829  85.3648454  98.2140365
  51.4542683  86.1037749  98.6679991  50.7354672  84.9365930  98.6474930
  51.2804859  85.4109775  98.3448513  49.6148303  88.5434667 108.8630646
  50.1887164  87.9061911 109.0179210  49.5363106  88.5438749 107.9940304
  49.6881538  88.4499778 108.7577057  38.2144719  85.3223877 102.7013360
  38.7918222  85.1860327 103.3405605  37.5158781  84.8659661 102.9558945
  38.1965740  85.2346143 102.8335650  51.6118850  87.2097194  91.4477317
  51.5299013  87.2799381  92.3132304  52.2498571  87.7726938  91.2561058
  51.6938687  87.3036165  91.5467267  44.9712021  86.9757932 100.9151843
  44.7131266  86.1429667 100.8883143  45.0260504  87.2015545 100.0744344
  44.9411799  86.8855703 100.7871980  50.0513071  79.0786383 101.0155936
  49.3469398  78.5895568 101.1739855  50.0998046  79.0908857 100.1444380
  49.9543123  79.0076031 100.9095276  43.9446733  84.5295695 101.4016738
  43.3696325  84.6887863 102.0380699  43.5682410  83.8931104 100.9385189
  43.8049546  84.4593508 101.4271297  47.6120022  83.0019044 106.2609117
  47.2234455  82.5773262 105.6061308  46.9474720  83.2501194 106.7686143
  47.4566950  82.9757765 106.2396984  57.2543291  82.7594049  99.0356947
  56.9979856  81.9473990  98.8454829  58.0972605  82.7671616  98.8087134
  57.3409317  82.6406046  98.9741764  33.6903552  84.1735769  99.4161179
  33.7763804  83.7967638 100.1974709  34.3179350  83.7996215  98.9381137
  33.7960103  84.0621252  99.4606656  51.4346384  76.6993673 103.7733101
  51.8156895  76.0171844 104.1600975  50.6309668  76.4103275 103.5908765
  51.3722845  76.5560721 103.8037157  48.7158960  87.2317649  94.4585924
  49.5299599  87.5232541  94.3468695  48.6518102  86.5777511  93.8844216
  48.8261699  87.1782843  94.3574761  54.9368450  89.9143645 108.8715499
  54.7007088  89.0831709 108.7527560  55.5811679  89.8629252 109.4570343
  54.9963121  89.7841333 108.9401393  44.5866869  90.7039166  99.5858236
  45.2240816  90.4650913 100.1310029  45.0121940  90.9076325  98.8511396
  44.7443035  90.6990176  99.5575393  39.2779511  92.9427502 103.4692539
  39.3183656  93.2142354 102.6412319  39.8374035  93.4669411 103.8850327
  39.3662857  93.0603258 103.4084428  45.2269684  85.9241456  93.9233125
  45.6114836  85.7049162  94.6749670  44.9781304  86.7504401  94.0534201
  45.2471756  86.0139602  94.0534201  45.3938224  79.2047871 113.6395709
  45.0791665  79.9747434 113.3765272  45.0728157  78.6418127 113.0547936
  45.2997143  79.2358140 113.5137059  55.9604871  89.6988093 104.9343794
  55.6550688  90.4316150 105.2957109  55.2411087  89.2926023 104.6536580
  55.8092213  89.7469826 104.9456931  46.9688341  91.1811589 101.2652022
  47.0427349  91.0186760 102.1193872  47.7857847  91.3701778 101.0212504
  47.1004699  91.1848331 101.3550047  61.6606663  86.3381094 104.2612138
  61.5931164  86.3577053 103.3914724  61.6462326  87.1811421 104.4867808
  61.6485420  86.4654829 104.1664615  40.7294097  91.5269451  98.2946465
  39.9032215  91.7731189  98.1680744  40.7906088  91.4481532  99.1608523
  40.6168264  91.5514400  98.4035410  42.9470121  77.5938392  99.2541906
  42.0792546  77.6660992  99.3199515  43.2345325  78.3960471  99.4429881
  42.8609869  77.7232540  99.2916672  52.0703010  77.7416252 107.5853227
  52.8156602  77.5526062 107.1716653  51.6540314  78.2674490 107.0267084
  52.1187984  77.7918397 107.4417801  45.5092926  94.1446332  95.9965495
  45.7991225  93.7535313  95.2724722  46.2396407  94.3263037  96.4370771
  45.6599810  94.1140145  95.9548302  59.4465281  85.1125480 102.5358732
  59.9973202  84.4793549 102.7755824  59.4309396  85.6440873 103.2274237
  59.5250477  85.0974428 102.6737591  46.0987671  88.9464078 107.0818626
  45.5999365  89.6579845 107.1603514  46.9087896  89.2664744 107.0436788
  46.1443778  89.0990926 107.0875194  43.4498842  96.1213714  99.0625645
  43.2299137  95.8311069  99.8552312  43.2293364  95.4628669  98.5343557
  43.3846436  95.9813422  99.1014554  42.3615789  88.2087031 101.3281347
  42.0729038  87.5824502 101.8627074  43.2299137  88.1507318 101.3946027
  42.4476041  88.1074575 101.4172301  53.1493687  83.3521814 101.6463329
  52.8058453  82.6312149 101.9970578  53.2486729  83.1435665 100.8041687
  53.1135730  83.2146017 101.5735009  45.6166798  97.4943104  97.8456337
  46.2690856  96.9619546  98.0747363  44.9192406  97.1411756  98.2324211
  45.6097516  97.3632627  97.9368505  42.5648062  89.8482282  97.2523712
  43.3194030  90.2295321  97.4659174  41.9718675  90.2993425  97.7070408
  42.5884776  89.9711109  97.3506590  53.6106716  89.8147518  97.1887317
  54.1764749  90.4740728  97.1045860  52.9634619  90.1597216  97.6603719
  53.5985472  89.9629459  97.2460073  45.0254729  81.8045122 112.3780924
  44.2154505  82.1102902 112.2670766  45.5029416  82.5250704 112.4933508
  44.9758208  81.9559723 112.3787995  43.8846289  91.0190843 102.6263827
  43.3627043  91.1591135 103.3115692  44.2720309  90.2601507 102.8165944
  43.8649990  90.9276367 102.7564904  40.8737473  81.0696652  96.6958782
  40.5862269  80.6997922  95.9590729  41.5607941  81.5391507  96.4342487
  40.9326370  81.0843621  96.5473858  50.0813294  92.7586302  96.6124396
  49.8399970  92.0254163  96.2051461  50.2614627  93.3073159  95.9590729
  50.0720918  92.7308693  96.4554619  45.3112615  88.0494862  98.0245318
  45.1155397  88.6569597  97.4305621  45.5346960  87.3562806  97.5436992
  45.3147256  88.0372388  97.8661399  43.7091145  84.9349600  98.1426186
  44.4313797  85.0990758  97.6829992  43.2299137  85.6559265  98.0365526
  43.7454875  85.0647829  98.0591800  51.6684652  81.2713399 103.5222871
  50.8295753  81.2974678 103.2861135  51.7389020  81.9184134 104.1028218
  51.5553046  81.3709525 103.5731988  41.3598761  87.3407672 107.2480326
  41.8719858  87.6191926 106.5989086  41.0735104  88.0796966 107.6143139
  41.3933624  87.4910026 107.2070204  50.1153931  78.1698776  98.2550487
  50.8180283  77.9706524  97.7770446  49.8498119  77.3974718  98.5619331
  50.1800563  78.0261742  98.2295929  55.5442176  86.4781385 100.8084113
  55.4576151  86.6336812 101.6618892  55.0892656  87.1219461 100.4343518
  55.4645433  86.5957141 100.8791220  38.4465668  81.8477864  97.5444063
  38.5481804  82.6504026  97.8725038  39.2421554  81.6465200  97.2467143
  38.5793573  81.9363763  97.5479418  44.8782487  79.4334061 107.3081368
  44.6865684  79.4489195 108.1580791  45.7281083  79.6297735 107.2848023
  44.9758209  79.4648412 107.4304663  39.2629400  81.9625042 105.2865184
  39.1214892  81.1108983 105.4109692  39.5469963  82.0053703 104.4627390
  39.2837246  81.8424792 105.1832808  49.4167992  83.7992133  99.4309673
  49.1702706  83.7187884 100.2646462  49.7453115  83.0145600  99.2372200
  49.4289236  83.6718398  99.5257196  53.3116041  90.5075492 103.2196454
  53.1730400  91.2056538 103.7245196  52.5316039  90.3524148 102.8632636
  53.1759268  90.5875659 103.2422728  51.6494126  86.8071867 109.4718836
  51.6442165  85.9351684 109.4761262  52.3555120  87.0060036 108.9988291
  51.7539130  86.7075741 109.4025871  45.3765019  86.5348851 108.8432656
  45.5208395  87.1150059 108.2075766  45.7240668  86.9125148 109.5482510
  45.4492481  86.6769555 108.8531651  47.5484937  85.7339020 106.6257787
  46.8008251  85.9270034 106.2206065  47.7026462  84.9084239 106.3881909
  47.4607364  85.6404131 106.5303193  44.4492774  94.7251623 105.7093683
  44.5982338  94.1654539 105.0567087  45.2292776  94.8043625 106.0926201
  44.5866868  94.6537188 105.6690632  54.8069414  89.8653746  93.9812953
  54.4276223  89.0790884  93.9742242  54.1435659  90.4140603  93.8384597
  54.6527889  89.8298570  93.9593750  46.9746075  94.8966266 106.9878173
  46.8989746  94.2275076 107.5428962  46.9035934  95.5984054 107.5018840
  46.9526682  94.9011173 107.1455022  47.7886714  79.6289570 107.5153191
  48.2459328  80.3613545 107.6425983  47.8643043  79.2056036 108.2740447
  47.8677684  79.6746808 107.6454268  40.0319705  79.8755390 108.6042635
  39.4961894  79.2635748 108.9203402  40.0937470  80.4503526 109.2576301
  39.9615338  79.8702318 108.7478062  52.2614040  72.8079445 101.3847034
  52.3797608  73.2655909 100.6514337  52.0876215  72.0024707 101.0983252
  52.2533211  72.7573218 101.2347968  47.6316322  93.4167265  97.8201779
  48.3966213  93.1476908  97.4984444  47.5294412  92.9317275  98.5371842
  47.7297817  93.3056829  97.8781607  45.6669092  81.6191674 104.3595015
  44.8765166  81.4383134 104.6812351  46.0629715  80.8418627 104.3425310
  45.6085968  81.4779135 104.4047563  50.1534982  90.4479449  89.8001729
  50.9207968  90.5079573  89.3907580  49.7066291  89.8759890  89.3158047
  50.2008410  90.3716024  89.6679439  51.0512778  89.2534104 102.0854461
  50.3757780  89.0219337 102.5867848  51.0605154  88.6455287 101.4596566
  50.9531283  89.1293030 102.0670613  48.1806922  84.0951933 108.8418514
  48.1166063  84.9561890 108.7138651  48.3204110  83.7783927 108.0414065
  48.1922392  84.1752100 108.7046727  53.0529513  92.1099237  94.3164639
  53.1349350  92.9166223  93.9926090  53.5379255  92.1295196  95.0405412
  53.1366670  92.2319899  94.3751538  46.8626016  86.7884073 102.9834717
  46.4388265  86.9888572 102.2473735  46.6870871  85.9412921 103.0959017
  46.7736896  86.6932854 102.8908407  46.3637709  98.3034586 105.4456174
  46.8533640  97.6045375 105.2631839  45.7921942  98.0058456 106.0332232
  46.3522239  98.1560809 105.5057215  42.1508461  87.2836124  98.4162689
  42.3073080  87.2182927  99.2718682  42.4909054  88.0584677  98.2041369
  42.2241696  87.3885322  98.5117284  48.6887605  86.6594008  97.2856053
  49.2303151  86.1564389  97.7494673  49.0034164  86.6059202  96.4745538
  48.8152003  86.5773429  97.2339865  52.5604713  90.8696655 114.3982965
  53.3739578  90.5981804 114.5588097  52.3999679  90.5704195 113.5943161
  52.6574661  90.7851581 114.3028371  46.8574055  92.0511359  94.5696081
  46.9266875  91.1925898  94.7089081  47.6362510  92.2683240  94.2415105
  46.9826905  91.9564223  94.5413238  49.8376875  81.5530312 107.3378353
  50.0518844  80.9141226 106.7841707  49.2210774  81.9976136 106.9086215
  49.7782204  81.5240456 107.1928784  51.2481543  94.4749060  98.7832574
  50.8561334  94.1715776  98.0655440  51.4034615  95.3118150  98.5937528
  51.2135133  94.5532897  98.6489071  38.7242722  84.4671075  98.7323457
  39.1041687  84.8855620  98.0683724  38.1498087  85.0484530  99.0392300
  38.6954047  84.6148933  98.6800198  52.0015963  83.1619377 108.2761660
  51.1892645  82.8545268 108.3574833  52.4605897  82.6818378 108.8404372
  51.9496348  83.0455870 108.3716254  51.4121218  91.0399049  98.7238605
  51.0535872  91.2113692  99.5002637  50.9259928  91.5012255  98.1666603
  51.2879914  91.1338020  98.7563874  49.2291603  74.6630248 102.3265696
  48.3585161  74.6368969 102.2799005  49.4831945  74.4907440 101.5091542
  49.1385164  74.6340392 102.1985833  46.2009583  86.7198215  91.2638839
  46.4902108  87.4963097  91.5382413  46.2881382  86.2086946  91.9653338
  46.2563839  86.7590133  91.4081337  49.0969470  84.5679449 113.0590363
  49.5669102  85.1921565 113.4458237  49.1431351  83.8996424 113.6183577
  49.1737346  84.5614129 113.1990434  46.2540744  76.6736476 103.7839166
  45.7379233  75.9816668 103.9090745  45.6934673  77.3407253 103.7301765
  46.0947257  76.6699734 103.7945232  48.3232977  77.2129436 105.6132019
  47.9364731  77.2378468 106.3945549  47.8365915  76.6471115 105.1606535
  48.1945486  77.1325187 105.6619923  52.5725957  91.9302945 109.6705805
  53.2105677  91.4363141 109.3368261  51.9300048  91.8580346 109.0858032
  52.5720183  91.8461954 109.5348160  54.2982957  83.7792091 104.2371721
  53.8710565  83.6918440 103.4819821  53.6609010  83.8869867 104.8226565
  54.1412564  83.7824751 104.2117163  47.9890119  74.0996422 107.9042279
  48.6183237  74.6356722 107.6263349  48.1575982  74.0073781 108.7555844
  48.1067914  74.1657784 107.9890807  47.7904034  78.8867617 110.1768690
  48.6177463  78.6152765 110.2327305  47.8111880  79.6828458 110.5332509
  47.9156884  78.9647371 110.2383873  52.6280213  92.6222754 106.3111162
  53.4172592  92.2711818 106.4313244  52.8023811  93.4359142 106.0487796
  52.7700495  92.6908611 106.2899030  42.3673524  86.0331479 103.3638951
  41.5261530  85.9335353 103.5717845  42.5763532  86.8026960 103.7153272
  42.2738216  86.1323523 103.4466266  39.8449091  83.6551016 101.1923702
  39.4505789  83.7294028 100.4173811  39.2889208  84.0408963 101.7432063
  39.7051903  83.7232791 101.1591361  51.4814038  76.6332310 100.8727581
  51.6863631  76.5654618 101.7184578  51.1540462  77.4391132 100.8048758
  51.4629286  76.7418251 100.9887236  46.1790189  83.9612879 102.6136549
  45.8753326  83.4068867 103.2146956  45.4769610  84.1405088 102.1264583
  46.0306399  83.9057661 102.6306254  45.2356286  81.2713398  97.1781250
  45.5116020  80.5532311  96.7658818  45.8354955  81.8698318  96.9702356
  45.3649550  81.2533769  97.0862012  44.2408540  91.1762599 107.3208646
  44.1328895  91.1864661 108.1870704  44.4504321  92.0017380 107.1313600
  44.2558651  91.3003674 107.4212738  54.7347725  77.1864075 100.3530346
  54.1222039  77.6734477 100.7384078  54.8311900  76.5107565 100.8967997
  54.6585623  77.1582383 100.4909204  48.7366806  78.9426916  95.4527845
  49.1910553  79.1137476  96.1775690  49.2106852  78.3295026  95.0525621
  48.8735126  78.8777801  95.5001607  42.2582332  88.4275242 104.7830584
  41.6670265  89.0684740 104.7533599  43.0203355  88.8512859 104.7561883
  42.2830592  88.5851080 104.7745731  42.6542955  79.5877239 105.4498602
  43.1144436  79.6616169 106.1873725  42.6999061  80.3858493 105.0998423
  42.7293510  79.7171386 105.5071358  44.3026304  80.2543934 110.0170629
  43.9111869  79.6077281 110.4526406  44.4712167  80.8455370 110.6364884
  44.2697215  80.2458202 110.1733335  58.3772753  88.2581011 105.7807862
  58.4355877  88.7067660 106.5267839  57.7439221  88.6679824 105.3437942
  58.2924048  88.3854746 105.8260410  52.0171848  93.8784553 102.2162608
  51.8191537  94.3675368 101.5218820  51.3959559  94.0825795 102.7946742
  51.8959412  93.9801091 102.1985832  46.0779826  85.6469450  96.5572853
  46.8221871  86.0343726  96.7955803  46.2240523  84.8026875  96.7213340
  46.2090411  85.5799923  96.6166822  47.9959402  77.4419709 101.5904714
  47.1495447  77.6142517 101.4646064  47.9930534  76.6369053 101.9270542
  47.8706552  77.3480738 101.6215841  49.0657702  81.2194923 102.4566772
  48.5917656  80.6936685 102.9672083  49.4375838  80.6724396 101.8881634
  49.0507591  81.0610920 102.4481919  39.4430732  83.2166430 107.8250318
  40.3056345  83.1162139 107.7387648  39.1122515  82.6361139 107.2635890
  39.5215929  83.1158057 107.7295724  55.3294433  86.2797299 103.8673553
  55.0892656  85.4403714 103.8715979  55.8086440  86.3597466 104.5914326
  55.3646616  86.1678699 103.9748355  50.9941202  82.1131478  95.5192526
  50.4664220  82.1960222  94.8298235  51.4536910  82.8549349  95.5157170
  50.9843052  82.2352140  95.4167221  57.3299620  83.0598756 101.8202812
  57.0909390  83.0194590 100.9823596  57.4933521  83.9069908 101.9468533
  57.3189923  83.1790841 101.7156294  53.9345650  87.4448705 107.7507857
  54.6579849  86.9921232 107.5718877  53.6695612  87.7253371 106.9680185
  54.0026923  87.4199674 107.6086572  42.8032518  82.0408879 104.4860736
  42.1785588  82.0527271 103.8786689  42.4678113  82.5169054 105.1351976
  42.6618010  82.1127396 104.4917304  42.9874267  80.3833998  90.5433421
  42.6387071  81.0353723  91.0064970  42.5070713  80.3691111  89.8157292
  42.8644511  80.4777051  90.5044512  39.5158194  90.1009339 105.9264500
  38.9858118  89.4101778 105.9759475  39.7883287  90.0919524 105.0977209
  39.4782916  89.9976471 105.8111916  50.5478284  90.6835041  94.6502183
  51.2712483  91.1493154  94.5066756  50.1078875  90.7508651  93.8999780
  50.5893977  90.7618878  94.5186964  49.7164439  87.5432584 105.9002872
  49.1021433  86.9990634 106.1951507  50.2331724  87.0296820 105.4208688
  49.7020102  87.3868993 105.8727100  48.9560737  88.6136854 103.6347170
  48.5288345  87.9886572 103.2012606  48.9485681  88.3311776 104.4606178
  48.8919878  88.4789634 103.6926998  42.0723264  83.6502027 106.7035604
  42.2316750  82.8945351 107.1087326  41.8916157  84.1992966 107.3576342
  42.0688623  83.6195841 106.8598310  50.0143567  75.8163262 107.2586394
  49.5184128  76.0126937 106.5677961  50.7712629  76.2155931 107.0875196
  50.0530391  75.9040996 107.1306531  47.2846446  79.4905608 103.8489704
  47.3088933  78.9565721 103.1602484  47.5357920  78.9822917 104.5115295
  47.3256365  79.3366512 103.8454349  34.7954036  86.7737103 103.2832849
  34.6897485  86.7283948 102.4184933  34.0454256  87.1190884 103.5647133
  34.6689639  86.8178011 103.1970178  43.5647768  78.2176427 103.2295449
  43.6046140  78.7185633 103.9430156  42.7397433  78.3086820 102.9601372
  43.4487294  78.3058243 103.2945987  45.7477381  87.7837167 111.3315743
  44.8973012  87.9208881 111.4673388  45.9105509  87.0500945 111.7763445
  45.6461245  87.6951268 111.4171343  44.9862132  84.7336936 105.5269348
  44.1554062  84.9010754 105.3204596  44.9313649  84.3572887 106.3118233
  44.8551547  84.7026668 105.6117876  42.7945915  78.2245829 111.1625758
  43.4198619  77.6807962 111.4355191  42.3396395  77.7440747 110.5933549
  42.8194176  78.0735311 111.1187352  43.3598176  83.0092528  96.0559465
  43.5001137  83.5064992  96.7588107  43.8580709  82.3078822  96.1973679
  43.4539257  82.9794507  96.1811044  43.3898398  83.8759639  93.3852042
  44.0243478  84.4720064  93.3201504  43.4724009  83.5763097  94.1997912
  43.4954949  83.9200547  93.4955129  56.3680964  86.4075116 106.2538406
  56.9598804  87.0472367 106.2856605  56.8039958  85.7098153 106.5430473
  56.5199395  86.3993467 106.3019239  44.9677381  79.8073614  93.3597484
  45.2893222  79.3276697  92.7056747  45.2304325  80.6173260  93.1688296
  45.0543406  79.8563512  93.2352976  48.1974354  90.8292489 106.8796300
  47.6899445  91.3828336 107.3236931  47.9001000  90.8900779 106.0615075
  48.0779239  90.9198800 106.8244757  50.3636536  79.1945808 105.7220963
  50.7891607  78.7418335 105.1104490  49.7493529  78.6405879 105.9985751
  50.3365181  79.0459785 105.6725989  39.8951386  86.0727480  96.6541588
  40.4043615  86.6691987  97.0352894  40.3685658  85.8053453  95.9718008
  40.0394762  86.1213295  96.6096111  50.8082134  94.7455746  94.8100244
  50.0911444  94.5716609  94.3447481  51.4588872  94.5108319  94.2775730
  50.7983985  94.6851539  94.6629462  48.8030759  75.6660908  99.1311540
  48.1599077  75.5158554  99.6996679  48.4630166  75.4203253  98.3660645
  48.6575836  75.6073031  99.1014556  53.3930105  83.6220335  98.5541549
  52.7221295  84.1650037  98.4254615  54.0869856  84.0915190  98.3123244
  53.3958973  83.7718606  98.4997077  47.4416839  95.7617047 103.7853307
  47.2182493  95.0035876 104.1537334  46.9526682  95.7915068 103.0633747
  47.3360288  95.6539271 103.7330048  53.5558233  80.0776219 101.4631922
  53.9085843  79.6505941 102.1377721  52.6973034  79.9927062 101.5932999
  53.4807677  80.0020959 101.5826933  42.2541918  82.7083738  99.5214769
  41.5353907  83.1247871  99.7887632  42.6254280  83.2737977  98.9706407
  42.2033849  82.8533020  99.4797576  51.5541499  83.3411587 105.4116764
  51.5339426  83.1594882 106.2651543  51.6020699  84.2123606 105.3876348
  51.5576140  83.4428125 105.5340059  49.4987828  89.9298779 111.3365241
  49.4583683  89.2848456 110.7510397  50.3111147  89.8735397 111.6490653
  49.6130982  89.8257746 111.2962190  46.0895296  95.9817505 101.2390392
  45.6755695  95.3191635 100.8494234  46.7742670  96.1295364 100.7186086
  46.1293668  95.9058163 101.1046889  49.4560590  95.1407590 101.9914008
  49.0576873  95.2509861 101.2234829  48.8411810  95.3489657 102.5740568
  49.3059479  95.1881158 101.9645308  48.0288492  81.7481738  94.8588148
  47.4353331  82.0698735  94.3072715  48.0663770  80.9022834  94.6509254
  47.9462881  81.6706066  94.7470919  54.9882293  75.1994630 102.3916235
  54.4813157  74.4923770 102.3237412  55.7849727  74.8687819 102.5217311
  55.0309532  75.0467782 102.4015230  50.9046309  81.7061243  98.2889898
  50.6760002  81.7293944  97.4468257  51.1644385  80.8818710  98.4084909
  50.9092497  81.5877323  98.1815096  45.1865537  83.5595716 107.8914999
  44.6744440  82.9516899 108.2500030  45.0145033  84.2752308 108.3588974
  45.0855174  83.5759015 108.0131222  40.0331252  82.0033291 110.5417360
  39.8633842  82.6634666 109.9965567  39.5897202  82.2139852 111.2629850
  39.9430585  82.1319273 110.5678990  43.9591071  80.2437789  99.5844094
  44.4348437  80.6054869  98.9494275  43.4579671  80.8994257  99.8644237
  43.9556430  80.3931978  99.5320835  57.1902433  89.7159557  95.3757099
  57.5736039  90.4650913  95.6055196  56.3946546  89.9625377  95.1169088
  57.1296215  89.8629251  95.3714673  49.0634607  81.4819960 110.3317254
  49.6206038  81.2533770 109.6995720  48.7395672  82.2425626 110.0552467
  49.0981018  81.5603797 110.1973751  36.9333316  84.9080157 105.8005850
  36.3860036  84.2380802 105.9186719  37.7225694  84.5410004 105.8649318
  36.9685500  84.7545143 105.8274551  46.7817725  84.5687614 111.2969261
  47.5329052  84.8839290 111.6108815  46.9740301  84.3666785 110.4703183
  46.9209139  84.5854995 111.2212657  46.0017724  82.3878989  92.9517478
  46.3816689  82.4058618  92.1668593  45.2610320  82.8332978  92.8308325
  45.9486562  82.4560763  92.8181046  53.6303015  80.6961180  98.5393057
  53.6297241  80.5409837  99.3977333  53.4259195  81.5424167  98.4834442
  53.6002793  80.7981801  98.6580996  35.6920286  84.1200964 102.9551873
  35.5142047  83.6677573 103.6806789  35.4039308  84.9227126 103.1390351
  35.6233239  84.1723522 103.0895376  51.3543867  85.3758682 102.1929264
  51.8497532  84.6581677 102.1533284  50.5443643  85.0729479 102.0783751
  51.3087760  85.2256328 102.1702989  46.8002478  89.2256495  94.3426268
  45.9913801  88.9023169  94.2959578  47.3077387  88.5189717  94.2754517
  46.7552145  89.0737811  94.3256562  37.4292756  86.6528688 100.0673632
  36.5638275  86.6414379  99.9556404  37.5291572  86.4658911 100.9144772
  37.3166923  86.6234749 100.1762577  53.4195686  88.1262369 104.8806392
  53.8450757  87.6036791 104.3276817  53.0552606  88.7243207 104.3595015
  53.4282288  88.1372596 104.7215402  43.0549766  96.4226587 103.6403738
  43.3696325  97.2362975 103.6481520  43.4643179  96.0376805 104.3085897
  43.1617864  96.4855289 103.7407830  50.0074285  91.8396634 101.2107550
  50.4785463  92.5536896 101.3797535  50.3434464  91.2395384 101.7467419
  50.1269400  91.8568098 101.3139926  52.0951270  93.4497947 113.3899622
  52.2048235  92.6606507 113.7456369  52.4242166  93.3603883 112.5873960
  52.1603676  93.3203800 113.3242013  46.9243780  76.6124104 108.1665645
  47.0571686  75.8155098 108.4946620  47.3088933  77.1390507 108.7463920
  47.0000109  76.5724021 108.3009148  50.6448232  91.6314568 107.9735242
  50.0969178  91.0072451 107.7055308  51.1061260  91.8208840 107.2579322
  50.6315441  91.5673618 107.8285674  49.9976135  73.5354430 104.7646738
  49.1922099  73.4252160 105.0814576  49.8682871  73.6366886 103.9076604
  49.8596268  73.5338100 104.6854778  53.4542096  79.6999922 105.3586435
  52.8705085  80.2009129 104.9464002  53.7746390  79.1929478 104.7250758
  53.4155271  79.6991757 105.2044942  45.9936895  78.6140517  95.6345110
  46.8152589  78.7838830  95.3926804  45.5306546  78.7687778  94.9111407
  46.0468057  78.6622250  95.4916754  44.5832227  76.6083279 106.4143538
  45.1276640  76.2674406 107.0047880  44.6369163  77.4668741 106.5564823
  44.6721346  76.6838539 106.5225412  40.3962786  90.3699695 103.2882346
  41.0007643  90.3295529 102.6596167  40.1890098  91.2170847 103.3186402
  40.4551683  90.4887698 103.1998463  50.2106558  92.6365640 104.5044584
  51.0304932  92.4928606 104.7660879  49.9300635  93.2611839 105.0461022
  50.2903301  92.7075992 104.6232523  35.6314068  89.3534313 103.1581269
  35.5338346  88.5430584 103.4671326  36.4142938  89.3326106 102.7727538
  35.7330204  89.2301403 103.1468132  66.6820208 100.2930492  97.4687460
  66.6514213 101.1475129  97.6405729  67.2801557  99.9925785  98.0273604
  66.7657366 100.3746989  97.5762262  59.8819893  99.3806143 102.2240390
  59.0257789  99.5414641 102.2749507  59.9287547  98.5098207 102.2445452
  59.7619005  99.2756945 102.2346456  54.2661033 108.9168861  97.9877622
  53.5143932 108.5384399  97.7593667  54.7147044 108.9487295  97.2396432
  54.2210700 108.8654468  97.8435124  63.1913610 105.6492669 111.8300847
  63.8980377 105.1544699 111.9587781  63.3801545 106.0901750 111.1003505
  63.3241515 105.6411019 111.7409892  59.7185993 109.3394230  93.4163169
  59.3837361 110.0171152  92.9807391  60.2312863 108.9499542  92.8280041
  59.7451574 109.3818809  93.2649961  59.2590284 111.2908499  99.3574281
  59.6429663 111.8595398  98.8179056  59.1949425 110.5658009  98.8780097
  59.3063711 111.2683963  99.2068143  62.7271714 101.4398187 104.8672042
  63.2727674 102.1183274 104.9266012  62.6688590 101.2985648 104.0073624
  62.7987628 101.5190189 104.7484103  55.8445789 108.9287253 100.2540395
  55.9456152 108.1187607 100.5637522  55.2487534 108.8344200  99.6240073
  55.7718328 108.7952281 100.2066633  64.5036783 102.8682794  95.7405770
  64.3876309 103.6190480  96.1697908  65.2992669 102.6106747  95.9901857
  64.6041372 102.9417641  95.8409862  55.6846529 113.8464842 101.6555251
  56.3283984 114.2878006 102.0451409  56.0102784 113.0418268 101.5685509
  55.8278357 113.7930037 101.7000728  49.0410833 104.9507540  99.8792728
  48.8061018 104.1175192  99.7724997  49.1796474 105.2312205  99.0653929
  49.0266496 104.8691043  99.7435083  51.3400921  97.1193270 102.7777036
  50.7205952  96.5285918 102.6087051  51.2384784  97.7104705 102.1441359
  51.2338596  97.1197353 102.6582025  56.3867108 106.8576817  97.0275112
  56.7082949 107.3982024  96.4236420  57.0339205 106.2873589  97.1597402
  56.5293163 106.8535992  96.9582148  58.4368816  98.8592812  97.1109499
  59.1348981  99.0380940  97.6030962  58.7521149  98.3363151  96.4879888
  58.5864154  98.8086584  97.0911509  51.0670054 100.6645552 105.0220605
  50.9428751 101.2507997 105.6570424  51.7188338 100.1705748 105.3232880
  51.1443703 100.6784356 105.1606534  58.6256752 105.2463257  97.0989290
  59.0650387 104.6380358  97.5444063  58.4761415 104.8670630  96.3274755
  58.6678217 105.1001728  97.0508458  56.0928395 103.8407269 104.3008116
  56.7377397 103.3479712 103.9819064  56.3330172 103.9832056 105.1274194
  56.2238980 103.7884711 104.3757649  58.6314486 106.6862175 103.9515009
  58.9137729 105.8913581 103.7301764  59.3600646 107.1642762 103.9720070
  58.7804050 106.6396772 103.9218024  56.6095680  94.2285209 101.1930774
  56.2799010  94.6796352 100.5234472  55.9340682  94.1501372 101.7403780
  56.4606116  94.2836344 101.1753997  62.2266088 103.5990438  94.0520060
  62.1417383 104.4551405  94.1969629  62.7150471 103.3234762  94.7202219
  62.2854986 103.6847760  94.1722141  63.8172088  90.2170732  99.4380384
  63.5025529  90.9074210  99.8700807  63.2999029  90.1615514  98.7365885
  63.6936558  90.3105620  99.3977333  63.1584521 100.2175233  95.5517795
  62.6295993 100.4334866  96.2115101  63.6809541 100.9111371  95.4718764
  63.1572974 100.3518369  95.6373394  68.6132574 105.7921537 100.9250839
  67.7830278 106.0032181 101.0884256  68.5641827 104.9658592 100.6493123
  68.4839310 105.7011143 100.9088205  55.0484129 104.1138449  94.3525263
  54.4641345 104.6188481  94.7591127  54.6454224 103.8880836  93.6121855
  54.9023433 104.1546698  94.3030288  50.6028158 109.8293210 101.1548934
  50.1195736 110.5543700 101.1308518  51.4151476 110.1269341 101.2659092
  50.6518906 109.9795564 101.1676214  56.6742312 108.6225391 103.7598749
  56.1569254 108.2632806 103.1560057  57.3716703 108.0987566 103.7704815
  56.7007893 108.4923079 103.6729008  60.3305904 109.0720205 109.7214922
  60.4189250 108.8846346 110.5693132  60.7595616 108.4257635 109.3219769
  60.4068006 108.9483213 109.7886673  57.8976364 108.3551365 108.7032584
  57.3347199 107.9423975 109.2272245  58.6597387 108.2804271 109.1225727
  57.9270812 108.2828766 108.8425584  59.5061344 100.3604101  92.8294183
  59.7457347 100.5682085  92.0169527  59.8277185  99.5561610  92.9383128
  59.5898502 100.2718203  92.7254736  54.8151634  92.2897497  96.6753721
  55.5697602  92.6575814  96.4370772  54.6379169  92.6637052  97.4432901
  54.9006112  92.3995685  96.7538610  53.4572355 110.3449386 101.3069214
  54.1592934 109.8301375 101.3641971  53.3769838 110.6723538 102.1116089
  53.5496116 110.3163613 101.4342006  68.1086533  98.4391938 104.7201261
  67.2714954  98.5094125 104.9548855  68.0774764  98.4416432 103.8475563
  67.9804815  98.4502165 104.6260809  54.5051262 100.5824973 110.4349629
  54.6771765 100.4730868 111.2834911  55.0420619 101.2279379 110.1980822
  54.6096266 100.6616975 110.5254726  53.1708699  94.6967816  93.3731834
  52.9884272  94.9139697  92.5472827  54.0334312  94.8106829  93.4290449
  53.2713288  94.7457714  93.2586321  52.7823131 106.5355738 100.8154822
  53.6212030 106.7678671 100.8628584  52.8134900 105.6660050 100.7461858
  52.9104848 106.4412685 100.8119467  53.4075834 106.9556614 105.1168128
  53.9474059 106.8127745 105.7871500  52.7245780 107.3553364 105.4852154
  53.3867988 106.9936284 105.2702549  58.8508418  91.6994227  96.4080858
  59.5794578  91.5210182  95.9619014  58.9403311  92.5412307  96.6188036
  58.9715080  91.7978105  96.3734376  62.8316719 102.6347614 100.3113152
  63.5874234 103.0679129 100.3502061  62.9379043 101.9852384 100.8847788
  62.9586889 102.6025098 100.4011178  65.8696890 106.4620891 101.0615555
  65.4332121 106.4657634 101.8174527  65.5359805 107.1426390 100.6295133
  65.7559510 106.5633347 101.1096388  60.4425963 108.5029224 112.3858705
  61.2266380 108.6160072 112.7514448  60.2422558 107.6770361 112.5817391
  60.5291989 108.3975944 112.4693091  48.8112979 103.1756904 105.2702549
  48.5451394 102.3596021 105.4293540  48.8251543 103.2210060 104.3998065
  48.7737701 103.0613809 105.1656031  65.7894373  93.5034719 103.3044983
  66.4320281  93.5732824 103.8906898  66.0417393  92.8363942 102.8024525
  65.9216505  93.4161068 103.3172262  52.7170726  97.9741989  91.8854307
  52.0028903  97.6880168  92.2976740  53.2014694  98.3138615  92.5260695
  52.6830089  97.9823638  92.0409942  53.5611585  96.7135283 107.9169557
  52.8683382  96.2432262 108.1630289  54.1771912  96.4873587 108.4911264
  53.5496115  96.6102414 108.0378710  60.5996357 110.4139326 106.0325161
  59.8011602 110.1738826 106.2899030  61.0482368 110.4653719 106.7792209
  60.5470968 110.3861717 106.1810085  69.0041236 103.1801811  99.9535192
  69.6657670 102.6192480  99.8531101  68.3632648 102.6853842 100.2787884
  69.0070103 103.0238220  99.9867533  59.8918044 106.4771943  92.2616116
  60.3069192 106.1456967  91.5700611  59.0609973 106.2440845  92.1336252
  59.8306052 106.3943199  92.1406963  49.2206392 103.9615684 102.5514294
  49.0381966 103.9362570 101.6986586  49.9556061 104.4314622 102.5903202
  49.3020456 104.0277046 102.4312212  65.2906067 104.1967194  99.6947181
  65.5261656 104.3412393  98.8674032  65.4395630 104.9609602 100.0878695
  65.3471870 104.3306248  99.6310785  52.2852144 100.6800687 109.0596402
  53.0092116 100.6653717 109.5461297  52.3868281 101.3896042 108.5618370
  52.4070353 100.7825390 109.0575189  67.1196523 103.0368860  97.5316785
  67.4504740 103.5696500  96.9256880  67.6929611 103.0907747  98.1878736
  67.2530202 103.1238429  97.5394567  59.6597093 104.1599771 113.9245349
  58.8670074 104.4743283 114.1097969  59.7746021 104.3751240 113.0866134
  59.5592504 104.2383608 113.8283684  62.3328412 100.8833762  98.2140365
  62.4275267 101.6223056  98.6679991  61.7087256 100.4551238  98.6474930
  62.2537443 100.9295083  98.3448513  60.5880886 104.0619975 108.8630646
  61.1619748 103.4247219 109.0179210  60.5095690 104.0624057 107.9940304
  60.6614121 103.9685086 108.7577057  49.1877303 100.8409184 102.7013360
  49.7650805 100.7045635 103.3405605  48.4891364 100.3844969 102.9558945
  49.1698324 100.7531451 102.8335650  62.5851434 102.7282502  91.4477317
  62.5031596 102.7984689  92.3132304  63.2231154 103.2912246  91.2561058
  62.6671271 102.8221473  91.5467267  55.9444605 102.4943240 100.9151843
  55.6863849 101.6614975 100.8883143  55.9993088 102.7200853 100.0744344
  55.9144383 102.4041011 100.7871980  61.0245655  94.5971691 101.0155936
  60.3201982  94.1080876 101.1739855  61.0730629  94.6094165 100.1444380
  60.9275707  94.5261339 100.9095276  54.9179317 100.0481003 101.4016738
  54.3428908 100.2073171 102.0380699  54.5414993  99.4116412 100.9385189
  54.7782129  99.9778816 101.4271297  58.5852606  98.5204352 106.2609117
  58.1967038  98.0958570 105.6061308  57.9207304  98.7686501 106.7686143
  58.4299533  98.4943073 106.2396984  68.2275875  98.2779357  99.0356947
  67.9712440  97.4659298  98.8454829  69.0705189  98.2856924  98.8087134
  68.3141900  98.1591354  98.9741764  44.6636136  99.6921077  99.4161179
  44.7496388  99.3152946 100.1974709  45.2911933  99.3181523  98.9381137
  44.7692687  99.5806560  99.4606656  62.4078967  92.2178981 103.7733101
  62.7889479  91.5357152 104.1600975  61.6042251  91.9288583 103.5908765
  62.3455429  92.0746029 103.8037157  59.6891544 102.7502956  94.4585924
  60.5032183 103.0417849  94.3468695  59.6250685 102.0962819  93.8844216
  59.7994283 102.6968151  94.3574761  65.9101034 105.4328953 108.8715499
  65.6739671 104.6017017 108.7527560  66.5544263 105.3814560 109.4570343
  65.9695705 105.3026641 108.9401393  55.5599452 106.2224474  99.5858236
  56.1973399 105.9836221 100.1310029  55.9854524 106.4261633  98.8511396
  55.7175618 106.2175484  99.5575393  50.2512095 108.4612810 103.4692539
  50.2916240 108.7327661 102.6412319  50.8106619 108.9854718 103.8850327
  50.3395440 108.5788565 103.4084428  56.2002267 101.4426764  93.9233125
  56.5847420 101.2234470  94.6749670  55.9513888 102.2689709  94.0534201
  56.2204340 101.5324910  94.0534201  56.3670808  94.7233179 113.6395709
  56.0524249  95.4932742 113.3765272  56.0460740  94.1603435 113.0547936
  56.2729727  94.7543448 113.5137059  66.9337455 105.2173401 104.9343794
  66.6283272 105.9501458 105.2957109  66.2143670 104.8111331 104.6536580
  66.7824797 105.2655134 104.9456931  57.9420924 106.6996897 101.2652022
  58.0159932 106.5372068 102.1193872  58.7590430 106.8887086 101.0212504
  58.0737283 106.7033639 101.3550047  72.6339247 101.8566402 104.2612138
  72.5663747 101.8762361 103.3914724  72.6194909 102.6996729 104.4867808
  72.6218003 101.9840137 104.1664615  51.7026681 107.0454759  98.2946465
  50.8764798 107.2916497  98.1680744  51.7638672 106.9666840  99.1608523
  51.5900848 107.0699708  98.4035410  53.9202705  93.1123700  99.2541906
  53.0525130  93.1846300  99.3199515  54.2077909  93.9145779  99.4429881
  53.8342453  93.2417847  99.2916672  63.0435593  93.2601560 107.5853227
  63.7889185  93.0711370 107.1716653  62.6272898  93.7859798 107.0267084
  63.0920568  93.3103705 107.4417801  56.4825510 109.6631640  95.9965495
  56.7723808 109.2720621  95.2724722  57.2128991 109.8448344  96.4370771
  56.6332394 109.6325453  95.9548302  70.4197864 100.6310788 102.5358732
  70.9705786  99.9978857 102.7755824  70.4041980 101.1626181 103.2274237
  70.4983061 100.6159736 102.6737591  57.0720255 104.4649385 107.0818626
  56.5731949 105.1765153 107.1603514  57.8820479 104.7850052 107.0436788
  57.1176362 104.6176234 107.0875194  54.4231425 111.6399022  99.0625645
  54.2031721 111.3496377  99.8552312  54.2025947 110.9813977  98.5343557
  54.3579020 111.4998730  99.1014554  53.3348373 103.7272338 101.3281347
  53.0461621 103.1009810 101.8627074  54.2031721 103.6692626 101.3946027
  53.4208625 103.6259883 101.4172301  64.1226270  98.8707122 101.6463329
  63.7791036  98.1497457 101.9970578  64.2219313  98.6620973 100.8041687
  64.0868313  98.7331325 101.5735009  56.5899381 113.0128412  97.8456337
  57.2423439 112.4804854  98.0747363  55.8924990 112.6597064  98.2324211
  56.5830099 112.8817935  97.9368505  53.5380646 105.3667590  97.2523712
  54.2926614 105.7480629  97.4659174  52.9451259 105.8178733  97.7070408
  53.5617360 105.4896417  97.3506590  64.5839299 105.3332826  97.1887317
  65.1497332 105.9926036  97.1045860  63.9367203 105.6782524  97.6603719
  64.5718056 105.4814767  97.2460073  55.9987313  97.3230430 112.3780924
  55.1887089  97.6288210 112.2670766  56.4762000  98.0436012 112.4933508
  55.9490792  97.4745031 112.3787995  54.8578873 106.5376151 102.6263827
  54.3359626 106.6776443 103.3115692  55.2452893 105.7786815 102.8165944
  54.8382574 106.4461675 102.7564904  51.8470057  96.5881960  96.6958782
  51.5594852  96.2183230  95.9590729  52.5340525  97.0576815  96.4342487
  51.9058954  96.6028929  96.5473858  61.0545878 108.2771610  96.6124396
  60.8132553 107.5439471  96.2051461  61.2347210 108.8258467  95.9590729
  61.0453502 108.2494001  96.4554619  56.2845198 103.5680170  98.0245318
  56.0887981 104.1754904  97.4305621  56.5079544 102.8748114  97.5436992
  56.2879839 103.5557695  97.8661399  54.6823728 100.4534908  98.1426186
  55.4046380 100.6176066  97.6829992  54.2031721 101.1744573  98.0365526
  54.7187459 100.5833137  98.0591800  62.6417236  96.7898707 103.5222871
  61.8028336  96.8159986 103.2861135  62.7121603  97.4369442 104.1028218
  62.5285629  96.8894832 103.5731988  52.3331345 102.8592980 107.2480326
  52.8452442 103.1377234 106.5989086  52.0467688 103.5982274 107.6143139
  52.3666208 103.0095334 107.2070204  61.0886514  93.6884084  98.2550487
  61.7912867  93.4891832  97.7770446  60.8230703  92.9160026  98.5619331
  61.1533146  93.5447050  98.2295929  66.5174760 101.9966693 100.8084113
  66.4308734 102.1522119 101.6618892  66.0625240 102.6404769 100.4343518
  66.4378016 102.1142449 100.8791220  49.4198251  97.3663172  97.5444063
  49.5214388  98.1689334  97.8725038  50.2154138  97.1650508  97.2467143
  49.5526157  97.4549071  97.5479418  55.8515070  94.9519369 107.3081368
  55.6598267  94.9674503 108.1580791  56.7013666  95.1483043 107.2848023
  55.9490792  94.9833720 107.4304663  50.2361983  97.4810350 105.2865184
  50.0947475  96.6294291 105.4109692  50.5202547  97.5239011 104.4627390
  50.2569829  97.3610100 105.1832808  60.3900576  99.3177441  99.4309673
  60.1435290  99.2373191 100.2646462  60.7185699  98.5330908  99.2372200
  60.4021819  99.1903706  99.5257196  64.2848625 106.0260800 103.2196454
  64.1462984 106.7241846 103.7245196  63.5048622 105.8709456 102.8632636
  64.1491851 106.1060967 103.2422728  62.6226710 102.3257175 109.4718836
  62.6174748 101.4536992 109.4761262  63.3287704 102.5245344 108.9988291
  62.7271714 102.2261049 109.4025871  56.3497603 102.0534159 108.8432656
  56.4940979 102.6335367 108.2075766  56.6973252 102.4310456 109.5482510
  56.4225064 102.1954863 108.8531651  58.5217520 101.2524327 106.6257787
  57.7740834 101.4455342 106.2206065  58.6759046 100.4269547 106.3881909
  58.4339948 101.1589439 106.5303193  55.4225358 110.2436931 105.7093683
  55.5714922 109.6839847 105.0567087  56.2025360 110.3228933 106.0926201
  55.5599452 110.1722496 105.6690632  65.7801997 105.3839054  93.9812953
  65.4008806 104.5976192  93.9742242  65.1168243 105.9325911  93.8384597
  65.6260472 105.3483878  93.9593750  57.9478659 110.4151574 106.9878173
  57.8722330 109.7460384 107.5428962  57.8768518 111.1169362 107.5018840
  57.9259265 110.4196481 107.1455022  58.7619297  95.1474878 107.5153191
  59.2191911  95.8798853 107.6425983  58.8375626  94.7241343 108.2740447
  58.8410267  95.1932116 107.6454268  51.0052289  95.3940698 108.6042635
  50.4694478  94.7821056 108.9203402  51.0670053  95.9688834 109.2576301
  50.9347921  95.3887626 108.7478062  63.2346623  88.3264753 101.3847034
  63.3530191  88.7841217 100.6514337  63.0608799  87.5210015 101.0983252
  63.2265794  88.2758526 101.2347968  58.6048906 108.9352573  97.8201779
  59.3698797 108.6662216  97.4984444  58.5026995 108.4502583  98.5371842
  58.7030401 108.8242137  97.8781607  56.6401675  97.1376982 104.3595015
  55.8497750  96.9568442 104.6812351  57.0362298  96.3603935 104.3425310
  56.5818551  96.9964443 104.4047563  61.1267566 105.9664756  89.8001729
  61.8940551 106.0264881  89.3907580  60.6798875 105.3945198  89.3158047
  61.1740993 105.8901332  89.6679439  62.0245362 104.7719412 102.0854461
  61.3490363 104.5404645 102.5867848  62.0337738 104.1640595 101.4596566
  61.9263866 104.6478337 102.0670613  59.1539506  99.6137241 108.8418514
  59.0898647 100.4747198 108.7138651  59.2936693  99.2969234 108.0414065
  59.1654976  99.6937408 108.7046727  64.0262096 107.6284545  94.3164639
  64.1081934 108.4351531  93.9926090  64.5111838 107.6480504  95.0405412
  64.1099254 107.7505207  94.3751538  57.8358599 102.3069381 102.9834717
  57.4120849 102.5073880 102.2473735  57.6603455 101.4598229 103.0959017
  57.7469480 102.2118162 102.8908407  57.3370293 113.8219894 105.4456174
  57.8266223 113.1230683 105.2631839  56.7654525 113.5243764 106.0332232
  57.3254823 113.6746117 105.5057215  53.1241044 102.8021432  98.4162689
  53.2805664 102.7368235  99.2718682  53.4641638 103.5769985  98.2041369
  53.1974279 102.9070630  98.5117284  59.6620189 102.1779316  97.2856053
  60.2035734 101.6749697  97.7494673  59.9766748 102.1244510  96.4745538
  59.7884586 102.0958737  97.2339865  57.8306639 107.5696667  94.5696081
  57.8999459 106.7111206  94.7089081  58.6095094 107.7868548  94.2415105
  57.9559489 107.4749531  94.5413238  60.8109458  97.0715620 107.3378353
  61.0251428  96.4326534 106.7841707  60.1943358  97.5161444 106.9086215
  60.7514788  97.0425764 107.1928784  62.2214126 109.9934368  98.7832574
  61.8293918 109.6901084  98.0655440  62.3767199 110.8303458  98.5937528
  62.1867716 110.0718205  98.6489071  49.6975306  99.9856382  98.7323457
  50.0774271 100.4040927  98.0683724  49.1230671 100.5669838  99.0392300
  49.6686631 100.1334241  98.6800198  62.9748546  98.6804685 108.2761660
  62.1625228  98.3730576 108.3574833  63.4338481  98.2003685 108.8404372
  62.9228931  98.5641178 108.3716254  62.3853801 106.5584357  98.7238605
  62.0268456 106.7299000  99.5002637  61.8992512 107.0197563  98.1666603
  62.2612498 106.6523328  98.7563874  60.2024187  90.1815556 102.3265696
  59.3317745  90.1554277 102.2799005  60.4564528  90.0092748 101.5091542
  60.1117747  90.1525699 102.1985833  57.1742166 102.2383523  91.2638839
  57.4634691 103.0148405  91.5382413  57.2613965 101.7272254  91.9653338
  57.2296423 102.2775441  91.4081337  60.0702054 100.0864757 113.0590363
  60.5401685 100.7106873 113.4458237  60.1163934  99.4181732 113.6183577
  60.1469930 100.0799437 113.1990434  57.2273328  92.1921784 103.7839166
  56.7111816  91.5001976 103.9090745  56.6667256  92.8592561 103.7301765
  57.0679841  92.1885042 103.7945232  59.2965561  92.7314744 105.6132019
  58.9097314  92.7563776 106.3945549  58.8098498  92.1656423 105.1606535
  59.1678070  92.6510495 105.6619923  63.5458540 107.4488253 109.6705805
  64.1838261 106.9548449 109.3368261  62.9032632 107.3765654 109.0858032
  63.5452767 107.3647262 109.5348160  65.2715541  99.2977399 104.2371721
  64.8443149  99.2103748 103.4819821  64.6341593  99.4055175 104.8226565
  65.1145148  99.3010059 104.2117163  58.9622703  89.6181730 107.9042279
  59.5915821  90.1542030 107.6263349  59.1308565  89.5259089 108.7555844
  59.0800497  89.6843092 107.9890807  58.7636618  94.4052924 110.1768690
  59.5910047  94.1338073 110.2327305  58.7844464  95.2013766 110.5332509
  58.8889468  94.4832679 110.2383873  63.6012797 108.1408062 106.3111162
  64.3905175 107.7897126 106.4313244  63.7756395 108.9544450 106.0487796
  63.7433079 108.2093919 106.2899030  53.3406107 101.5516787 103.3638951
  52.4994114 101.4520661 103.5717845  53.5496115 102.3212268 103.7153272
  53.2470800 101.6508831 103.4466266  50.8181674  99.1736324 101.1923702
  50.4238372  99.2479336 100.4173811  50.2621791  99.5594271 101.7432063
  50.6784487  99.2418099 101.1591361  62.4546621  92.1517618 100.8727581
  62.6596215  92.0839926 101.7184578  62.1273045  92.9576439 100.8048758
  62.4361869  92.2603559 100.9887236  57.1522772  99.4798186 102.6136549
  56.8485910  98.9254175 103.2146956  56.4502193  99.6590396 102.1264583
  57.0038982  99.4242969 102.6306254  56.2088869  96.7898706  97.1781250
  56.4848604  96.0717619  96.7658818  56.8087539  97.3883626  96.9702356
  56.3382134  96.7719077  97.0862012  55.2141123 106.6947907 107.3208646
  55.1061478 106.7049969 108.1870704  55.4236905 107.5202688 107.1313600
  55.2291234 106.8188982 107.4212738  65.7080309  92.7049382 100.3530346
  65.0954623  93.1919785 100.7384078  65.8044484  92.0292873 100.8967997
  65.6318207  92.6767691 100.4909204  59.7099390  94.4612224  95.4527845
  60.1643136  94.6322784  96.1775690  60.1839436  93.8480334  95.0525621
  59.8467710  94.3963109  95.5001607  53.2314915 103.9460550 104.7830584
  52.6402849 104.5870048 104.7533599  53.9935939 104.3698167 104.7561883
  53.2563176 104.1036388 104.7745731  53.6275538  95.1062547 105.4498602
  54.0877020  95.1801477 106.1873725  53.6731645  95.9043801 105.0998423
  53.7026093  95.2356694 105.5071358  55.2758888  95.7729242 110.0170629
  54.8844453  95.1262589 110.4526406  55.4444751  96.3640677 110.6364884
  55.2429798  95.7643510 110.1733335  69.3505337 103.7766319 105.7807862
  69.4088461 104.2252968 106.5267839  68.7171804 104.1865132 105.3437942
  69.2656632 103.9040054 105.8260410  62.9904432 109.3969861 102.2162608
  62.7924120 109.8860676 101.5218820  62.3692143 109.6011103 102.7946742
  62.8691996 109.4986399 102.1985832  57.0512410 101.1654758  96.5572853
  57.7954455 101.5529034  96.7955803  57.1973106 100.3212183  96.7213340
  57.1822995 101.0985231  96.6166822  58.9691985  92.9605017 101.5904714
  58.1228030  93.1327825 101.4646064  58.9663118  92.1554361 101.9270542
  58.8439135  92.8666046 101.6215841  60.0390286  96.7380231 102.4566772
  59.5650240  96.2121993 102.9672083  60.4108422  96.1909704 101.8881634
  60.0240175  96.5796228 102.4481919  50.4163316  98.7351738 107.8250318
  51.2788929  98.6347447 107.7387648  50.0855099  98.1546447 107.2635890
  50.4948512  98.6343365 107.7295724  66.3027016 101.7982607 103.8673553
  66.0625239 100.9589022 103.8715979  66.7819024 101.8782774 104.5914326
  66.3379200 101.6864007 103.9748355  61.9673785  97.6316786  95.5192526
  61.4396804  97.7145530  94.8298235  62.4269494  98.3734657  95.5157170
  61.9575636  97.7537448  95.4167221  68.3032203  98.5784064 101.8202812
  68.0641973  98.5379898 100.9823596  68.4666105  99.4255216 101.9468533
  68.2922507  98.6976149 101.7156294  64.9078233 102.9634013 107.7507857
  65.6312432 102.5106540 107.5718877  64.6428196 103.2438679 106.9680185
  64.9759507 102.9384982 107.6086572  53.7765102  97.5594187 104.4860736
  53.1518172  97.5712579 103.8786689  53.4410697  98.0354362 105.1351976
  53.6350594  97.6312704 104.4917304  53.9606851  95.9019305  90.5433421
  53.6119655  96.5539031  91.0064970  53.4803296  95.8876419  89.8157292
  53.8377095  95.9962359  90.5044512  50.4890777 105.6194647 105.9264500
  49.9590702 104.9287086 105.9759475  50.7615871 105.6104832 105.0977209
  50.4515500 105.5161779 105.8111916  61.5210868 106.2020349  94.6502183
  62.2445067 106.6678462  94.5066756  61.0811459 106.2693959  93.8999780
  61.5626560 106.2804186  94.5186964  60.6897023 103.0617892 105.9002872
  60.0754016 102.5175942 106.1951507  61.2064308 102.5482128 105.4208688
  60.6752685 102.9054301 105.8727100  59.9293320 104.1322162 103.6347170
  59.5020928 103.5071880 103.2012606  59.9218265 103.8497084 104.4606178
  59.8652461 103.9974942 103.6926998  53.0455847  99.1687335 106.7035604
  53.2049334  98.4130659 107.1087326  52.8648741  99.7178274 107.3576342
  53.0421206  99.1381149 106.8598310  60.9876150  91.3348570 107.2586394
  60.4916712  91.5312245 106.5677961  61.7445212  91.7341239 107.0875196
  61.0262975  91.4226304 107.1306531  58.2579030  95.0090916 103.8489704
  58.2821517  94.4751029 103.1602484  58.5090503  94.5008225 104.5115295
  58.2988949  94.8551820 103.8454349  45.7686620 102.2922411 103.2832849
  45.6630069 102.2469256 102.4184933  45.0186840 102.6376192 103.5647133
  45.6422223 102.3363319 103.1970178  54.5380352  93.7361734 103.2295449
  54.5778724  94.2370941 103.9430156  53.7130017  93.8272128 102.9601372
  54.4219878  93.8243551 103.2945987  56.7209965 103.3022474 111.3315743
  55.8705595 103.4394189 111.4673388  56.8838093 102.5686253 111.7763445
  56.6193828 103.2136576 111.4171343  55.9594715 100.2522244 105.5269348
  55.1286645 100.4196062 105.3204596  55.9046233  99.8758195 106.3118233
  55.8284130 100.2211976 105.6117876  53.7678499  93.7431137 111.1625758
  54.3931202  93.1993270 111.4355191  53.3128979  93.2626055 110.5933549
  53.7926759  93.5920619 111.1187352  54.3330759  98.5277836  96.0559465
  54.4733720  99.0250300  96.7588107  54.8313292  97.8264130  96.1973679
  54.4271840  98.4979815  96.1811044  54.3630982  99.3944947  93.3852042
  54.9976061  99.9905372  93.3201504  54.4456592  99.0948404  94.1997912
  54.4687533  99.4385855  93.4955129  67.3413547 101.9260424 106.2538406
  67.9331388 102.5657675 106.2856605  67.7772542 101.2283461 106.5430473
  67.4931979 101.9178775 106.3019239  55.9409965  95.3258922  93.3597484
  56.2625806  94.8462005  92.7056747  56.2036908  96.1358568  93.1688296
  56.0275990  95.3748820  93.2352976  59.1706937 106.3477797 106.8796300
  58.6632028 106.9013643 107.3236931  58.8733584 106.4086087 106.0615075
  59.0511822 106.4384108 106.8244757  61.3369120  94.7131116 105.7220963
  61.7624191  94.2603643 105.1104490  60.7226113  94.1591187 105.9985751
  61.3097765  94.5645092 105.6725989  50.8683970 101.5912788  96.6541588
  51.3776199 102.1877295  97.0352894  51.3418242 101.3238761  95.9718008
  51.0127345 101.6398603  96.6096111  61.7814718 110.2641054  94.8100244
  61.0644027 110.0901917  94.3447481  62.4321455 110.0293627  94.2775730
  61.7716568 110.2036847  94.6629462  59.7763342  91.1846216  99.1311540
  59.1331660  91.0343862  99.6996679  59.4362749  90.9388561  98.3660645
  59.6308420  91.1258339  99.1014556  64.3662689  99.1405643  98.5541549
  63.6953879  99.6835345  98.4254615  65.0602439  99.6100498  98.3123244
  64.3691556  99.2903914  98.4997077  58.4149423 111.2802355 103.7853307
  58.1915077 110.5221184 104.1537334  57.9259266 111.3100376 103.0633747
  58.3092872 111.1724579 103.7330048  64.5290816  95.5961526 101.4631922
  64.8818426  95.1691249 102.1377721  63.6705618  95.5112370 101.5932999
  64.4540261  95.5206267 101.5826933  53.2274501  98.2269046  99.5214769
  52.5086490  98.6433179  99.7887632  53.5986864  98.7923285  98.9706407
  53.1766433  98.3718328  99.4797576  62.5274082  98.8596895 105.4116764
  62.5072009  98.6780190 106.2651543  62.5753283  99.7308914 105.3876348
  62.5308723  98.9613433 105.5340059  60.4720412 105.4484087 111.3365241
  60.4316267 104.8033764 110.7510397  61.2843730 105.3920704 111.6490653
  60.5863565 105.3443054 111.2962190  57.0627880 111.5002813 101.2390392
  56.6488278 110.8376943 100.8494234  57.7475254 111.6480672 100.7186086
  57.1026251 111.4243471 101.1046889  60.4293174 110.6592898 101.9914008
  60.0309457 110.7695169 101.2234829  59.8144393 110.8674965 102.5740568
  60.2792063 110.7066466 101.9645308  59.0021076  97.2667046  94.8588148
  58.4085915  97.5884043  94.3072715  59.0396353  96.4208142  94.6509254
  58.9195465  97.1891374  94.7470919  65.9614876  90.7179938 102.3916235
  65.4545741  90.0109078 102.3237412  66.7582310  90.3873127 102.5217311
  66.0042116  90.5653090 102.4015230  61.8778892  97.2246551  98.2889898
  61.6492585  97.2479252  97.4468257  62.1376968  96.4004018  98.4084909
  61.8825080  97.1062631  98.1815096  56.1598121  99.0781024 107.8914999
  55.6477024  98.4702207 108.2500030  55.9877617  99.7937616 108.3588974
  56.0587758  99.0944323 108.0131222  51.0063835  97.5218599 110.5417360
  50.8366426  98.1819974 109.9965567  50.5629785  97.7325160 111.2629850
  50.9163169  97.6504581 110.5678990  54.9323655  95.7623097  99.5844094
  55.4081021  96.1240177  98.9494275  54.4312254  96.4179564  99.8644237
  54.9289014  95.9117286  99.5320835  68.1635016 105.2344865  95.3757099
  68.5468622 105.9836221  95.6055196  67.3679130 105.4810685  95.1169088
  68.1028799 105.3814559  95.3714673  60.0367191  97.0005268 110.3317254
  60.5938621  96.7719078 109.6995720  59.7128256  97.7610934 110.0552467
  60.0713601  97.0789105 110.1973751  47.9065900 100.4265465 105.8005850
  47.3592619  99.7566110 105.9186719  48.6958278 100.0595312 105.8649318
  47.9418084 100.2730451 105.8274551  57.7550308 100.0872922 111.2969261
  58.5061635 100.4024598 111.6108815  57.9472885  99.8852092 110.4703183
  57.8941722 100.1040303 111.2212657  56.9750308  97.9064297  92.9517478
  57.3549273  97.9243926  92.1668593  56.2342904  98.3518286  92.8308325
  56.9219146  97.9746071  92.8181046  64.6035598  96.2146488  98.5393057
  64.6029825  96.0595144  99.3977333  64.3991778  97.0609475  98.4834442
  64.5735376  96.3167109  98.6580996  46.6652869  99.6386272 102.9551873
  46.4874630  99.1862881 103.6806789  46.3771892 100.4412434 103.1390351
  46.5965823  99.6908830 103.0895376  62.3276450 100.8943990 102.1929264
  62.8230116 100.1766985 102.1533284  61.5176226 100.5914787 102.0783751
  62.2820344 100.7441636 102.1702989  57.7735062 104.7441803  94.3426268
  56.9646385 104.4208476  94.2959578  58.2809971 104.0375025  94.2754517
  57.7284729 104.5923119  94.3256562  48.4025339 102.1713996 100.0673632
  47.5370859 102.1599687  99.9556404  48.5024155 101.9844219 100.9144772
  48.2899506 102.1420057 100.1762577  64.3928269 103.6447677 104.8806392
  64.8183341 103.1222099 104.3276817  64.0285189 104.2428515 104.3595015
  64.4014872 103.6557904 104.7215402  54.0282349 111.9411895 103.6403738
  54.3428908 112.7548283 103.6481520  54.4375762 111.5562113 104.3085897
  54.1350447 112.0040597 103.7407830  60.9806869 107.3581941 101.2107550
  61.4518047 108.0722204 101.3797535  61.3167047 106.7580692 101.7467419
  61.1001984 107.3753406 101.3139926  57.8976364  92.1309412 108.1665645
  58.0304269  91.3340405 108.4946620  58.2821516  92.6575815 108.7463920
  57.9732693  92.0909329 108.3009148  61.6180815 107.1499876 107.9735242
  61.0701761 106.5257759 107.7055308  62.0793844 107.3394148 107.2579322
  61.6048025 107.0858926 107.8285674  60.9708719  89.0539738 104.7646738
  60.1654683  88.9437468 105.0814576  60.8415454  89.1552194 103.9076604
  60.8328852  89.0523408 104.6854778  64.4274679  95.2185230 105.3586435
  63.8437668  95.7194437 104.9464002  64.7478974  94.7114786 104.7250758
  64.3887855  95.2177065 105.2044942  56.9669479  94.1325825  95.6345110
  57.7885173  94.3024138  95.3926804  56.5039130  94.2873086  94.9111407
  57.0200641  94.1807558  95.4916754  55.5564811  92.1268587 106.4143538
  56.1009223  91.7859714 107.0047880  55.6101746  92.9854049 106.5564823
  55.6453930  92.2023846 106.5225412  51.3695369 105.8885003 103.2882346
  51.9740227 105.8480837 102.6596167  51.1622682 106.7356155 103.3186402
  51.4284267 106.0073006 103.1998463  61.1839141 108.1550948 104.5044584
  62.0037515 108.0113914 104.7660879  60.9033219 108.7797147 105.0461022
  61.2635885 108.2261300 104.6232523  46.6046652 104.8719621 103.1581269
  46.5070930 104.0615892 103.4671326  47.3875521 104.8511414 102.7727538
  46.7062788 104.7486711 103.1468132  77.6552792 115.8115800  97.4687460
  77.6246796 116.6660437  97.6405729  78.2534141 115.5111093  98.0273604
  77.7389950 115.8932297  97.5762262  70.8552477 114.8991451 102.2240390
  69.9990372 115.0599949 102.2749507  70.9020130 114.0283515 102.2445452
  70.7351588 114.7942253 102.2346456  65.2393616 124.4354169  97.9877622
  64.4876516 124.0569707  97.7593667  65.6879628 124.4672602  97.2396432
  65.1943283 124.3839776  97.8435124  70.6918576 124.8579538  93.4163169
  70.3569945 125.5356460  92.9807391  71.2045447 124.4684850  92.8280041
  70.7184157 124.9004117  93.2649961  70.2322868 126.8093807  99.3574281
  70.6162247 127.3780706  98.8179056  70.1682009 126.0843317  98.8780097
  70.2796295 126.7869270  99.2068143  66.8178373 124.4472561 100.2540395
  66.9188735 123.6372915 100.5637522  66.2220118 124.3529507  99.6240073
  66.7450911 124.3137589 100.2066633  75.4769366 118.3868102  95.7405770
  75.3608892 119.1375788  96.1697908  76.2725253 118.1292055  95.9901857
  75.5773956 118.4602949  95.8409862  60.0143417 120.4692848  99.8792728
  59.7793601 119.6360500  99.7724997  60.1529058 120.7497513  99.0653929
  59.9999079 120.3876351  99.7435083  62.3133504 112.6378578 102.7777036
  61.6938536 112.0471225 102.6087051  62.2117368 113.2290013 102.1441359
  62.2071180 112.6382661 102.6582025  67.3599692 122.3762125  97.0275112
  67.6815533 122.9167332  96.4236420  68.0071788 121.8058896  97.1597402
  67.5025747 122.3721300  96.9582148  69.4101400 114.3778120  97.1109499
  70.1081565 114.5566248  97.6030962  69.7253732 113.8548459  96.4879888
  69.5596737 114.3271892  97.0911509  62.0402637 116.1830860 105.0220605
  61.9161334 116.7693305 105.6570424  62.6920922 115.6891056 105.3232880
  62.1176287 116.1969664 105.1606534  69.5989335 120.7648565  97.0989290
  70.0382971 120.1565666  97.5444063  69.4493998 120.3855938  96.3274755
  69.6410801 120.6187036  97.0508458  67.0660978 119.3592577 104.3008116
  67.7109981 118.8665020 103.9819064  67.3062755 119.5017363 105.1274194
  67.1971563 119.3070019 104.3757649  67.5828263 109.7470517 101.1930774
  67.2531594 110.1981660 100.5234472  66.9073265 109.6686680 101.7403780
  67.4338700 109.8021652 101.1753997  73.1998672 119.1175746  94.0520060
  73.1149967 119.9736713  94.1969629  73.6883055 118.8420070  94.7202219
  73.2587569 119.2033068  94.1722141  74.7904671 105.7356040  99.4380384
  74.4758112 106.4259518  99.8700807  74.2731613 105.6800822  98.7365885
  74.6669142 105.8290928  99.3977333  74.1317105 115.7360541  95.5517795
  73.6028577 115.9520174  96.2115101  74.6542125 116.4296679  95.4718764
  74.1305558 115.8703677  95.6373394  66.0216713 119.6323757  94.3525263
  65.4373928 120.1373789  94.7591127  65.6186808 119.4066144  93.6121855
  65.8756017 119.6732006  94.3030288  61.5760741 125.3478518 101.1548934
  61.0928320 126.0729008 101.1308518  62.3884060 125.6454648 101.2659092
  61.6251489 125.4980872 101.1676214  70.4793927 115.8789409  92.8294183
  70.7189931 116.0867393  92.0169527  70.8009768 115.0746918  92.9383128
  70.5631085 115.7903511  92.7254736  65.7884218 107.8082805  96.6753721
  66.5430186 108.1761122  96.4370772  65.6111752 108.1822359  97.4432901
  65.8738696 107.9180993  96.7538610  64.4304939 125.8634694 101.3069214
  65.1325518 125.3486683 101.3641971  64.3502422 126.1908846 102.1116089
  64.5228699 125.8348921 101.4342006  64.1441282 110.2153124  93.3731834
  63.9616855 110.4325005  92.5472827  65.0066895 110.3292137  93.4290449
  64.2445872 110.2643022  93.2586321  63.7555714 122.0541046 100.8154822
  64.5944614 122.2863979 100.8628584  63.7867483 121.1845358 100.7461858
  63.8837432 121.9597993 100.8119467  69.8241001 107.2179535  96.4080858
  70.5527162 107.0395490  95.9619014  69.9135894 108.0597615  96.6188036
  69.9447663 107.3163413  96.3734376  73.8049302 118.1532922 100.3113152
  74.5606817 118.5864436 100.3502061  73.9111627 117.5037692 100.8847788
  73.9319473 118.1210406 100.4011178  59.7845562 118.6942212 105.2702549
  59.5183977 117.8781329 105.4293540  59.7984126 118.7395368 104.3998065
  59.7470285 118.5799117 105.1656031  76.7626956 109.0220027 103.3044983
  77.4052865 109.0918132 103.8906898  77.0149977 108.3549250 102.8024525
  76.8949088 108.9346376 103.3172262  63.6903309 113.4927297  91.8854307
  62.9761486 113.2065476  92.2976740  64.1747278 113.8323923  92.5260695
  63.6562673 113.5008946  92.0409942  64.5344169 112.2320591 107.9169557
  63.8415965 111.7617570 108.1630289  65.1504496 112.0058895 108.4911264
  64.5228699 112.1287722 108.0378710  79.9773819 118.6987119  99.9535192
  80.6390253 118.1377788  99.8531101  79.3365231 118.2039150 100.2787884
  79.9802687 118.5423528  99.9867533  70.8650627 121.9957251  92.2616116
  71.2801776 121.6642274  91.5700611  70.0342557 121.7626153  92.1336252
  70.8038636 121.9128507  92.1406963  60.1938976 119.4800992 102.5514294
  60.0114549 119.4547878 101.6986586  60.9288645 119.9499930 102.5903202
  60.2753040 119.5462354 102.4312212  76.2638650 119.7152502  99.6947181
  76.4994239 119.8597701  98.8674032  76.4128214 120.4794910 100.0878695
  76.3204453 119.8491556  99.6310785  78.0929107 118.5554168  97.5316785
  78.4237324 119.0881808  96.9256880  78.6662195 118.6093055  98.1878736
  78.2262786 118.6423736  97.5394567  73.3060996 116.4019070  98.2140365
  73.4007850 117.1408364  98.6679991  72.6819840 115.9736546  98.6474930
  73.2270026 116.4480391  98.3448513  60.1609886 116.3594492 102.7013360
  60.7383389 116.2230943 103.3405605  59.4623948 115.9030277 102.9558945
  60.1430908 116.2716759 102.8335650  73.5584017 118.2467810  91.4477317
  73.4764180 118.3169997  92.3132304  74.1963738 118.8097554  91.2561058
  73.6403855 118.3406781  91.5467267  66.9177188 118.0128548 100.9151843
  66.6596433 117.1800283 100.8883143  66.9725671 118.2386161 100.0744344
  66.8876966 117.9226319 100.7871980  71.9978239 110.1156999 101.0155936
  71.2934565 109.6266184 101.1739855  72.0463213 110.1279473 100.1444380
  71.9008290 110.0446647 100.9095276  65.8911901 115.5666310 101.4016738
  65.3161492 115.7258479 102.0380699  65.5147577 114.9301720 100.9385189
  65.7514713 115.4964123 101.4271297  69.5585189 114.0389660 106.2609117
  69.1699622 113.6143878 105.6061308  68.8939888 114.2871809 106.7686143
  69.4032117 114.0128381 106.2396984  79.2008458 113.7964664  99.0356947
  78.9445023 112.9844606  98.8454829  80.0437772 113.8042232  98.8087134
  79.2874484 113.6776662  98.9741764  55.6368719 115.2106385  99.4161179
  55.7228971 114.8338254 100.1974709  56.2644517 114.8366831  98.9381137
  55.7425270 115.0991867  99.4606656  73.3811551 107.7364289 103.7733101
  73.7622063 107.0542460 104.1600975  72.5774835 107.4473891 103.5908765
  73.3188012 107.5931337 103.8037157  70.6624127 118.2688264  94.4585924
  71.4764766 118.5603157  94.3468695  70.5983269 117.6148127  93.8844216
  70.7726867 118.2153459  94.3574761  66.5332036 121.7409782  99.5858236
  67.1705983 121.5021529 100.1310029  66.9587107 121.9446941  98.8511396
  66.6908202 121.7360792  99.5575393  61.2244678 123.9798118 103.4692539
  61.2648823 124.2512969 102.6412319  61.7839202 124.5040026 103.8850327
  61.3128024 124.0973873 103.4084428  67.1734851 116.9612072  93.9233125
  67.5580003 116.7419778  94.6749670  66.9246471 117.7875017  94.0534201
  67.1936923 117.0510218  94.0534201  68.9153508 122.2182204 101.2652022
  68.9892516 122.0557376 102.1193872  69.7323014 122.4072394 101.0212504
  69.0469866 122.2218947 101.3550047  62.6759264 122.5640067  98.2946465
  61.8497382 122.8101804  98.1680744  62.7371256 122.4852148  99.1608523
  62.5633431 122.5885016  98.4035410  64.8935288 108.6309008  99.2541906
  64.0257714 108.7031608  99.3199515  65.1810492 109.4331087  99.4429881
  64.8075036 108.7603155  99.2916672  74.0168177 108.7786868 107.5853227
  74.7621769 108.5896678 107.1716653  73.6005481 109.3045106 107.0267084
  74.0653151 108.8289013 107.4417801  67.4558093 125.1816947  95.9965495
  67.7456392 124.7905929  95.2724722  68.1861574 125.3633652  96.4370771
  67.6064978 125.1510761  95.9548302  65.3964009 127.1584330  99.0625645
  65.1764304 126.8681685  99.8552312  65.1758531 126.4999285  98.5343557
  65.3311603 127.0184038  99.1014554  64.3080956 119.2457646 101.3281347
  64.0194205 118.6195118 101.8627074  65.1764304 119.1877934 101.3946027
  64.3941208 119.1445191 101.4172301  75.0958854 114.3892430 101.6463329
  74.7523620 113.6682765 101.9970578  75.1951897 114.1806281 100.8041687
  75.0600897 114.2516633 101.5735009  67.5631965 128.5313720  97.8456337
  68.2156023 127.9990162  98.0747363  66.8657573 128.1782372  98.2324211
  67.5562683 128.4003243  97.9368505  64.5113230 120.8852897  97.2523712
  65.2659198 121.2665937  97.4659174  63.9183842 121.3364041  97.7070408
  64.5349943 121.0081725  97.3506590  75.5571883 120.8518134  97.1887317
  76.1229916 121.5111344  97.1045860  74.9099786 121.1967832  97.6603719
  75.5450639 121.0000075  97.2460073  65.8311456 122.0561459 102.6263827
  65.3092210 122.1961751 103.3115692  66.2185476 121.2972123 102.8165944
  65.8115157 121.9646983 102.7564904  62.8202640 112.1067268  96.6958782
  62.5327436 111.7368538  95.9590729  63.5073108 112.5762123  96.4342487
  62.8791538 112.1214237  96.5473858  72.0278461 123.7956918  96.6124396
  71.7865137 123.0624779  96.2051461  72.2079794 124.3443775  95.9590729
  72.0186085 123.7679309  96.4554619  67.2577782 119.0865478  98.0245318
  67.0620564 119.6940212  97.4305621  67.4812127 118.3933422  97.5436992
  67.2612423 119.0743003  97.8661399  65.6556312 115.9720216  98.1426186
  66.3778964 116.1361374  97.6829992  65.1764305 116.6929881  98.0365526
  65.6920042 116.1018445  98.0591800  73.6149819 112.3084015 103.5222871
  72.7760920 112.3345293 103.2861135  73.6854187 112.9554750 104.1028218
  73.5018213 112.4080140 103.5731988  72.0619098 109.2069392  98.2550487
  72.7645450 109.0077140  97.7770446  71.7963286 108.4345334  98.5619331
  72.1265730 109.0632358  98.2295929  77.4907343 117.5152001 100.8084113
  77.4041318 117.6707427 101.6618892  77.0357823 118.1590077 100.4343518
  77.4110600 117.6327756 100.8791220  60.3930835 112.8848480  97.5444063
  60.4946971 113.6874641  97.8725038  61.1886722 112.6835816  97.2467143
  60.5258740 112.9734379  97.5479418  66.8247654 110.4704677 107.3081368
  66.6330851 110.4859811 108.1580791  67.6746250 110.6668351 107.2848023
  66.9223376 110.5019028 107.4304663  61.2094567 112.9995658 105.2865184
  61.0680059 112.1479599 105.4109692  61.4935130 113.0424319 104.4627390
  61.2302413 112.8795408 105.1832808  71.3633159 114.8362748  99.4309673
  71.1167874 114.7558499 100.2646462  71.6918282 114.0516216  99.2372200
  71.3754403 114.7089014  99.5257196  76.7534581 120.9024362  93.9812953
  76.3741390 120.1161499  93.9742242  76.0900826 121.4511219  93.8384597
  76.5993056 120.8669186  93.9593750  69.7351881 110.6660186 107.5153191
  70.1924495 111.3984160 107.6425983  69.8108210 110.2426651 108.2740447
  69.8142851 110.7117424 107.6454268  61.9784872 110.9126006 108.6042635
  61.4427062 110.3006364 108.9203402  62.0402637 111.4874142 109.2576301
  61.9080505 110.9072934 108.7478062  74.2079207 103.8450061 101.3847034
  74.3262775 104.3026525 100.6514337  74.0341383 103.0395323 101.0983252
  74.1998378 103.7943833 101.2347968  69.5781489 124.4537881  97.8201779
  70.3431380 124.1847524  97.4984444  69.4759579 123.9687891  98.5371842
  69.6762985 124.3427445  97.8781607  67.6134259 112.6562290 104.3595015
  66.8230334 112.4753750 104.6812351  68.0094882 111.8789243 104.3425310
  67.5551135 112.5149751 104.4047563  72.1000150 121.4850064  89.8001729
  72.8673135 121.5450189  89.3907580  71.6531459 120.9130506  89.3158047
  72.1473577 121.4086640  89.6679439  72.9977945 120.2904720 102.0854461
  72.3222947 120.0589952 102.5867848  73.0070321 119.6825903 101.4596566
  72.8996450 120.1663645 102.0670613  74.9994680 123.1469853  94.3164639
  75.0814517 123.9536839  93.9926090  75.4844422 123.1665812  95.0405412
  75.0831838 123.2690515  94.3751538  68.8091183 117.8254689 102.9834717
  68.3853432 118.0259188 102.2473735  68.6336038 116.9783536 103.0959017
  68.7202064 117.7303470 102.8908407  64.0973628 118.3206740  98.4162689
  64.2538247 118.2553543  99.2718682  64.4374221 119.0955293  98.2041369
  64.1706863 118.4255938  98.5117284  70.6352773 117.6964624  97.2856053
  71.1768318 117.1935005  97.7494673  70.9499332 117.6429818  96.4745538
  70.7617170 117.6144044  97.2339865  68.8039222 123.0881975  94.5696081
  68.8732043 122.2296514  94.7089081  69.5827677 123.3053856  94.2415105
  68.9292072 122.9934839  94.5413238  71.7842042 112.5900928 107.3378353
  71.9984012 111.9511842 106.7841707  71.1675941 113.0346752 106.9086215
  71.7247371 112.5611072 107.1928784  73.1946710 125.5119676  98.7832574
  72.8026502 125.2086392  98.0655440  73.3499782 126.3488766  98.5937528
  73.1600300 125.5903513  98.6489071  60.6707889 115.5041690  98.7323457
  61.0506854 115.9226235  98.0683724  60.0963254 116.0855146  99.0392300
  60.6419214 115.6519549  98.6800198  73.3586385 122.0769665  98.7238605
  73.0001039 122.2484308  99.5002637  72.8725095 122.5382871  98.1666603
  73.2345082 122.1708636  98.7563874  71.1756771 105.7000864 102.3265696
  70.3050329 105.6739585 102.2799005  71.4297112 105.5278056 101.5091542
  71.0850331 105.6711007 102.1985833  68.1474750 117.7568831  91.2638839
  68.4367275 118.5333713  91.5382413  68.2346549 117.2457562  91.9653338
  68.2029006 117.7960749  91.4081337  68.2005911 107.7107092 103.7839166
  67.6844400 107.0187284 103.9090745  67.6399840 108.3777869 103.7301765
  68.0412424 107.7070350 103.7945232  70.2698145 108.2500052 105.6132019
  69.8829898 108.2749084 106.3945549  69.7831082 107.6841731 105.1606535
  70.1410653 108.1695803 105.6619923  69.9355286 105.1367038 107.9042279
  70.5648404 105.6727338 107.6263349  70.1041149 105.0444397 108.7555844
  70.0533081 105.2028400 107.9890807  64.3138691 117.0702095 103.3638951
  63.4726698 116.9705969 103.5717845  64.5228699 117.8397575 103.7153272
  64.2203384 117.1694139 103.4466266  61.7914258 114.6921632 101.1923702
  61.3970956 114.7664644 100.4173811  61.2354375 115.0779578 101.7432063
  61.6517070 114.7603407 101.1591361  73.4279205 107.6702926 100.8727581
  73.6328798 107.6025234 101.7184578  73.1005629 108.4761747 100.8048758
  73.4094453 107.7788867 100.9887236  68.1255356 114.9983494 102.6136549
  67.8218493 114.4439483 103.2146956  67.4234777 115.1775704 102.1264583
  67.9771566 114.9428277 102.6306254  67.1821453 112.3084014  97.1781250
  67.4581187 111.5902927  96.7658818  67.7820122 112.9068934  96.9702356
  67.3114718 112.2904385  97.0862012  76.6812892 108.2234690 100.3530346
  76.0687206 108.7105093 100.7384078  76.7777067 107.5478181 100.8967997
  76.6050790 108.1952999 100.4909204  70.6831973 109.9797532  95.4527845
  71.1375720 110.1508092  96.1775690  71.1572019 109.3665642  95.0525621
  70.8200294 109.9148417  95.5001607  64.2047499 119.4645857 104.7830584
  63.6135432 120.1055356 104.7533599  64.9668522 119.8883475 104.7561883
  64.2295760 119.6221696 104.7745731  64.6008122 110.6247855 105.4498602
  65.0609603 110.6986785 106.1873725  64.6464228 111.4229109 105.0998423
  64.6758677 110.7542002 105.5071358  68.0244993 116.6840066  96.5572853
  68.7687038 117.0714342  96.7955803  68.1705690 115.8397491  96.7213340
  68.1555579 116.6170539  96.6166822  69.9424569 108.4790325 101.5904714
  69.0960614 108.6513133 101.4646064  69.9395701 107.6739669 101.9270542
  69.8171719 108.3851354 101.6215841  71.0122869 112.2565539 102.4566772
  70.5382824 111.7307301 102.9672083  71.3841005 111.7095012 101.8881634
  70.9972758 112.0981536 102.4481919  61.3895899 114.2537046 107.8250318
  62.2521513 114.1532755 107.7387648  61.0587682 113.6731755 107.2635890
  61.4681096 114.1528673 107.7295724  72.9406369 113.1502094  95.5192526
  72.4129388 113.2330838  94.8298235  73.4002077 113.8919965  95.5157170
  72.9308219 113.2722756  95.4167221  79.2764787 114.0969372 101.8202812
  79.0374557 114.0565206 100.9823596  79.4398688 114.9440524 101.9468533
  79.2655090 114.2161457 101.7156294  64.7497685 113.0779495 104.4860736
  64.1250756 113.0897887 103.8786689  64.4143280 113.5539670 105.1351976
  64.6083177 113.1498012 104.4917304  64.9339434 111.4204613  90.5433421
  64.5852238 112.0724339  91.0064970  64.4535880 111.4061726  89.8157292
  64.8109678 111.5147667  90.5044512  61.4623361 121.1379955 105.9264500
  60.9323286 120.4472394 105.9759475  61.7348454 121.1290140 105.0977209
  61.4248083 121.0347087 105.8111916  72.4943452 121.7205657  94.6502183
  73.2177650 122.1863770  94.5066756  72.0544043 121.7879267  93.8999780
  72.5359144 121.7989494  94.5186964  64.0188431 114.6872643 106.7035604
  64.1781918 113.9315967 107.1087326  63.8381324 115.2363582 107.3576342
  64.0153790 114.6566456 106.8598310  71.9608734 106.8533878 107.2586394
  71.4649295 107.0497552 106.5677961  72.7177796 107.2526547 107.0875196
  71.9995559 106.9411612 107.1306531  69.2311613 110.5276224 103.8489704
  69.2554101 109.9936336 103.1602484  69.4823087 110.0193533 104.5115295
  69.2721532 110.3737128 103.8454349  56.7419203 117.8107719 103.2832849
  56.6362652 117.7654563 102.4184933  55.9919423 118.1561500 103.5647133
  56.6154806 117.8548627 103.1970178  65.5112936 109.2547042 103.2295449
  65.5511307 109.7556249 103.9430156  64.6862600 109.3457436 102.9601372
  65.3952462 109.3428859 103.2945987  66.9327299 115.7707552 105.5269348
  66.1019229 115.9381370 105.3204596  66.8778816 115.3943503 106.3118233
  66.8016714 115.7397284 105.6117876  64.7411082 109.2616445 111.1625758
  65.3663786 108.7178578 111.4355191  64.2861562 108.7811363 110.5933549
  64.7659343 109.1105926 111.1187352  65.3063343 114.0463144  96.0559465
  65.4466304 114.5435608  96.7588107  65.8045876 113.3449438  96.1973679
  65.4004424 114.0165123  96.1811044  65.3363565 114.9130255  93.3852042
  65.9708645 115.5090680  93.3201504  65.4189176 114.6133712  94.1997912
  65.4420116 114.9571163  93.4955129  66.9142548 110.8444230  93.3597484
  67.2358389 110.3647313  92.7056747  67.1769492 111.6543876  93.1688296
  67.0008574 110.8934128  93.2352976  72.3101703 110.2316424 105.7220963
  72.7356775 109.7788951 105.1104490  71.6958696 109.6776495 105.9985751
  72.2830348 110.0830400 105.6725989  61.8416553 117.1098096  96.6541588
  62.3508782 117.7062603  97.0352894  62.3150825 116.8424069  95.9718008
  61.9859929 117.1583911  96.6096111  72.7547301 125.7826362  94.8100244
  72.0376611 125.6087225  94.3447481  73.4054039 125.5478935  94.2775730
  72.7449152 125.7222155  94.6629462  70.7495926 106.7031524  99.1311540
  70.1064244 106.5529170  99.6996679  70.4095333 106.4573869  98.3660645
  70.6041003 106.6443646  99.1014556  75.3395272 114.6590951  98.5541549
  74.6686462 115.2020653  98.4254615  76.0335023 115.1285806  98.3123244
  75.3424140 114.8089222  98.4997077  75.5023400 111.1146834 101.4631922
  75.8551010 110.6876557 102.1377721  74.6438201 111.0297678 101.5932999
  75.4272845 111.0391575 101.5826933  64.2007085 113.7454354  99.5214769
  63.4819074 114.1618487  99.7887632  64.5719447 114.3108593  98.9706407
  64.1499017 113.8903636  99.4797576  69.9753659 112.7852354  94.8588148
  69.3818499 113.1069351  94.3072715  70.0128937 111.9393449  94.6509254
  69.8928048 112.7076682  94.7470919  76.9347460 106.2365246 102.3916235
  76.4278325 105.5294386 102.3237412  77.7314894 105.9058435 102.5217311
  76.9774699 106.0838398 102.4015230  72.8511476 112.7431859  98.2889898
  72.6225169 112.7664560  97.4468257  73.1109552 111.9189326  98.4084909
  72.8557664 112.6247938  98.1815096  61.9796419 113.0403907 110.5417360
  61.8099009 113.7005282 109.9965567  61.5362369 113.2510468 111.2629850
  61.8895753 113.1689889 110.5678990  65.9056238 111.2808405  99.5844094
  66.3813605 111.6425485  98.9494275  65.4044838 111.9364872  99.8644237
  65.9021597 111.4302594  99.5320835  79.1367600 120.7530173  95.3757099
  79.5201206 121.5021529  95.6055196  78.3411713 120.9995993  95.1169088
  79.0761382 120.8999867  95.3714673  58.8798483 115.9450772 105.8005850
  58.3325203 115.2751418 105.9186719  59.6690862 115.5780620 105.8649318
  58.9150667 115.7915759 105.8274551  67.9482891 113.4249605  92.9517478
  68.3281856 113.4429234  92.1668593  67.2075488 113.8703593  92.8308325
  67.8951729 113.4931379  92.8181046  75.5768182 111.7331796  98.5393057
  75.5762408 111.5780452  99.3977333  75.3724362 112.5794783  98.4834442
  75.5467960 111.8352417  98.6580996  57.6385453 115.1571580 102.9551873
  57.4607214 114.7048189 103.6806789  57.3504475 115.9597742 103.1390351
  57.5698406 115.2094138 103.0895376  73.3009034 116.4129298 102.1929264
  73.7962699 115.6952293 102.1533284  72.4908810 116.1100095 102.0783751
  73.2552927 116.2626944 102.1702989  68.7467646 120.2627111  94.3426268
  67.9378968 119.9393784  94.2959578  69.2542554 119.5560333  94.2754517
  68.7017312 120.1108427  94.3256562  59.3757923 117.6899304 100.0673632
  58.5103442 117.6784994  99.9556404  59.4756739 117.5029527 100.9144772
  59.2632090 117.6605365 100.1762577  68.8708947 107.6494720 108.1665645
  69.0036853 106.8525713 108.4946620  69.2554100 108.1761123 108.7463920
  68.9465276 107.6094637 108.3009148  71.9441302 104.5725046 104.7646738
  71.1387266 104.4622776 105.0814576  71.8148038 104.6737502 103.9076604
  71.8061435 104.5708716 104.6854778  75.4007263 110.7370538 105.3586435
  74.8170252 111.2379744 104.9464002  75.7211557 110.2300094 104.7250758
  75.3620438 110.7362373 105.2044942  67.9402062 109.6511133  95.6345110
  68.7617757 109.8209446  95.3926804  67.4771713 109.8058394  94.9111407
  67.9933224 109.6992866  95.4916754  66.5297394 107.6453895 106.4143538
  67.0741807 107.3045022 107.0047880  66.5834330 108.5039357 106.5564823
  66.6186513 107.7209154 106.5225412  62.3427953 121.4070311 103.2882346
  62.9472810 121.3666145 102.6596167  62.1355265 122.2541463 103.3186402
  62.4016850 121.5258314 103.1998463  57.5779235 120.3904929 103.1581269
  57.4803513 119.5801200 103.4671326  58.3608105 120.3696722 102.7727538
  57.6795372 120.2672019 103.1468132  76.7616801 123.3268113  96.6753721
  77.5162769 123.6946430  96.4370772  76.5844336 123.7007667  97.4432901
  76.8471280 123.4366301  96.7538610  75.1173866 125.7338432  93.3731834
  74.9349439 125.9510313  92.5472827  75.9799479 125.8477445  93.4290449
  75.2178455 125.7828330  93.2586321  80.7973585 122.7364843  96.4080858
  81.5259745 122.5580798  95.9619014  80.8868478 123.5782922  96.6188036
  80.9180247 122.8348721  96.3734376  74.6635893 129.0112605  91.8854307
  73.9494070 128.7250784  92.2976740  75.1479861 129.3509230  92.5260695
  74.6295256 129.0194254  92.0409942  73.7935224 127.6252575  96.6958782
  73.5060020 127.2553846  95.9590729  74.4805692 128.0947431  96.4342487
  73.8524121 127.6399545  96.5473858  71.3663418 128.4033788  97.5444063
  71.4679555 129.2059949  97.8725038  72.1619305 128.2021124  97.2467143
  71.4991324 128.4919687  97.5479418  79.1207334 133.2754139  91.2638839
  79.4099858 134.0519021  91.5382413  79.2079132 132.7642870  91.9653338
  79.1761590 133.3146057  91.4081337  75.9072018 126.9389921  90.5433421
  75.5584822 127.5909647  91.0064970  75.4268464 126.9247034  89.8157292
  75.7842262 127.0332975  90.5044512  76.3096149 130.4315563  93.3852042
  76.9441228 131.0275988  93.3201504  76.3921760 130.1319020  94.1997912
  76.4152700 130.4756471  93.4955129  77.8875132 126.3629538  93.3597484
  78.2090973 125.8832621  92.7056747  78.1502075 127.1729184  93.1688296
  77.9741157 126.4119436  93.2352976  78.9215475 128.9434913  92.9517478
  79.3014440 128.9614542  92.1668593  78.1808071 129.3888901  92.8308325
  78.8684313 129.0116687  92.8181046  78.9134646 125.1696441  95.6345110
  79.7350340 125.3394754  95.3926804  78.4504297 125.3243702  94.9111407
  78.9665808 125.2178174  95.4916754  22.4840698  15.1567392  84.4027507
  22.4534702  16.0112028  84.5745776  23.0822047  14.8562684  84.9613650
  22.5677856  15.2383888  84.5102309  15.6840383  14.2443043  89.1580437
  14.8278278  14.4051541  89.2089554  15.7308036  13.3735106  89.1785498
  15.5639494  14.1393844  89.1686503  10.0681522  23.7805760  84.9217669
   9.3164422  23.4021299  84.6933714  10.5167534  23.8124194  84.1736479
  10.0231189  23.7291368  84.7775171  15.5206482  24.2031130  80.3503216
  15.1857851  24.8808052  79.9147438  16.0333353  23.8136441  79.7620088
  15.5472063  24.2455708  80.1990007  15.0610774  26.1545399  86.2914328
  15.4450153  26.7232297  85.7519103  14.9969915  25.4294909  85.8120144
  15.1084201  26.1320862  86.1408190  18.5292204  16.3035086  91.8012089
  19.0748164  16.9820173  91.8606059  18.4709080  16.1622547  90.9413670
  18.6008118  16.3827088  91.6824150  11.6466279  23.7924153  87.1880441
  11.7476642  22.9824507  87.4977569  11.0508024  23.6981099  86.5580120
  11.5738817  23.6589181  87.1406680  20.3057272  17.7319694  82.6745817
  20.1896798  18.4827380  83.1037955  21.1013159  17.4743647  82.9241904
  20.4061862  17.8054540  82.7749908  11.4867018  28.7101742  88.5895297
  12.1304474  29.1514906  88.9791456  11.8123274  27.9055168  88.5025556
  11.6298847  28.6566936  88.6340775   4.8431323  19.8144439  86.8132775
   4.6081507  18.9812092  86.7065044   4.9816964  20.0949105  85.9993976
   4.8286985  19.7327943  86.6775130  12.1887598  21.7213717  83.9615159
  12.5103439  22.2618924  83.3576467  12.8359694  21.1510488  84.0937449
  12.3313653  21.7172892  83.8922194  14.2389306  13.7229712  84.0449546
  14.9369471  13.9017839  84.5371009  14.5541638  13.2000051  83.4219935
  14.3884643  13.6723484  84.0251556  14.4277241  20.1100157  84.0329337
  14.8670877  19.5017257  84.4784110  14.2781904  19.7307530  83.2614802
  14.4698707  19.9638628  83.9848505  11.8948884  18.7044168  91.2348163
  12.5397887  18.2116612  90.9159111  12.1350661  18.8468955  92.0614241
  12.0259469  18.6521611  91.3097696  14.4334976  21.5499074  90.8855055
  14.7158219  20.7550480  90.6641811  15.1621136  22.0279662  90.9060116
  14.5824539  21.5033671  90.8558071  18.0286578  18.4627338  80.9860107
  17.9437873  19.3188304  81.1309675  18.5170961  18.1871662  81.6542266
  18.0875475  18.5484659  81.1062188  18.9605011  15.0812132  82.4857842
  18.4316483  15.2971766  83.1455148  19.4830031  15.7748270  82.4058811
  18.9593464  15.2155269  82.5713441  24.4153064  20.6558436  87.8590886
  23.5850767  20.8669080  88.0224303  24.3662316  19.8295491  87.5833170
  24.2859799  20.5648043  87.8428252  10.8504619  18.9775349  81.2865310
  10.2661834  19.4825380  81.6931174  10.4474714  18.7517736  80.5461902
  10.7043923  19.0183597  81.2370335   6.4048648  24.6930110  88.0888981
   5.9216226  25.4180600  88.0648565   7.2171966  24.9906240  88.1999139
   6.4539395  24.8432464  88.1016260  12.4762802  23.4862291  90.6938796
  11.9589743  23.1269706  90.0900104  13.1737193  22.9624465  90.7044862
  12.5028383  23.3559979  90.6069054  16.1326394  23.9357105  96.6554969
  16.2209739  23.7483245  97.5033179  16.5616106  23.2894534  96.2559815
  16.2088496  23.8120112  96.7226720  15.3081833  15.2241001  79.7634230
  15.5477837  15.4318985  78.9509573  15.6297674  14.4198510  79.8723175
  15.3918991  15.1355102  79.6594783   9.2592845  25.2086286  88.2409261
   9.9613424  24.6938275  88.2982018   9.1790328  25.5360437  89.0456136
   9.3516605  25.1800512  88.3682053  23.9107022  13.3028837  91.6541308
  23.0735443  13.3731024  91.8888902  23.8795253  13.3053332  90.7815610
  23.7825305  13.3139064  91.5600855   8.5843620  21.3992638  87.7494869
   9.4232520  21.6315571  87.7968631   8.6155389  20.5296949  87.6801904
   8.7125338  21.3049584  87.7459514   9.2096323  21.8193513  92.0508175
   9.7494548  21.6764644  92.7211547   8.5266270  22.2190264  92.4192201
   9.1888477  21.8573184  92.2042596  18.6337208  17.4984514  87.2453199
  19.3894723  17.9316028  87.2842108  18.7399533  16.8489283  87.8187835
  18.7607379  17.4661997  87.3351225  21.6717379  21.3257791  87.9955602
  21.2352611  21.3294533  88.7514573  21.3380295  22.0063290  87.5635179
  21.5579999  21.4270247  88.0436434  21.5914862   8.3671619  90.2385030
  22.2340771   8.4369723  90.8246945  21.8437883   7.7000842  89.7364572
  21.7236994   8.2797967  90.2512309  16.4016846  25.2776226  92.9665208
  15.6032092  25.0375726  93.2239076  16.8502858  25.3290619  93.7132255
  16.3491457  25.2498617  93.1150132  24.8061725  18.0438711  86.8875239
  25.4678160  17.4829379  86.7871148  24.1653137  17.5490742  87.2127930
  24.8090593  17.8875120  86.9207579  15.6938533  21.3408842  79.1956162
  16.1089682  21.0093866  78.5040658  14.8630463  21.1077744  79.0676299
  15.6326542  21.2580098  79.0747010   5.0226882  18.8252583  89.4854340
   4.8402455  18.7999469  88.6326633   5.7576551  19.2951521  89.5243249
   5.1040946  18.8913945  89.3652259  21.0926556  19.0604093  86.6287228
  21.3282145  19.2049292  85.8014079  21.2416120  19.8246501  87.0218742
  21.1492359  19.1943148  86.5650832  22.9217013  17.9005759  84.4656832
  23.2525230  18.4333399  83.8596927  23.4950101  17.9544647  85.1218783
  23.0550692  17.9875328  84.4734613  18.1348902  15.7470662  85.1480412
  18.2295756  16.4859956  85.6020037  17.5107746  15.3188137  85.5814976
  18.0557932  15.7931982  85.2788559  18.3871923  17.5919402  78.3817364
  18.3052086  17.6621589  79.2472351  19.0251644  18.1549146  78.1901105
  18.4691761  17.6858373  78.4807313  11.7465094  17.3580140  87.8491890
  11.4884339  16.5251874  87.8223190  11.8013577  17.5837753  87.0084391
  11.7164872  17.2677911  87.7212027  16.8266145   9.4608590  87.9495983
  16.1222471   8.9717776  88.1079902  16.8751119   9.4731065  87.0784427
  16.7296196   9.3898238  87.8435323  10.7199807  14.9117902  88.3356785
  10.1449398  15.0710070  88.9720746  10.3435483  14.2753311  87.8725235
  10.5802619  14.8415715  88.3611343  24.0296364  13.1416256  85.9696993
  23.7732929  12.3296197  85.7794876  24.8725678  13.1493823  85.7427181
  24.1162390  13.0228253  85.9081811  15.4912034  17.6139856  81.3925970
  16.3052672  17.9054749  81.2808742  15.4271175  16.9599718  80.8184263
  15.6014773  17.5605051  81.2914808  21.7121524  20.2965852  95.8055546
  21.4760161  19.4653917  95.6867607  22.3564753  20.2451459  96.3910390
  21.7716194  20.1663540  95.8741440  11.3619942  21.0861373  86.5198282
  11.9993889  20.8473121  87.0650076  11.7875013  21.2898532  85.7851443
  11.5196108  21.0812384  86.4915440   6.0532584  23.3249710  90.4032586
   6.0936729  23.5964561  89.5752366   6.6127108  23.8491618  90.8190374
   6.1415930  23.4425465  90.3424474  12.0022757  16.3063663  80.8573172
  12.3867910  16.0871370  81.6089717  11.7534377  17.1326609  80.9874248
  12.0224829  16.3961809  80.9874248  22.7357944  20.0810301  91.8683840
  22.4303761  20.8138358  92.2297156  22.0164160  19.6748230  91.5876627
  22.5845287  20.1292034  91.8796978  13.7441414  21.5633796  88.1992069
  13.8180422  21.4008968  89.0533919  14.5610920  21.7523986  87.9552550
  13.8757772  21.5670538  88.2890094  28.4359736  16.7203301  91.1952185
  28.3684237  16.7399261  90.3254771  28.4215399  17.5633629  91.4207855
  28.4238493  16.8477036  91.1004662   7.5047170  21.9091659  85.2286512
   6.6785288  22.1553396  85.1020791   7.5659162  21.8303740  86.0948570
   7.3921337  21.9336608  85.3375457  12.2845999  24.5268539  82.9305542
  12.5744298  24.1357520  82.2064769  13.0149480  24.7085244  83.3710817
  12.4352884  24.4962353  82.8888349  26.2218354  15.4947688  89.4698779
  26.7726275  14.8615757  89.7095871  26.2062469  16.0263080  90.1614283
  26.3003550  15.4796636  89.6077637  10.2251915  26.5035921  85.9965692
  10.0052210  26.2133276  86.7892359  10.0046437  25.8450877  85.4683604
  10.1599509  26.3635630  86.0354600   9.1368862  18.5909238  88.2621393
   8.8482111  17.9646709  88.7967121  10.0052210  18.5329525  88.3286074
   9.2229114  18.4896782  88.3512348  19.9246760  13.7344021  88.5803375
  19.5811526  13.0134357  88.9310625  20.0239803  13.5257873  87.7381734
  19.8888803  13.5968225  88.5075055  12.3919871  27.8765311  84.7796384
  13.0443929  27.3441754  85.0087410  11.6945479  27.5233964  85.1664258
  12.3850589  27.7454834  84.8708552   9.3401136  20.2304489  84.1863758
  10.0947104  20.6117528  84.3999221   8.7471748  20.6815633  84.6410455
   9.3637849  20.3533316  84.2846637  20.3859789  20.1969725  84.1227363
  20.9517822  20.8562935  84.0385906  19.7387693  20.5419424  84.5943766
  20.3738546  20.3451667  84.1800120  10.6599362  21.4013050  89.5603874
  10.1380116  21.5413342  90.2455739  11.0473383  20.6423715  89.7505991
  10.6403063  21.3098574  89.6904950  16.8566367  23.1408510  83.5464443
  16.6153043  22.4076370  83.1391508  17.0367700  23.6895367  82.8930776
  16.8473991  23.1130901  83.3894666  12.0865688  18.4317069  84.9585365
  11.8908470  19.0391804  84.3645668  12.3100033  17.7385013  84.4777039
  12.0900329  18.4194595  84.8001446  10.4844218  15.3171807  85.0766233
  11.2066870  15.4812965  84.6170039  10.0052211  16.0381472  84.9705573
  10.5207949  15.4470037  84.9931847  18.4437725  11.6535606  90.4562918
  17.6048826  11.6796885  90.2201181  18.5142093  12.3006342  91.0368265
  18.3306119  11.7531732  90.5072035  16.8907004   8.5520983  85.1890534
  17.5933357   8.3528731  84.7110492  16.6251192   7.7796925  85.4959378
  16.9553636   8.4083949  85.1635976  22.3195249  16.8603593  87.7424160
  22.2329224  17.0159019  88.5958939  21.8645729  17.5041668  87.3683565
  22.2398506  16.9779348  87.8131267  16.1921065  14.1814340  86.3649719
  15.9455780  14.1010091  87.1986508  16.5206188  13.3967808  86.1712247
  16.2042309  14.0540605  86.4597243  20.0869114  20.8897699  90.1536501
  19.9483473  21.5878745  90.6585243  19.3069112  20.7346356  89.7972682
  19.9512341  20.9697866  90.1762775  11.2245848  25.1073830  92.6433729
  11.3735411  24.5476746  91.9907134  12.0045850  25.1865832  93.0266248
  11.3619941  25.0359396  92.6030679  21.5822487  20.2475953  80.9153000
  21.2029296  19.4613091  80.9082289  20.9188732  20.7962810  80.7724644
  21.4280962  20.2120777  80.8933797  13.7499148  25.2788473  93.9218220
  13.6742819  24.6097284  94.4769008  13.6789007  25.9806261  94.4358886
  13.7279755  25.2833381  94.0795068  14.4069395  23.7989472  84.7541826
  15.1719286  23.5299116  84.4324490  14.3047485  23.3139482  85.4711889
  14.5050891  23.6879037  84.8121654  16.9288056  20.8301656  76.7341776
  17.6961041  20.8901781  76.3247627  16.4819365  20.2582097  76.2498094
  16.9761483  20.7538232  76.6019486  17.8265851  19.6356312  89.0194508
  17.1510853  19.4041544  89.5207895  17.8358227  19.0277495  88.3936613
  17.7284356  19.5115237  89.0010660  19.8282586  22.4921444  81.2504686
  19.9102423  23.2988430  80.9266137  20.3132328  22.5117403  81.9745459
  19.9119744  22.6142107  81.3091584  13.6379089  17.1706280  89.9174764
  13.2141338  17.3710779  89.1813782  13.4623944  16.3235128  90.0299064
  13.5489970  17.0755062  89.8248454  13.1390783  28.6856793  92.3796221
  13.6286713  27.9867582  92.1971886  12.5675015  28.3880663  92.9672278
  13.1275312  28.5383017  92.4397262   8.9261534  17.6658332  85.3502736
   9.0826153  17.6005134  86.2058728   9.2662127  18.4406884  85.1381416
   8.9994769  17.7707530  85.4457330  15.4640679  17.0416215  84.2196099
  16.0056224  16.5386596  84.6834720  15.7787238  16.9881410  83.4085585
  15.5905076  16.9595636  84.1679912  13.6327128  22.4333567  81.5036127
  13.7019949  21.5748105  81.6429128  14.4115584  22.6505447  81.1755152
  13.7579978  22.3386431  81.4753285  18.0234616  24.8571268  85.7172621
  17.6314408  24.5537983  84.9995487  18.1787688  25.6940358  85.5277575
  17.9888206  24.9355105  85.5829118  18.1874291  21.4221257  85.6578651
  17.8288945  21.5935900  86.4342684  17.7013001  21.8834462  85.1006650
  18.0632988  21.5160228  85.6903920  12.9762656  17.1020422  78.1978886
  13.2655181  17.8785305  78.4722460  13.0634455  16.5909154  78.8993385
  13.0316912  17.1412340  78.3421384  19.3479030  22.3125153  96.6045852
  19.9858751  21.8185348  96.2708308  18.7053122  22.2402553  96.0198079
  19.3473257  22.2284161  96.4688207  21.0736030  14.1614299  91.1711768
  20.6463638  14.0740647  90.4159867  20.4362083  14.2692074  91.7566612
  20.9165637  14.1646958  91.1457209  19.4033287  23.0044961  93.2451209
  20.1925665  22.6534026  93.3653291  19.5776885  23.8181349  92.9827843
  19.5453568  23.0730818  93.2239077  18.2567111   7.0154518  87.8067627
  18.4616704   6.9476826  88.6524625  17.9293535   7.8213339  87.7388805
  18.2382359   7.1240458  87.9227283  12.9543262  14.3435086  89.5476595
  12.6506399  13.7891074  90.1487003  12.2522683  14.5227296  89.0604630
  12.8059472  14.2879868  89.5646301  12.0109359  11.6535606  84.1121297
  12.2869093  10.9354518  83.6998865  12.6108028  12.2520526  83.9042403
  12.1402624  11.6355976  84.0202058  21.5100799   7.5686282  87.2870393
  20.8975112   8.0556684  87.6724125  21.6064973   6.8929773  87.8308044
  21.4338696   7.5404591  87.4249251  15.5119880   9.3249123  82.3867892
  15.9663626   9.4959683  83.1115737  15.9859925   8.7117234  81.9865668
  15.6488200   9.2600008  82.4341654   9.0335405  18.8097449  91.7170631
   8.4423338  19.4506947  91.6873646   9.7956429  19.2335066  91.6901930
   9.0583666  18.9673287  91.7085778  25.1525827  18.6403219  92.7147909
  25.2108950  19.0889867  93.4607885  24.5192294  19.0502031  92.2777989
  25.0677122  18.7676953  92.7600457  18.7924921  24.2606761  89.1502655
  18.5944610  24.7497575  88.4558867  18.1712632  24.4648002  89.7286789
  18.6712486  24.3623299  89.1325878  12.8532900  16.0291657  83.4912899
  13.5974944  16.4165934  83.7295849  12.9993596  15.1849083  83.6553387
  12.9843485  15.9622130  83.5506869  15.8410775  11.6017131  89.3906819
  15.3670730  11.0758893  89.9012130  16.2128911  11.0546604  88.8221680
  15.8260664  11.4433127  89.3821966  22.1047506  16.6619506  90.8013599
  21.8645729  15.8225922  90.8056026  22.5839513  16.7419673  91.5254373
  22.1399690  16.5500906  90.9088402  17.7694275  12.4953685  82.4532573
  17.2417294  12.5782429  81.7638281  18.2289983  13.2371557  82.4497217
  17.7596126  12.6174348  82.3507268  24.1052693  13.4420964  88.7542858
  23.8662463  13.4016798  87.9163643  24.2686594  14.2892116  88.8808580
  24.0942996  13.5613049  88.6496340  20.7098723  17.8270913  94.6847904
  21.4332922  17.3743439  94.5058923  20.4448685  18.1075579  93.9020231
  20.7779996  17.8021881  94.5426619  17.3231358  21.0657249  81.5842230
  18.0465556  21.5315362  81.4406803  16.8831949  21.1330859  80.8339827
  17.3647050  21.1441086  81.4527011  16.4917513  17.9254791  92.8342919
  15.8774506  17.3812841  93.1291554  17.0084798  17.4119028  92.3548735
  16.4773175  17.7691200  92.8067147  15.7313810  18.9959061  90.5687217
  15.3041418  18.3708780  90.1352653  15.7238754  18.7133983  91.3946224
  15.6672951  18.8611842  90.6267045  10.1351249  13.3914735  82.9899512
  10.2754210  13.8887200  83.6928154  10.6333782  12.6901030  83.1313726
  10.2292330  13.3616714  83.1151091  10.1651471  14.2581846  80.3192089
  10.7996551  14.8542271  80.2541551  10.2477082  13.9585304  81.1337959
  10.2708022  14.3022755  80.4295176  23.1434037  16.7897324  93.1878453
  23.7351877  17.4294574  93.2196651  23.5793032  16.0920360  93.4770520
  23.2952468  16.7815674  93.2359286  14.9727427  21.2114696  93.8136347
  14.4652518  21.7650543  94.2576978  14.6754073  21.2722986  92.9955122
  14.8532312  21.3021007  93.7584804   6.6704459  16.4549687  83.5881635
   7.1796689  17.0514195  83.9692941   7.1438731  16.1875661  82.9058055
   6.8147835  16.5035503  83.5436158  17.5835207  25.1277954  81.7440291
  16.8664517  24.9538816  81.2787528  18.2341945  24.8930526  81.2115777
  17.5737058  25.0673746  81.5969509  20.1683178  14.0042542  85.4881596
  19.4974368  14.5472245  85.3594661  20.8622929  14.4737398  85.2463291
  20.1712046  14.1540814  85.4337124  14.2169912  26.1439254  90.7193354
  13.9935567  25.3858084  91.0877380  13.7279756  26.1737276  89.9973794
  14.1113361  26.0361479  90.6670095  20.3311306  10.4598426  88.3971969
  20.6838916  10.0328149  89.0717768  19.4726107  10.3749270  88.5273045
  20.2560751  10.3843167  88.5166979   9.0294991  13.0905946  86.4554816
   8.3106980  13.5070078  86.7227679   9.4007353  13.6560184  85.9046454
   8.9786923  13.2355227  86.4137623  12.8648369  26.3639712  88.1730439
  12.4508768  25.7013843  87.7834280  13.5495743  26.5117571  87.6526133
  12.9046741  26.2880371  88.0386936  16.2313663  25.5229798  88.9254055
  15.8329946  25.6332068  88.1574876  15.6164883  25.7311864  89.5080615
  16.0812553  25.5703366  88.8985355  14.8041565  12.1303946  81.7928195
  14.2106405  12.4520942  81.2412762  14.8416843  11.2845041  81.5849301
  14.7215954  12.0528274  81.6810966  17.6799382  12.0883450  85.2229945
  17.4513075  12.1116152  84.3808303  17.9397458  11.2640917  85.3424956
  17.6845570  11.9699530  85.1155143  23.9655506  20.0981764  82.3097146
  24.3489112  20.8473121  82.5395243  23.1699619  20.3447584  82.0509135
  23.9049288  20.2451458  82.3054719  12.7770798  12.7701196  79.8857525
  13.1569762  12.7880825  79.1008640  12.0363394  13.2155185  79.7648372
  12.7239635  12.8382971  79.7521093  20.4056088  11.0783387  85.4733104
  20.4050314  10.9232044  86.3317380  20.2012268  11.9246374  85.4174489
  20.3755866  11.1804008  85.5921043  18.1296940  15.7580889  89.1269310
  18.6250605  15.0403884  89.0873331  17.3196716  15.4551687  89.0123797
  18.0840833  15.6078535  89.1043036  13.5755552  19.6078702  81.2766315
  12.7666874  19.2845376  81.2299624  14.0830460  18.9011924  81.2094564
  13.5305218  19.4560019  81.2596609   4.2045829  17.0350896  87.0013679
   3.3391348  17.0236586  86.8896450   4.3044645  16.8481118  87.8484818
   4.0919996  17.0056957  87.1102624  20.1948759  18.5084577  91.8146439
  20.6203831  17.9858998  91.2616864  19.8305679  19.1065414  91.2935062
  20.2035362  18.5194804  91.6555449   9.8302839  26.8048794  90.5743785
  10.1449398  27.6185183  90.5821566  10.2396252  26.4199013  91.2425944
   9.9370937  26.8677497  90.6747876  16.7827358  22.2218841  88.1447597
  17.2538537  22.9359104  88.3137582  17.1187537  21.6217591  88.6807466
  16.9022473  22.2390305  88.2479973  17.4201305  22.0136775  94.9075289
  16.8722251  21.3894659  94.6395355  17.8814333  22.2031047  94.1919369
  17.4068514  21.9495825  94.7625720   7.1715859  20.7521903  90.2222393
   7.7760716  20.7117737  89.5936214   6.9643171  21.5993055  90.2526449
   7.2304756  20.8709905  90.1338510  16.9859631  23.0187848  91.4384631
  17.8058005  22.8750814  91.7000926  16.7053709  23.6434047  91.9801068
  17.0656374  23.0898200  91.5572570  33.4573281  30.6752699  84.4027507
  33.4267286  31.5297336  84.5745776  34.0554630  30.3747992  84.9613650
  33.5410439  30.7569196  84.5102309  26.6572966  29.7628350  89.1580437
  25.8010862  29.9236849  89.2089554  26.7040620  28.8920414  89.1785498
  26.5372078  29.6579152  89.1686503  21.0414106  39.2991068  84.9217669
  20.2897006  38.9206607  84.6933714  21.4900118  39.3309502  84.1736479
  20.9963773  39.2476675  84.7775171  29.9666683  36.0314876  98.7640893
  30.6733450  35.5366907  98.8927828  30.1554618  36.4723958  98.0343551
  30.0994588  36.0233226  98.6749939  26.4939066  39.7216438  80.3503216
  26.1590434  40.3993359  79.9147438  27.0065936  39.3321749  79.7620088
  26.5204647  39.7641016  80.1990007  26.0343357  41.6730707  86.2914328
  26.4182736  42.2417605  85.7519103  25.9702498  40.9480217  85.8120144
  26.0816784  41.6506170  86.1408190  29.5024787  31.8220394  91.8012089
  30.0480747  32.5005481  91.8606059  29.4441664  31.6807855  90.9413670
  29.5740702  31.9012396  91.6824150  22.6198862  39.3109461  87.1880441
  22.7209225  38.5009814  87.4977569  22.0240607  39.2166407  86.5580120
  22.5471401  39.1774489  87.1406680  31.2789856  33.2505001  82.6745817
  31.1629382  34.0012688  83.1037955  32.0745743  32.9928955  82.9241904
  31.3794445  33.3239848  82.7749908  22.4599602  44.2287050  88.5895297
  23.1037057  44.6700214  88.9791456  22.7855857  43.4240476  88.5025556
  22.6031430  44.1752244  88.6340775  15.8163906  35.3329747  86.8132775
  15.5814091  34.4997399  86.7065044  15.9549547  35.6134413  85.9993976
  15.8019569  35.2513250  86.6775130  18.1153994  27.5015478  89.7117083
  17.4959026  26.9108125  89.5427097  18.0137857  28.0926913  89.0781406
  18.0091669  27.5019560  89.5922072  23.1620181  37.2399025  83.9615159
  23.4836023  37.7804232  83.3576467  23.8092278  36.6695796  84.0937449
  23.3046237  37.2358200  83.8922194  25.2121890  29.2415019  84.0449546
  25.9102054  29.4203147  84.5371009  25.5274222  28.7185359  83.4219935
  25.3617227  29.1908792  84.0251556  17.8423127  31.0467759  91.9560652
  17.7181824  31.6330205  92.5910471  18.4941411  30.5527955  92.2572927
  17.9196776  31.0606564  92.0946581  25.4009825  35.6285464  84.0329337
  25.8403460  35.0202565  84.4784110  25.2514488  35.2492838  83.2614802
  25.4431291  35.4823936  83.9848505  22.8681468  34.2229476  91.2348163
  23.5130470  33.7301919  90.9159111  23.1083245  34.3654263  92.0614241
  22.9992053  34.1706919  91.3097696  25.4067559  37.0684382  90.8855055
  25.6890802  36.2735788  90.6641811  26.1353720  37.5464970  90.9060116
  25.5557123  37.0218979  90.8558071  23.3848753  24.6107416  88.1270820
  23.0552083  25.0618560  87.4574519  22.7093755  24.5323579  88.6743827
  23.2359189  24.6658551  88.1094044  29.0019161  33.9812646  80.9860107
  28.9170457  34.8373612  81.1309675  29.4903545  33.7056970  81.6542266
  29.0608059  34.0669967  81.1062188  30.5925161  20.5992939  86.3720431
  30.2778602  21.2896418  86.8040853  30.0752103  20.5437721  85.6705932
  30.4689631  20.6927828  86.3317380  29.9337595  30.5997440  82.4857842
  29.4049066  30.8157073  83.1455148  30.4562615  31.2933578  82.4058811
  29.9326048  30.7340577  82.5713441  35.3885648  36.1743744  87.8590886
  34.5583351  36.3854388  88.0224303  35.3394900  35.3480799  87.5833170
  35.2592383  36.0833351  87.8428252  21.8237202  34.4960657  81.2865310
  21.2394418  35.0010688  81.6931174  21.4207298  34.2703044  80.5461902
  21.6776506  34.5368905  81.2370335  17.3781231  40.2115418  88.0888981
  16.8948809  40.9365907  88.0648565  18.1904549  40.5091548  88.1999139
  17.4271979  40.3617772  88.1016260  23.4495385  39.0047599  90.6938796
  22.9322327  38.6455014  90.0900104  24.1469776  38.4809773  90.7044862
  23.4760966  38.8745287  90.6069054  27.1058977  39.4542413  96.6554969
  27.1942323  39.2668553  97.5033179  27.5348690  38.8079842  96.2559815
  27.1821080  39.3305420  96.7226720  24.6729437  38.7373573  95.6372631
  24.1100272  38.3246182  96.1612292  25.4350460  38.6626478  96.0565774
  24.7023886  38.6650973  95.7765631  26.2814417  30.7426309  79.7634230
  26.5210421  30.9504293  78.9509573  26.6030258  29.9383817  79.8723175
  26.3651575  30.6540410  79.6594783  21.5904707  22.6719705  83.6093768
  22.3450675  23.0398022  83.3710818  21.4132242  23.0459259  84.3772948
  21.6759186  22.7817892  83.6878657  20.2325428  40.7271594  88.2409261
  20.9346008  40.2123583  88.2982018  20.1522911  41.0545745  89.0456136
  20.3249189  40.6985820  88.3682053  34.8839606  28.8214145  91.6541308
  34.0468027  28.8916332  91.8888902  34.8527837  28.8238640  90.7815610
  34.7557888  28.8324372  91.5600855  21.2804335  30.9647181  97.3689676
  21.4524839  30.8553075  98.2174958  21.8173692  31.6101586  97.1320868
  21.3849339  31.0439182  97.4594773  19.9461772  25.0790024  80.3071881
  19.7637345  25.2961904  79.4812874  20.8087385  25.1929036  80.3630496
  20.0466361  25.1279921  80.1926368  19.5576204  36.9177946  87.7494869
  20.3965103  37.1500879  87.7968631  19.5887973  36.0482257  87.6801904
  19.6857921  36.8234892  87.7459514  20.1828907  37.3378821  92.0508175
  20.7227132  37.1949952  92.7211547  19.4998853  37.7375572  92.4192201
  20.1621061  37.3758492  92.2042596  25.6261491  22.0816434  83.3420905
  26.3547651  21.9032389  82.8959061  25.7156384  22.9234514  83.5528083
  25.7468153  22.1800313  83.3074423  29.6069792  33.0169822  87.2453199
  30.3627307  33.4501336  87.2842108  29.7132116  32.3674591  87.8187835
  29.7339962  32.9847305  87.3351225  32.6449963  36.8443099  87.9955602
  32.2085195  36.8479841  88.7514573  32.3112878  37.5248598  87.5635179
  32.5312583  36.9455555  88.0436434  27.2179036  38.8851432  99.3198752
  28.0019453  38.9982279  99.6854494  27.0175631  38.0592569  99.5157438
  27.3045062  38.7798151  99.4033138  15.5866052  33.5579112  92.2042596
  15.3204467  32.7418228  92.3633586  15.6004616  33.6032267  91.3338112
  15.5490774  33.4436017  92.0996078  32.5647446  23.8856927  90.2385030
  33.2073354  23.9555031  90.8246945  32.8170466  23.2186150  89.7364572
  32.6969578  23.7983275  90.2512309  19.4923799  28.3564196  78.8194354
  18.7781976  28.0702376  79.2316787  19.9767768  28.6960822  79.4600742
  19.4583162  28.3645846  78.9749989  20.3364658  27.0957490  94.8509604
  19.6436455  26.6254470  95.0970335  20.9524986  26.8695795  95.4251311
  20.3249188  26.9924622  94.9718756  27.3749430  40.7961534  92.9665208
  26.5764676  40.5561034  93.2239076  27.8235441  40.8475927  93.7132255
  27.3224041  40.7683925  93.1150132  35.7794309  33.5624019  86.8875239
  36.4410743  33.0014687  86.7871148  35.1385721  33.0676049  87.2127930
  35.7823177  33.4060428  86.9207579  26.6671117  36.8594150  79.1956162
  27.0822265  36.5279174  78.5040658  25.8363046  36.6263052  79.0676299
  26.6059126  36.7765406  79.0747010  15.9959466  34.3437891  89.4854340
  15.8135039  34.3184777  88.6326633  16.7309134  34.8136829  89.5243249
  16.0773529  34.4099253  89.3652259  32.0659140  34.5789401  86.6287228
  32.3014729  34.7234600  85.8014079  32.2148703  35.3431809  87.0218742
  32.1224943  34.7128456  86.5650832  19.0605217  31.0622894  95.9936449
  19.7845190  31.0475925  96.4801344  19.1621354  31.7718249  95.4958417
  19.1823426  31.1647597  95.9915236  33.8949596  33.4191067  84.4656832
  34.2257814  33.9518707  83.8596927  34.4682685  33.4729955  85.1218783
  34.0283276  33.5060636  84.4734613  26.4350167  34.5421979 100.8585396
  25.6423147  34.8565490 101.0438016  26.5499094  34.7573447 100.0206181
  26.3345577  34.6205815 100.7623731  29.1081486  31.2655970  85.1480412
  29.2028340  32.0045264  85.6020037  28.4840329  30.8373445  85.5814976
  29.0290516  31.3117290  85.2788559  27.3633959  34.4442182  95.7970693
  27.9372821  33.8069427  95.9519257  27.2848763  34.4446265  94.9280350
  27.4367194  34.3507294  95.6917104  15.9630376  31.2231392  89.6353407
  16.5403879  31.0867843  90.2745652  15.2644438  30.7667176  89.8898991
  15.9451397  31.1353658  89.7675697  29.3604507  33.1104710  78.3817364
  29.2784669  33.1806897  79.2472351  29.9984227  33.6734453  78.1901105
  29.4424344  33.2043681  78.4807313  22.7197678  32.8765447  87.8491890
  22.4616922  32.0437182  87.8223190  22.7746161  33.1023060  87.0084391
  22.6897456  32.7863219  87.7212027  27.7998728  24.9793898  87.9495983
  27.0955055  24.4903084  88.1079902  27.8483703  24.9916373  87.0784427
  27.7028780  24.9083546  87.8435323  21.6932390  30.4303210  88.3356785
  21.1181981  30.5895378  88.9720746  21.3168067  29.7938619  87.8725235
  21.5535203  30.3601023  88.3611343  25.3605679  28.9026559  93.1949163
  24.9720112  28.4780777  92.5401355  24.6960377  29.1508709  93.7026190
  25.2052607  28.8765280  93.1737031  35.0028948  28.6601564  85.9696993
  34.7465513  27.8481505  85.7794876  35.8458262  28.6679131  85.7427181
  35.0894973  28.5413561  85.9081811  11.4389209  30.0743285  86.3501226
  11.5249461  29.6975153  87.1314756  12.0665007  29.7003730  85.8721184
  11.5445760  29.9628767  86.3946703  29.1832040  22.6001188  90.7073148
  29.5642552  21.9179359  91.0941022  28.3795325  22.3110790  90.5248812
  29.1208502  22.4568237  90.7377203  26.4644617  33.1325164  81.3925970
  27.2785256  33.4240057  81.2808742  26.4003758  32.4785026  80.8184263
  26.5747356  33.0790359  81.2914808  32.6854107  35.8151160  95.8055546
  32.4492745  34.9839225  95.6867607  33.3297336  35.7636767  96.3910390
  32.7448778  35.6848848  95.8741440  22.3352525  36.6046681  86.5198282
  22.9726472  36.3658429  87.0650076  22.7607597  36.8083840  85.7851443
  22.4928692  36.5997691  86.4915440  17.0265168  38.8435018  90.4032586
  17.0669313  39.1149869  89.5752366  17.5859692  39.3676926  90.8190374
  17.1148514  38.9610773  90.3424474  22.9755340  31.8248971  80.8573172
  23.3600493  31.6056678  81.6089717  22.7266961  32.6511916  80.9874248
  22.9957413  31.9147117  80.9874248  23.1423881  25.1055386 100.5735756
  22.8277322  25.8754949 100.3105319  22.8213813  24.5425642  99.9887983
  23.0482800  25.1365655 100.4477106  33.7090528  35.5995609  91.8683840
  33.4036345  36.3323666  92.2297156  32.9896744  35.1933538  91.5876627
  33.5577870  35.6477342  91.8796978  24.7173997  37.0819104  88.1992069
  24.7913006  36.9194276  89.0533919  25.5343504  37.2709293  87.9552550
  24.8490356  37.0855846  88.2890094  39.4092320  32.2388609  91.1952185
  39.3416820  32.2584569  90.3254771  39.3947982  33.0818937  91.4207855
  39.3971077  32.3662344  91.1004662  18.4779754  37.4276967  85.2286512
  17.6517872  37.6738704  85.1020791  18.5391745  37.3489048  86.0948570
  18.3653921  37.4521916  85.3375457  20.6955778  23.4945908  86.1881952
  19.8278203  23.5668507  86.2539562  20.9830982  24.2967987  86.3769927
  20.6095526  23.6240055  86.2256719  29.8188667  23.6423767  94.5193274
  30.5642259  23.4533578  94.1056700  29.4025971  24.1682005  93.9607130
  29.8673641  23.6925913  94.3757847  23.2578583  40.0453847  82.9305542
  23.5476881  39.6542828  82.2064769  23.9882064  40.2270552  83.3710817
  23.4085467  40.0147661  82.8888349  37.1950937  31.0132996  89.4698779
  37.7458859  30.3801065  89.7095871  37.1795053  31.5448388  90.1614283
  37.2736134  30.9981944  89.6077637  23.8473328  34.8471593  94.0158673
  23.3485022  35.5587361  94.0943561  24.6573553  35.1672259  93.9776835
  23.8929435  34.9998441  94.0215241  21.1984499  42.0221229  85.9965692
  20.9784794  41.7318584  86.7892359  20.9779021  41.3636184  85.4683604
  21.1332093  41.8820938  86.0354600  20.1101446  34.1094546  88.2621393
  19.8214694  33.4832017  88.7967121  20.9784794  34.0514833  88.3286074
  20.1961698  34.0082090  88.3512348  30.8979344  29.2529329  88.5803375
  30.5544109  28.5319664  88.9310625  30.9972386  29.0443180  87.7381734
  30.8621386  29.1153533  88.5075055  23.3652454  43.3950619  84.7796384
  24.0176512  42.8627062  85.0087410  22.6678063  43.0419272  85.1664258
  23.3583172  43.2640142  84.8708552  20.3133719  35.7489797  84.1863758
  21.0679687  36.1302836  84.3999221  19.7204332  36.2000941  84.6410455
  20.3370433  35.8718624  84.2846637  31.3592373  35.7155033  84.1227363
  31.9250405  36.3748243  84.0385906  30.7120276  36.0604731  84.5943766
  31.3471129  35.8636975  84.1800120  22.7740386  27.7052637  99.3120971
  21.9640162  28.0110417  99.2010813  23.2515073  28.4258220  99.4273555
  22.7243865  27.8567238  99.3128042  21.6331946  36.9198358  89.5603874
  21.1112699  37.0598650  90.2455739  22.0205966  36.1609023  89.7505991
  21.6135647  36.8283882  89.6904950  18.6223130  26.9704167  83.6298829
  18.3347926  26.6005437  82.8930776  19.3093598  27.4399022  83.3682534
  18.6812027  26.9851136  83.4813904  27.8298951  38.6593818  83.5464443
  27.5885627  37.9261678  83.1391508  28.0100284  39.2080675  82.8930776
  27.8206575  38.6316209  83.3894666  23.0598271  33.9502377  84.9585365
  22.8641054  34.5577112  84.3645668  23.2832617  33.2570321  84.4777039
  23.0632912  33.9379903  84.8001446  21.4576801  30.8357115  85.0766233
  22.1799453  30.9998273  84.6170039  20.9784794  31.5566780  84.9705573
  21.4940532  30.9655345  84.9931847  29.4170309  27.1720914  90.4562918
  28.5781410  27.1982193  90.2201181  29.4874676  27.8191649  91.0368265
  29.3038702  27.2717040  90.5072035  19.1084418  33.2415188  94.1820373
  19.6205515  33.5199441  93.5329133  18.8220761  33.9804482  94.5483186
  19.1419281  33.3917541  94.1410251  27.8639587  24.0706291  85.1890534
  28.5665940  23.8714039  84.7110492  27.5983776  23.2982233  85.4959378
  27.9286220  23.9269257  85.1635976  33.2927833  32.3788901  87.7424160
  33.2061807  32.5344327  88.5958939  32.8378313  33.0226976  87.3683565
  33.2131089  32.4964656  87.8131267  16.1951324  27.7485379  84.4784110
  16.2967461  28.5511541  84.8065085  16.9907211  27.5472715  84.1807190
  16.3279230  27.8371278  84.4819465  22.6268144  25.3341576  94.2421415
  22.4351341  25.3496711  95.0920838  23.4766739  25.5305251  94.2188070
  22.7243865  25.3655927  94.3644710  17.0115057  27.8632558  92.2205231
  16.8700548  27.0116498  92.3449739  17.2955620  27.9061218  91.3967437
  17.0322903  27.7432308  92.1172855  27.1653649  29.6999648  86.3649719
  26.9188363  29.6195399  87.1986508  27.4938772  28.9153116  86.1712247
  27.1774892  29.5725913  86.4597243  31.0601698  36.4083007  90.1536501
  30.9216057  37.1064053  90.6585243  30.2801696  36.2531664  89.7972682
  30.9244925  36.4883174  90.1762775  29.3979783  32.7079383  96.4058882
  29.3927821  31.8359199  96.4101309  30.1040777  32.9067552  95.9328338
  29.5024787  32.6083257  96.3365918  23.1250676  32.4356366  95.7772703
  23.2694052  33.0157575  95.1415813  23.4726325  32.8132663  96.4822557
  23.1978138  32.5777071  95.7871698  25.2970594  31.6346535  93.5597834
  24.5493908  31.8277549  93.1546112  25.4512119  30.8091754  93.3221955
  25.2093021  31.5411646  93.4643240  22.1978431  40.6259138  92.6433729
  22.3467995  40.0662054  91.9907134  22.9778433  40.7051140  93.0266248
  22.3352525  40.5544704  92.6030679  32.5555071  35.7661261  80.9153000
  32.1761879  34.9798399  80.9082289  31.8921316  36.3148118  80.7724644
  32.4013545  35.7306085  80.8933797  24.7231732  40.7973781  93.9218220
  24.6475403  40.1282592  94.4769008  24.6521591  41.4991569  94.4358886
  24.7012339  40.8018689  94.0795068  25.5372371  25.5297086  94.4493238
  25.9944985  26.2621060  94.5766030  25.6128699  25.1063551  95.2080494
  25.6163340  25.5754324  94.5794314  17.7805362  25.7762905  95.5382682
  17.2447551  25.1643263  95.8543449  17.8423127  26.3511041  96.1916348
  17.7100994  25.7709833  95.6818108  30.0099696  18.7086961  88.3187081
  30.1283265  19.1663424  87.5854384  29.8361872  17.9032222  88.0323298
  30.0018867  18.6580733  88.1688014  25.3801979  39.3174780  84.7541826
  26.1451870  39.0484424  84.4324490  25.2780069  38.8324790  85.4711889
  25.4783474  39.2064345  84.8121654  23.4154748  27.5199190  91.2935062
  22.6250823  27.3390650  91.6152398  23.8115371  26.7426142  91.2765356
  23.3571625  27.3786650  91.3387610  27.9020639  36.3486964  76.7341776
  28.6693624  36.4087089  76.3247627  27.4551948  35.7767405  76.2498094
  27.9494067  36.2723540  76.6019486  28.7998435  35.1541620  89.0194508
  28.1243437  34.9226852  89.5207895  28.8090811  34.5462803  88.3936613
  28.7016939  35.0300545  89.0010660  25.9292579  29.9959449  95.7758561
  25.8651720  30.8569405  95.6478698  26.0689766  29.6791442  94.9754112
  25.9408049  30.0759615  95.6386774  30.8015169  38.0106752  81.2504686
  30.8835007  38.8173738  80.9266137  31.2864912  38.0302711  81.9745459
  30.8852327  38.1327414  81.3091584  24.6111673  32.6891588  89.9174764
  24.1873922  32.8896087  89.1813782  24.4356528  31.8420436  90.0299064
  24.5222553  32.5940369  89.8248454  24.1123366  44.2042101  92.3796221
  24.6019296  43.5052890  92.1971886  23.5407598  43.9065971  92.9672278
  24.1007896  44.0568325  92.4397262  19.8994118  33.1843639  85.3502736
  20.0558737  33.1190442  86.2058728  20.2394711  33.9592192  85.1381416
  19.9727352  33.2892838  85.4457330  26.4373262  32.5601523  84.2196099
  26.9788808  32.0571904  84.6834720  26.7519821  32.5066718  83.4085585
  26.5637659  32.4780944  84.1679912  30.3090370  36.7704170 101.3323012
  31.1225235  36.4989319 101.4928144  30.1485336  36.4711710 100.5283208
  30.4060318  36.6859096 101.2368418  24.6059712  37.9518875  81.5036127
  24.6752532  37.0933413  81.6429128  25.3848167  38.1690755  81.1755152
  24.7312562  37.8571738  81.4753285  27.5862532  27.4537827  94.2718400
  27.8004501  26.8148742  93.7181754  26.9696431  27.8983651  93.8426262
  27.5267861  27.4247971  94.1268831  28.9967200  40.3756576  85.7172621
  28.6046991  40.0723291  84.9995487  29.1520272  41.2125666  85.5277575
  28.9620789  40.4540413  85.5829118  16.4728379  30.3678590  85.6663503
  16.8527344  30.7863135  85.0023771  15.8983744  30.9492046  85.9732347
  16.4439704  30.5156449  85.6140244  29.7501620  29.0626893  95.2101707
  28.9378301  28.7552783  95.2914880  30.2091554  28.5825893  95.7744419
  29.6982004  28.9463385  95.3056301  29.1606874  36.9406565  85.6578651
  28.8021529  37.1121208  86.4342684  28.6745585  37.4019770  85.1006650
  29.0365571  37.0345536  85.6903920  26.9777260  20.5637763  89.2605743
  26.1070818  20.5376484  89.2139052  27.2317602  20.3914955  88.4431588
  26.8870820  20.5347907  89.1325879  23.9495240  32.6205730  78.1978886
  24.2387765  33.3970613  78.4722460  24.0367039  32.1094462  78.8993385
  24.0049496  32.6597648  78.3421384  26.8455127  30.4686964  99.9930409
  27.3154758  31.0929081 100.3798283  26.8917007  29.8003940 100.5523624
  26.9223003  30.4621644 100.1330481  24.0026401  22.5743992  90.7179213
  23.4864889  21.8824183  90.8430792  23.4420330  23.2414769  90.6641812
  23.8432914  22.5707249  90.7285279  26.0718634  23.1136952  92.5472066
  25.6850387  23.1385983  93.3285596  25.5851572  22.5478630  92.0946582
  25.9431143  23.0332702  92.5959969  30.3211614  37.8310461  96.6045852
  30.9591334  37.3370656  96.2708308  29.6785705  37.7587861  96.0198079
  30.3205840  37.7469469  96.4688207  32.0468614  29.6799607  91.1711768
  31.6196222  29.5925955  90.4159867  31.4094667  29.7877382  91.7566612
  31.8898221  29.6832266  91.1457209  25.7375776  20.0003937  94.8382326
  26.3668894  20.5364237  94.5603396  25.9061639  19.9081296  95.6895891
  25.8553571  20.0665299  94.9230854  25.5389691  24.7875132  97.1108737
  26.3663120  24.5160281  97.1667352  25.5597537  25.5835974  97.4672555
  25.6642541  24.8654886  97.1723920  30.3765870  38.5230269  93.2451209
  31.1658248  38.1719334  93.3653291  30.5509468  39.3366657  92.9827843
  30.5186152  38.5916126  93.2239077  20.1159181  31.9338995  90.2978998
  19.2747187  31.8342869  90.5057892  20.3249189  32.7034475  90.6493319
  20.0223873  32.0331038  90.3806313  17.5934748  29.5558532  88.1263749
  17.1991445  29.6301543  87.3513858  17.0374864  29.9416478  88.6772110
  17.4537560  29.6240306  88.0931408  29.2299694  22.5339826  87.8067627
  29.4349288  22.4662133  88.6524625  28.9026118  23.3398647  87.7388805
  29.2114942  22.6425766  87.9227283  23.9275846  29.8620394  89.5476595
  23.6238983  29.3076382  90.1487003  23.2255266  30.0412604  89.0604630
  23.7792055  29.8065176  89.5646301  22.9841943  27.1720914  84.1121297
  23.2601677  26.4539826  83.6998865  23.5840612  27.7705834  83.9042403
  23.1135207  27.1541284  84.0202058  21.9894197  37.0770115  94.2548693
  21.8814551  37.0872177  95.1210751  22.1989978  37.9024895  94.0653647
  22.0044308  37.2011189  94.3552785  32.4833382  23.0871590  87.2870393
  31.8707696  23.5741992  87.6724125  32.5797557  22.4115081  87.8308044
  32.4071280  23.0589899  87.4249251  26.4852463  24.8434431  82.3867892
  26.9396210  25.0144991  83.1115737  26.9592509  24.2302542  81.9865668
  26.6220783  24.7785316  82.4341654  20.0067989  34.3282757  91.7170631
  19.4155922  34.9692255  91.6873646  20.7689012  34.7520374  91.6901930
  20.0316249  34.4858595  91.7085778  20.4028611  25.4884755  92.3838648
  20.8630093  25.5623684  93.1213772  20.4484718  26.2866009  92.0338470
  20.4779167  25.6178902  92.4411405  22.0511961  26.1551450  96.9510675
  21.6597526  25.5084797  97.3866453  22.2197824  26.7462885  97.5704931
  22.0182871  26.1465717  97.1073381  36.1258410  34.1588527  92.7147909
  36.1841534  34.6075175  93.4607885  35.4924878  34.5687339  92.2777989
  36.0409705  34.2862261  92.7600457  29.7657505  39.7792069  89.1502655
  29.5677193  40.2682883  88.4558867  29.1445216  39.9833310  89.7286789
  29.6445069  39.8808607  89.1325878  23.8265483  31.5476965  83.4912899
  24.5707528  31.9351242  83.7295849  23.9726179  30.7034391  83.6553387
  23.9576068  31.4807438  83.5506869  25.7445059  23.3427224  88.5244761
  24.8981104  23.5150032  88.3986111  25.7416191  22.5376568  88.8610589
  25.6192209  23.2488253  88.5555888  26.8143359  27.1202439  89.3906819
  26.3403313  26.5944201  89.9012130  27.1861495  26.5731912  88.8221680
  26.7993248  26.9618435  89.3821966  17.1916389  29.1173945  94.7590365
  18.0542002  29.0169655  94.6727694  16.8608172  28.5368655  94.1975937
  17.2701585  29.0165572  94.6635770  33.0780090  32.1804814  90.8013599
  32.8378312  31.3411229  90.8056026  33.5572097  32.2604981  91.5254373
  33.1132273  32.0686214  90.9088402  28.7426859  28.0138993  82.4532573
  28.2149877  28.0967737  81.7638281  29.2022567  28.7556865  82.4497217
  28.7328709  28.1359656  82.3507268  35.0785277  28.9606272  88.7542858
  34.8395047  28.9202106  87.9163643  35.2419178  29.8077424  88.8808580
  35.0675580  29.0798357  88.6496340  31.6831307  33.3456221  94.6847904
  32.4065506  32.8928747  94.5058923  31.4181269  33.6260887  93.9020231
  31.7512580  33.3207189  94.5426619  20.5518175  27.9416394  91.4200783
  19.9271245  27.9534786  90.8126735  20.2163770  28.4176569  92.0692023
  20.4103667  28.0134911  91.4257351  20.7359924  26.2841513  77.4773468
  20.3872728  26.9361238  77.9405017  20.2556370  26.2698626  76.7497339
  20.6130168  26.3784566  77.4384559  17.2643851  36.0016854  92.8604547
  16.7343775  35.3109293  92.9099522  17.5368944  35.9927040  92.0317256
  17.2268573  35.8983986  92.7451963  28.2963941  36.5842557  81.5842230
  29.0198140  37.0500670  81.4406803  27.8564532  36.6516166  80.8339827
  28.3379633  36.6626394  81.4527011  27.4650096  33.4440099  92.8342919
  26.8507089  32.8998149  93.1291554  27.9817381  32.9304336  92.3548735
  27.4505759  33.2876508  92.8067147  26.7046393  34.5144369  90.5687217
  26.2774001  33.8894088  90.1352653  26.6971338  34.2319291  91.3946224
  26.6405535  34.3797150  90.6267045  19.8208920  29.5509542  93.6375651
  19.9802407  28.7952866  94.0427373  19.6401814  30.1000482  94.2916389
  19.8174279  29.5203356  93.7938357  27.7629223  21.7170778  94.1926441
  27.2669785  21.9134452  93.5018007  28.5198286  22.1163446  94.0215242
  27.8016048  21.8048512  94.0646577  25.0332103  25.3913124  90.7829751
  25.0574590  24.8573236  90.0942531  25.2843577  24.8830432  91.4455342
  25.0742022  25.2374028  90.7794396  12.5439693  32.6744619  90.2172895
  12.4383142  32.6291463  89.3524979  11.7939913  33.0198399  90.4987180
  12.4175296  32.7185527  90.1310225  21.3133425  24.1183942  90.1635496
  21.3531797  24.6193148  90.8770203  20.4883090  24.2094336  89.8941419
  21.1972951  24.2065758  90.2286034  23.4963038  33.6844682  98.2655790
  22.6458669  33.8216396  98.4013435  23.6591166  32.9508460  98.7103492
  23.3946902  33.5958783  98.3511389  22.7347789  30.6344452  92.4609395
  21.9039718  30.8018270  92.2544643  22.6799306  30.2580402  93.2458280
  22.6037204  30.6034183  92.5457923  20.5431572  24.1253345  98.0965805
  21.1684275  23.5815477  98.3695238  20.0882052  23.6448262  97.5273596
  20.5679833  23.9742826  98.0527399  21.1083832  28.9100043  82.9899512
  21.2486794  29.4072507  83.6928154  21.6066365  28.2086338  83.1313726
  21.2024913  28.8802022  83.1151091  21.1384055  29.7767154  80.3192089
  21.7729134  30.3727579  80.2541551  21.2209666  29.4770612  81.1337959
  21.2440606  29.8208062  80.4295176  34.1166621  32.3082632  93.1878453
  34.7084461  32.9479882  93.2196651  34.5525615  31.6105668  93.4770520
  34.2685052  32.3000982  93.2359286  22.7163038  25.7081130  80.2937531
  23.0378879  25.2284212  79.6396793  22.9789981  26.5180776  80.1028343
  22.8029063  25.7571028  80.1693023  25.9460011  36.7300004  93.8136347
  25.4385102  37.2835851  94.2576978  25.6486657  36.7908294  92.9955122
  25.8264895  36.8206315  93.7584804  28.1122193  25.0953324  92.6561010
  28.5377264  24.6425850  92.0444537  27.4979186  24.5413394  92.9325798
  28.0850838  24.9467300  92.6066035  17.6437043  31.9734995  83.5881635
  18.1529272  32.5699503  83.9692941  18.1171315  31.7060969  82.9058055
  17.7880418  32.0220810  83.5436158  28.5567791  40.6463262  81.7440291
  27.8397101  40.4724124  81.2787528  29.2074528  40.4115834  81.2115777
  28.5469641  40.5859054  81.5969509  26.5516416  21.5668423  86.0651587
  25.9084734  21.4166070  86.6336726  26.2115823  21.3210769  85.3000692
  26.4061493  21.5080546  86.0354602  31.1415762  29.5227850  85.4881596
  30.4706952  30.0657553  85.3594661  31.8355512  29.9922706  85.2463291
  31.1444630  29.6726121  85.4337124  25.1902496  41.6624562  90.7193354
  24.9668150  40.9043392  91.0877380  24.7012339  41.6922583  89.9973794
  25.0845945  41.5546787  90.6670095  31.3043890  25.9783734  88.3971969
  31.6571500  25.5513457  89.0717768  30.4458691  25.8934577  88.5273045
  31.2293334  25.9028475  88.5166979  20.0027575  28.6091254  86.4554816
  19.2839564  29.0255386  86.7227679  20.3739937  29.1745492  85.9046454
  19.9519506  28.7540535  86.4137623  29.3027155  29.2419102  92.3456811
  29.2825083  29.0602398  93.1991590  29.3506356  30.1131121  92.3216395
  29.3061796  29.3435641  92.4680106  27.2473485  35.8306294  98.2705288
  27.2069340  35.1855971  97.6850444  28.0596803  35.7742912  98.5830700
  27.3616639  35.7265261  98.2302237  23.8380953  41.8825020  88.1730439
  23.4241351  41.2199151  87.7834280  24.5228327  42.0302879  87.6526133
  23.8779324  41.8065679  88.0386936  27.2046247  41.0415106  88.9254055
  26.8062530  41.1517376  88.1574876  26.5897466  41.2497172  89.5080615
  27.0545136  41.0888674  88.8985355  25.7774149  27.6489253  81.7928195
  25.1838988  27.9706250  81.2412762  25.8149427  26.8030349  81.5849301
  25.6948538  27.5713582  81.6810966  32.7367950  21.1002146  89.3256282
  32.2298814  20.3931285  89.2577459  33.5335383  20.7695335  89.4557358
  32.7795189  20.9475297  89.3355276  28.6531965  27.6068758  85.2229945
  28.4245658  27.6301459  84.3808303  28.9130042  26.7826225  85.3424956
  28.6578153  27.4884838  85.1155143  22.9351194  29.4603231  94.8255045
  22.4230097  28.8524414  95.1840077  22.7630690  30.1759824  95.2929021
  22.8340831  29.4766530  94.9471269  17.7816909  27.9040806  97.4757407
  17.6119499  28.5642181  96.9305614  17.3382858  28.1147368  98.1969896
  17.6916242  28.0326788  97.5019037  21.7076728  26.1445304  86.5184141
  22.1834094  26.5062384  85.8834322  21.2065328  26.8001772  86.7984284
  21.7042087  26.2939493  86.4660882  34.9388090  35.6167072  82.3097146
  35.3221695  36.3658429  82.5395243  34.1432203  35.8632892  82.0509135
  34.8781872  35.7636766  82.3054719  26.8120264  27.3827476  97.2657301
  27.3691694  27.1541285  96.6335766  26.4881329  28.1433141  96.9892513
  26.8466674  27.4611312  97.1313798  14.6818973  30.8087672  92.7345897
  14.1345693  30.1388317  92.8526765  15.4711351  30.4417520  92.7989364
  14.7171157  30.6552658  92.7614598  24.5303382  30.4695129  98.2309308
  25.2814708  30.7846806  98.5448862  24.7225958  30.2674300  97.4043230
  24.6694796  30.4862511  98.1552704  23.7503381  28.2886504  79.8857525
  24.1302346  28.3066133  79.1008640  23.0095977  28.7340493  79.7648372
  23.6972219  28.3568279  79.7521093  31.3788672  26.5968695  85.4733104
  31.3782898  26.4417352  86.3317380  31.1744852  27.4431682  85.4174489
  31.3488449  26.6989316  85.5921043  13.4405943  30.0208480  89.8891920
  13.2627704  29.5685089  90.6146836  13.1524965  30.8234641  90.0730398
  13.3718896  30.0731038  90.0235423  29.1029524  31.2766197  89.1269310
  29.5983189  30.5589192  89.0873331  28.2929299  30.9736995  89.0123797
  29.0573417  31.1263843  89.1043036  24.5488135  35.1264010  81.2766315
  23.7399458  34.8030684  81.2299624  25.0563044  34.4197232  81.2094564
  24.5037802  34.9745327  81.2596609  15.1778412  32.5536203  87.0013679
  14.3123932  32.5421894  86.8896450  15.2777228  32.3666426  87.8484818
  15.0652579  32.5242265  87.1102624  31.1681343  34.0269885  91.8146439
  31.5936414  33.5044306  91.2616864  30.8038262  34.6250722  91.2935062
  31.1767945  34.0380112  91.6555449  20.8035422  42.3234102  90.5743785
  21.1181981  43.1370491  90.5821566  21.2128836  41.9384321  91.2425944
  20.9103520  42.3862804  90.6747876  27.7559942  37.7404149  88.1447597
  28.2271120  38.4544411  88.3137582  28.0920121  37.1402899  88.6807466
  27.8755057  37.7575613  88.2479973  29.8436927  39.3505462 100.3239669
  29.9533892  38.5614023 100.6796416  30.1727823  39.2611398  99.5214007
  29.9089332  39.2211315 100.2582059  24.6729437  22.5131619  95.1005691
  24.8057343  21.7162613  95.4286667  25.0574590  23.0398022  95.6803967
  24.7485766  22.4731536  95.2349194  28.3933888  37.5322083  94.9075289
  27.8454834  36.9079967  94.6395355  28.8546917  37.7216355  94.1919369
  28.3801098  37.4681133  94.7625720  27.7461792  19.4361946  91.6986785
  26.9407756  19.3259675  92.0154623  27.6168528  19.5374401  90.8416651
  27.6081925  19.4345616  91.6194825  31.2027753  25.6007437  92.2926482
  30.6190742  26.1016644  91.8804049  31.5232047  25.0936994  91.6590805
  31.1640928  25.5999272  92.1384989  23.7422552  24.5148032  82.5685156
  24.5638246  24.6846345  82.3266851  23.2792203  24.6695293  81.8451454
  23.7953714  24.5629765  82.4256801  22.3317884  22.5090794  93.3483585
  22.8762297  22.1681921  93.9387927  22.3854819  23.3676256  93.4904870
  22.4207003  22.5846054  93.4565459  18.1448442  36.2707211  90.2222393
  18.7493300  36.2303045  89.5936214  17.9375755  37.1178363  90.2526449
  18.2037340  36.3895213  90.1338510  27.9592215  38.5373156  91.4384631
  28.7790588  38.3936122  91.7000926  27.6786292  39.1619355  91.9801068
  28.0388958  38.6083508  91.5572570  13.3799725  35.2541828  90.0921316
  13.2824003  34.4438100  90.4011373  14.1628594  35.2333621  89.7067584
  13.4815861  35.1308918  90.0808179  44.4305865  46.1938007  84.4027507
  44.3999869  47.0482644  84.5745776  45.0287214  45.8933300  84.9613650
  44.5143023  46.2754504  84.5102309  37.6305550  45.2813658  89.1580437
  36.7743445  45.4422157  89.2089554  37.6773204  44.4105722  89.1785498
  37.5104661  45.1764460  89.1686503  32.0146690  54.8176376  84.9217669
  31.2629589  54.4391915  84.6933714  32.4632701  54.8494810  84.1736479
  31.9696356  54.7661983  84.7775171  40.9399266  51.5500184  98.7640893
  41.6466034  51.0552215  98.8927828  41.1287202  51.9909266  98.0343551
  41.0727172  51.5418534  98.6749939  37.4671649  55.2401746  80.3503216
  37.1323018  55.9178667  79.9147438  37.9798520  54.8507057  79.7620088
  37.4937231  55.2826324  80.1990007  37.0075941  57.1916014  86.2914328
  37.3915320  57.7602913  85.7519103  36.9435082  56.4665525  85.8120144
  37.0549368  57.1691478  86.1408190  40.4757371  47.3405702  91.8012089
  41.0213331  48.0190789  91.8606059  40.4174247  47.1993163  90.9413670
  40.5473285  47.4197704  91.6824150  33.5931446  54.8294768  87.1880441
  33.6941809  54.0195122  87.4977569  32.9973191  54.7351715  86.5580120
  33.5203984  54.6959797  87.1406680  42.2522440  48.7690309  82.6745817
  42.1361965  49.5197995  83.1037955  43.0478326  48.5114263  82.9241904
  42.3527029  48.8425156  82.7749908  33.4332185  59.7472358  88.5895297
  34.0769641  60.1885522  88.9791456  33.7588441  58.9425784  88.5025556
  33.5764014  59.6937552  88.6340775  26.7896490  50.8515055  86.8132775
  26.5546674  50.0182707  86.7065044  26.9282131  51.1319721  85.9993976
  26.7752152  50.7698558  86.6775130  29.0886577  43.0200786  89.7117083
  28.4691609  42.4293433  89.5427097  28.9870441  43.6112221  89.0781406
  28.9824253  43.0204868  89.5922072  34.1352765  52.7584332  83.9615159
  34.4568606  53.2989540  83.3576467  34.7824862  52.1881104  84.0937449
  34.2778820  52.7543508  83.8922194  36.1854473  44.7600327  84.0449546
  36.8834638  44.9388455  84.5371009  36.5006806  44.2370667  83.4219935
  36.3349810  44.7094099  84.0251556  28.8155710  46.5653067  91.9560652
  28.6914407  47.1515513  92.5910471  29.4673995  46.0713263  92.2572927
  28.8929360  46.5791872  92.0946581  36.3742408  51.1470772  84.0329337
  36.8136044  50.5387873  84.4784110  36.2247071  50.7678146  83.2614802
  36.4163874  51.0009244  83.9848505  33.8414051  49.7414784  91.2348163
  34.4863054  49.2487227  90.9159111  34.0815829  49.8839571  92.0614241
  33.9724637  49.6892226  91.3097696  36.3800143  52.5869690  90.8855055
  36.6623386  51.7921096  90.6641811  37.1086303  53.0650278  90.9060116
  36.5289707  52.5404287  90.8558071  34.3581337  40.1292724  88.1270820
  34.0284667  40.5803868  87.4574519  33.6826339  40.0508887  88.6743827
  34.2091773  40.1843859  88.1094044  39.9751745  49.4997954  80.9860107
  39.8903040  50.3558920  81.1309675  40.4636128  49.2242278  81.6542266
  40.0340642  49.5855275  81.1062188  41.5657744  36.1178247  86.3720431
  41.2511185  36.8081726  86.8040853  41.0484686  36.0623029  85.6705932
  41.4422215  36.2113136  86.3317380  40.9070178  46.1182748  82.4857842
  40.3781650  46.3342381  83.1455148  41.4295198  46.8118886  82.4058811
  40.9058631  46.2525885  82.5713441  46.3618231  51.6929052  87.8590886
  45.5315934  51.9039696  88.0224303  46.3127483  50.8666107  87.5833170
  46.2324967  51.6018659  87.8428252  32.7969786  50.0145965  81.2865310
  32.2127001  50.5195996  81.6931174  32.3939881  49.7888352  80.5461902
  32.6509090  50.0554213  81.2370335  28.3513815  55.7300726  88.0888981
  27.8681393  56.4551215  88.0648565  29.1637133  56.0276856  88.1999139
  28.4004562  55.8803079  88.1016260  34.4227969  54.5232906  90.6938796
  33.9054910  54.1640321  90.0900104  35.1202360  53.9995081  90.7044862
  34.4493550  54.3930594  90.6069054  38.0791561  54.9727721  96.6554969
  38.1674907  54.7853861  97.5033179  38.5081273  54.3265150  96.2559815
  38.1553663  54.8490728  96.7226720  35.6462020  54.2558881  95.6372631
  35.0832855  53.8431490  96.1612292  36.4083044  54.1811786  96.0565774
  35.6756469  54.1836281  95.7765631  37.2547001  46.2611617  79.7634230
  37.4943004  46.4689600  78.9509573  37.5762841  45.4569125  79.8723175
  37.3384158  46.1725718  79.6594783  32.5637291  38.1905012  83.6093768
  33.3183259  38.5583330  83.3710818  32.3864825  38.5644567  84.3772948
  32.6491769  38.3003200  83.6878657  31.2058012  56.2456902  88.2409261
  31.9078591  55.7308891  88.2982018  31.1255495  56.5731053  89.0456136
  31.2981772  56.2171128  88.3682053  45.8572189  44.3399453  91.6541308
  45.0200611  44.4101640  91.8888902  45.8260420  44.3423948  90.7815610
  45.7290472  44.3509680  91.5600855  32.2536919  46.4832489  97.3689676
  32.4257422  46.3738383  98.2174958  32.7906276  47.1286894  97.1320868
  32.3581922  46.5624490  97.4594773  30.9194355  40.5975331  80.3071881
  30.7369929  40.8147212  79.4812874  31.7819968  40.7114344  80.3630496
  31.0198945  40.6465229  80.1926368  30.5308787  52.4363254  87.7494869
  31.3697687  52.6686186  87.7968631  30.5620557  51.5667565  87.6801904
  30.6590505  52.3420200  87.7459514  31.1561490  52.8564129  92.0508175
  31.6959715  52.7135260  92.7211547  30.4731437  53.2560880  92.4192201
  31.1353644  52.8943800  92.2042596  36.5994075  37.6001742  83.3420905
  37.3280235  37.4217697  82.8959061  36.6888968  38.4419822  83.5528083
  36.7200737  37.6985621  83.3074423  40.5802375  48.5355129  87.2453199
  41.3359890  48.9686644  87.2842108  40.6864700  47.8859899  87.8187835
  40.7072546  48.5032613  87.3351225  43.6182546  52.3628407  87.9955602
  43.1817778  52.3665149  88.7514573  43.2845462  53.0433906  87.5635179
  43.5045166  52.4640863  88.0436434  38.1911620  54.4036740  99.3198752
  38.9752037  54.5167587  99.6854494  37.9908215  53.5777877  99.5157438
  38.2777645  54.2983459  99.4033138  26.5598635  49.0764420  92.2042596
  26.2937051  48.2603536  92.3633586  26.5737200  49.1217575  91.3338112
  26.5223358  48.9621324  92.0996078  43.5380029  39.4042235  90.2385030
  44.1805938  39.4740339  90.8246945  43.7903050  38.7371457  89.7364572
  43.6702161  39.3168583  90.2512309  30.4656382  43.8749504  78.8194354
  29.7514560  43.5887684  79.2316787  30.9500351  44.2146130  79.4600742
  30.4315746  43.8831154  78.9749989  31.3097242  42.6142798  94.8509604
  30.6169039  42.1439778  95.0970335  31.9257569  42.3881102  95.4251311
  31.2981772  42.5109930  94.9718756  38.3482013  56.3146842  92.9665208
  37.5497259  56.0746342  93.2239076  38.7968025  56.3661235  93.7132255
  38.2956625  56.2869233  93.1150132  46.7526893  49.0809327  86.8875239
  47.4143327  48.5199995  86.7871148  46.1118305  48.5861357  87.2127930
  46.7555760  48.9245736  86.9207579  37.6403700  52.3779458  79.1956162
  38.0554849  52.0464482  78.5040658  36.8095630  52.1448360  79.0676299
  37.5791709  52.2950714  79.0747010  26.9692049  49.8623199  89.4854340
  26.7867622  49.8370085  88.6326633  27.7041718  50.3322137  89.5243249
  27.0506113  49.9284561  89.3652259  43.0391723  50.0974709  86.6287228
  43.2747312  50.2419908  85.8014079  43.1881287  50.8617117  87.0218742
  43.0957527  50.2313763  86.5650832  30.0337801  46.5808202  95.9936449
  30.7577773  46.5661233  96.4801344  30.1353937  47.2903557  95.4958417
  30.1556010  46.6832905  95.9915236  44.8682180  48.9376375  84.4656832
  45.1990397  49.4704015  83.8596927  45.4415268  48.9915263  85.1218783
  45.0015859  49.0245944  84.4734613  37.4082750  50.0607287 100.8585396
  36.6155731  50.3750798 101.0438016  37.5231677  50.2758755 100.0206181
  37.3078161  50.1391123 100.7623731  40.0814069  46.7841278  85.1480412
  40.1760924  47.5230572  85.6020037  39.4572913  46.3558753  85.5814976
  40.0023099  46.8302598  85.2788559  38.3366543  49.9627490  95.7970693
  38.9105405  49.3254734  95.9519257  38.2581347  49.9631573  94.9280350
  38.4099778  49.8692602  95.6917104  26.9362959  46.7416700  89.6353407
  27.5136462  46.6053151  90.2745652  26.2377021  46.2852484  89.8898991
  26.9183981  46.6538966  89.7675697  40.3337090  48.6290017  78.3817364
  40.2517253  48.6992205  79.2472351  40.9716811  49.1919761  78.1901105
  40.4156928  48.7228989  78.4807313  33.6930262  48.3950755  87.8491890
  33.4349506  47.5622490  87.8223190  33.7478744  48.6208368  87.0084391
  33.6630040  48.3048527  87.7212027  38.7731312  40.4979206  87.9495983
  38.0687639  40.0088392  88.1079902  38.8216286  40.5101681  87.0784427
  38.6761363  40.4268854  87.8435323  32.6664974  45.9488518  88.3356785
  32.0914565  46.1080686  88.9720746  32.2900650  45.3123927  87.8725235
  32.5267786  45.8786331  88.3611343  36.3338262  44.4211867  93.1949163
  35.9452695  43.9966085  92.5401355  35.6692961  44.6694017  93.7026190
  36.1785190  44.3950588  93.1737031  45.9761532  44.1786872  85.9696993
  45.7198096  43.3666813  85.7794876  46.8190846  44.1864439  85.7427181
  46.0627557  44.0598869  85.9081811  22.4121793  45.5928593  86.3501226
  22.4982045  45.2160461  87.1314756  23.0397590  45.2189038  85.8721184
  22.5178344  45.4814075  86.3946703  40.1564624  38.1186496  90.7073148
  40.5375136  37.4364667  91.0941022  39.3527908  37.8296098  90.5248812
  40.0941086  37.9753544  90.7377203  37.4377201  48.6510472  81.3925970
  38.2517840  48.9425365  81.2808742  37.3736342  47.9970334  80.8184263
  37.5479940  48.5975666  81.2914808  43.6586691  51.3336468  95.8055546
  43.4225328  50.5024533  95.6867607  44.3029920  51.2822075  96.3910390
  43.7181362  51.2034156  95.8741440  33.3085109  52.1231989  86.5198282
  33.9459056  51.8843737  87.0650076  33.7340181  52.3269148  85.7851443
  33.4661275  52.1182999  86.4915440  27.9997751  54.3620326  90.4032586
  28.0401897  54.6335177  89.5752366  28.5592275  54.8862234  90.8190374
  28.0881097  54.4796081  90.3424474  33.9487924  47.3434279  80.8573172
  34.3333077  47.1241986  81.6089717  33.6999544  48.1697224  80.9874248
  33.9689997  47.4332425  80.9874248  34.1156464  40.6240694 100.5735756
  33.8009905  41.3940257 100.3105319  33.7946397  40.0610950  99.9887983
  34.0215383  40.6550963 100.4477106  44.6823111  51.1180917  91.8683840
  44.3768929  51.8508973  92.2297156  43.9629327  50.7118846  91.5876627
  44.5310454  51.1662650  91.8796978  35.6906581  52.6004412  88.1992069
  35.7645589  52.4379584  89.0533919  36.5076087  52.7894601  87.9552550
  35.8222940  52.6041154  88.2890094  50.3824904  47.7573917  91.1952185
  50.3149404  47.7769876  90.3254771  50.3680566  48.6004245  91.4207855
  50.3703660  47.8847652  91.1004662  29.4512338  52.9462275  85.2286512
  28.6250455  53.1924012  85.1020791  29.5124329  52.8674356  86.0948570
  29.3386505  52.9707224  85.3375457  31.6688361  39.0131216  86.1881952
  30.8010787  39.0853815  86.2539562  31.9563566  39.8153295  86.3769927
  31.5828109  39.1425363  86.2256719  40.7921250  39.1609075  94.5193274
  41.5374842  38.9718885  94.1056700  40.3758555  39.6867313  93.9607130
  40.8406224  39.2111220  94.3757847  34.2311167  55.5639155  82.9305542
  34.5209465  55.1728136  82.2064769  34.9614647  55.7455860  83.3710817
  34.3818051  55.5332969  82.8888349  48.1683521  46.5318304  89.4698779
  48.7191443  45.8986373  89.7095871  48.1527636  47.0633696  90.1614283
  48.2468717  46.5167252  89.6077637  34.8205912  50.3656901  94.0158673
  34.3217605  51.0772669  94.0943561  35.6306136  50.6857567  93.9776835
  34.8662019  50.5183749  94.0215241  32.1717082  57.5406537  85.9965692
  31.9517378  57.2503892  86.7892359  31.9511604  56.8821492  85.4683604
  32.1064676  57.4006246  86.0354600  31.0834029  49.6279854  88.2621393
  30.7947278  49.0017325  88.7967121  31.9517377  49.5700141  88.3286074
  31.1694281  49.5267398  88.3512348  41.8711927  44.7714637  88.5803375
  41.5276693  44.0504972  88.9310625  41.9704970  44.5628488  87.7381734
  41.8353970  44.6338840  88.5075055  34.3385038  58.9135927  84.7796384
  34.9909096  58.3812370  85.0087410  33.6410647  58.5604580  85.1664258
  34.3315756  58.7825450  84.8708552  31.2866303  51.2675105  84.1863758
  32.0412271  51.6488144  84.3999221  30.6936915  51.7186249  84.6410455
  31.3103016  51.3903932  84.2846637  42.3324956  51.2340341  84.1227363
  42.8982989  51.8933551  84.0385906  41.6852860  51.5790039  84.5943766
  42.3203713  51.3822283  84.1800120  33.7472970  43.2237945  99.3120971
  32.9372746  43.5295725  99.2010813  34.2247657  43.9443528  99.4273555
  33.6976449  43.3752546  99.3128042  32.6064529  52.4383666  89.5603874
  32.0845283  52.5783958  90.2455739  32.9938550  51.6794331  89.7505991
  32.5868230  52.3469190  89.6904950  29.5955713  42.4889475  83.6298829
  29.3080509  42.1190745  82.8930776  30.2826182  42.9584330  83.3682534
  29.6544611  42.5036444  83.4813904  38.8031534  54.1779125  83.5464443
  38.5618210  53.4446986  83.1391508  38.9832867  54.7265982  82.8930776
  38.7939158  54.1501517  83.3894666  34.0330855  49.4687685  84.9585365
  33.8373638  50.0762420  84.3645668  34.2565201  48.7755629  84.4777039
  34.0365496  49.4565211  84.8001446  32.4309385  46.3542423  85.0766233
  33.1532037  46.5183581  84.6170039  31.9517378  47.0752088  84.9705573
  32.4673116  46.4840653  84.9931847  40.3902893  42.6906222  90.4562918
  39.5513993  42.7167501  90.2201181  40.4607260  43.3376957  91.0368265
  40.2771286  42.7902348  90.5072035  30.0817002  48.7600496  94.1820373
  30.5938099  49.0384749  93.5329133  29.7953344  49.4989790  94.5483186
  30.1151865  48.9102849  94.1410251  38.8372171  39.5891599  85.1890534
  39.5398524  39.3899347  84.7110492  38.5716360  38.8167541  85.4959378
  38.9018803  39.4454565  85.1635976  44.2660416  47.8974209  87.7424160
  44.1794391  48.0529635  88.5958939  43.8110896  48.5412284  87.3683565
  44.1863673  48.0149964  87.8131267  27.1683908  43.2670687  84.4784110
  27.2700044  44.0696849  84.8065085  27.9639795  43.0658023  84.1807190
  27.3011814  43.3556586  84.4819465  33.6000727  40.8526884  94.2421415
  33.4083924  40.8682019  95.0920838  34.4499323  41.0490558  94.2188070
  33.6976449  40.8841235  94.3644710  27.9847640  43.3817866  92.2205231
  27.8433132  42.5301806  92.3449739  28.2688204  43.4246526  91.3967437
  28.0055486  43.2617616  92.1172855  38.1386232  45.2184956  86.3649719
  37.8920947  45.1380707  87.1986508  38.4671356  44.4338424  86.1712247
  38.1507476  45.0911221  86.4597243  42.0334281  51.9268315  90.1536501
  41.8948641  52.6249361  90.6585243  41.2534279  51.7716972  89.7972682
  41.8977508  52.0068482  90.1762775  40.3712366  48.2264691  96.4058882
  40.3660405  47.3544507  96.4101309  41.0773360  48.4252860  95.9328338
  40.4757370  48.1268565  96.3365918  34.0983260  47.9541674  95.7772703
  34.2426635  48.5342883  95.1415813  34.4458908  48.3317971  96.4822557
  34.1710721  48.0962378  95.7871698  36.2703177  47.1531843  93.5597834
  35.5226491  47.3462857  93.1546112  36.4244702  46.3277062  93.3221955
  36.1825605  47.0596954  93.4643240  33.1711015  56.1444446  92.6433729
  33.3200578  55.5847362  91.9907134  33.9511017  56.2236448  93.0266248
  33.3085108  56.0730012  92.6030679  43.5287654  51.2846569  80.9153000
  43.1494463  50.4983707  80.9082289  42.8653900  51.8333426  80.7724644
  43.3746129  51.2491393  80.8933797  35.6964315  56.3159089  93.9218220
  35.6207986  55.6467900  94.4769008  35.6254175  57.0176877  94.4358886
  35.6744922  56.3203996  94.0795068  36.5104954  41.0482394  94.4493238
  36.9677568  41.7806368  94.5766030  36.5861283  40.6248859  95.2080494
  36.5895924  41.0939632  94.5794314  28.7537945  41.2948213  95.5382682
  28.2180135  40.6828571  95.8543449  28.8155710  41.8696349  96.1916348
  28.6833578  41.2895141  95.6818108  40.9832280  34.2272269  88.3187081
  41.1015848  34.6848732  87.5854384  40.8094456  33.4217530  88.0323298
  40.9751451  34.1766041  88.1688014  36.3534562  54.8360088  84.7541826
  37.1184453  54.5669732  84.4324490  36.2512652  54.3510098  85.4711889
  36.4516058  54.7249653  84.8121654  34.3887332  43.0384497  91.2935062
  33.5983407  42.8575958  91.6152398  34.7847955  42.2611450  91.2765356
  34.3304208  42.8971958  91.3387610  38.8753223  51.8672272  76.7341776
  39.6426208  51.9272397  76.3247627  38.4284532  51.2952713  76.2498094
  38.9226650  51.7908847  76.6019486  39.7731018  50.6726928  89.0194508
  39.0976020  50.4412160  89.5207895  39.7823394  50.0648111  88.3936613
  39.6749523  50.5485853  89.0010660  36.9025162  45.5144757  95.7758561
  36.8384304  46.3754713  95.6478698  37.0422350  45.1976750  94.9754112
  36.9140632  45.5944923  95.6386774  41.7747753  53.5292060  81.2504686
  41.8567590  54.3359046  80.9266137  42.2597495  53.5488019  81.9745459
  41.8584911  53.6512722  81.3091584  35.5844256  48.2076896  89.9174764
  35.1606505  48.4081395  89.1813782  35.4089111  47.3605744  90.0299064
  35.4955137  48.1125677  89.8248454  35.0855950  59.7227409  92.3796221
  35.5751880  59.0238198  92.1971886  34.5140182  59.4251279  92.9672278
  35.0740480  59.5753633  92.4397262  30.8726701  48.7028947  85.3502736
  31.0291320  48.6375750  86.2058728  31.2127294  49.4777500  85.1381416
  30.9459936  48.8078145  85.4457330  37.4105846  48.0786831  84.2196099
  37.9521391  47.5757212  84.6834720  37.7252405  48.0252026  83.4085585
  37.5370243  47.9966252  84.1679912  41.2822953  52.2889478 101.3323012
  42.0957819  52.0174627 101.4928144  41.1217920  51.9897018 100.5283208
  41.3792902  52.2044404 101.2368418  35.5792296  53.4704182  81.5036127
  35.6485116  52.6118721  81.6429128  36.3580751  53.6876063  81.1755152
  35.7045146  53.3757046  81.4753285  38.5595115  42.9723135  94.2718400
  38.7737085  42.3334050  93.7181754  37.9429014  43.4168959  93.8426262
  38.5000444  42.9433279  94.1268831  39.9699783  55.8941884  85.7172621
  39.5779575  55.5908599  84.9995487  40.1252855  56.7310974  85.5277575
  39.9353373  55.9725720  85.5829118  27.4460963  45.8863898  85.6663503
  27.8259928  46.3048443  85.0023771  26.8716328  46.4677353  85.9732347
  27.4172288  46.0341757  85.6140244  40.7234203  44.5812201  95.2101707
  39.9110885  44.2738091  95.2914880  41.1824138  44.1011201  95.7744419
  40.6714588  44.4648693  95.3056301  40.1339458  52.4591873  85.6578651
  39.7754113  52.6306515  86.4342684  39.6478169  52.9205078  85.1006650
  40.0098155  52.5530844  85.6903920  37.9509844  36.0823071  89.2605743
  37.0803402  36.0561792  89.2139052  38.2050185  35.9100263  88.4431588
  37.8603404  36.0533215  89.1325879  34.9227823  48.1391038  78.1978886
  35.2120348  48.9155920  78.4722460  35.0099622  47.6279769  78.8993385
  34.9782080  48.1782956  78.3421384  37.8187711  45.9872272  99.9930409
  38.2887342  46.6114388 100.3798283  37.8649591  45.3189248 100.5523624
  37.8955587  45.9806952 100.1330481  34.9758984  38.0929300  90.7179213
  34.4597473  37.4009491  90.8430792  34.4152913  38.7600077  90.6641812
  34.8165498  38.0892557  90.7285279  37.0451218  38.6322260  92.5472066
  36.6582971  38.6571291  93.3285596  36.5584155  38.0663938  92.0946582
  36.9163727  38.5518010  92.5959969  41.2944197  53.3495769  96.6045852
  41.9323918  52.8555964  96.2708308  40.6518289  53.2773169  96.0198079
  41.2938424  53.2654777  96.4688207  43.0201197  45.1984914  91.1711768
  42.5928805  45.1111263  90.4159867  42.3827250  45.3062690  91.7566612
  42.8630805  45.2017574  91.1457209  36.7108360  35.5189245  94.8382326
  37.3401477  36.0549545  94.5603396  36.8794222  35.4266604  95.6895891
  36.8286154  35.5850607  94.9230854  36.5122274  40.3060440  97.1108737
  37.3395704  40.0345589  97.1667352  36.5330120  41.1021281  97.4672555
  36.6375124  40.3840194  97.1723920  41.3498454  54.0415577  93.2451209
  42.1390832  53.6904642  93.3653291  41.5242052  54.8551965  92.9827843
  41.4918735  54.1101434  93.2239077  31.0891764  47.4524303  90.2978998
  30.2479771  47.3528177  90.5057892  31.2981772  48.2219783  90.6493319
  30.9956457  47.5516346  90.3806313  28.5667331  45.0743839  88.1263749
  28.1724029  45.1486851  87.3513858  28.0107448  45.4601786  88.6772110
  28.4270144  45.1425614  88.0931408  40.2032278  38.0525134  87.8067627
  40.4081871  37.9847441  88.6524625  39.8758702  38.8583955  87.7388805
  40.1847526  38.1611074  87.9227283  34.9008429  45.3805702  89.5476595
  34.5971567  44.8261690  90.1487003  34.1987850  45.5597912  89.0604630
  34.7524639  45.3250484  89.5646301  33.9574526  42.6906222  84.1121297
  34.2334261  41.9725134  83.6998865  34.5573196  43.2891141  83.9042403
  34.0867791  42.6726592  84.0202058  32.9626780  52.5955422  94.2548693
  32.8547135  52.6057485  95.1210751  33.1722562  53.4210203  94.0653647
  32.9776891  52.7196497  94.3552785  43.4565966  38.6056898  87.2870393
  42.8440279  39.0927300  87.6724125  43.5530141  37.9300389  87.8308044
  43.3803863  38.5775206  87.4249251  37.4585047  40.3619739  82.3867892
  37.9128793  40.5330299  83.1115737  37.9325092  39.7487850  81.9865668
  37.5953367  40.2970624  82.4341654  30.9800572  49.8468065  91.7170631
  30.3888505  50.4877563  91.6873646  31.7421596  50.2705682  91.6901930
  31.0048833  50.0043903  91.7085778  31.3761195  41.0070063  92.3838648
  31.8362676  41.0808992  93.1213772  31.4217302  41.8051317  92.0338470
  31.4511750  41.1364210  92.4411405  33.0244545  41.6736757  96.9510675
  32.6330110  41.0270105  97.3866453  33.1930407  42.2648193  97.5704931
  32.9915455  41.6651025  97.1073381  47.0990994  49.6773835  92.7147909
  47.1574117  50.1260483  93.4607885  46.4657461  50.0872647  92.2777989
  47.0142289  49.8047569  92.7600457  40.7390088  55.2977376  89.1502655
  40.5409777  55.7868191  88.4558867  40.1177799  55.5018618  89.7286789
  40.6177653  55.3993915  89.1325878  34.7998067  47.0662273  83.4912899
  35.5440112  47.4536550  83.7295849  34.9458763  46.2219699  83.6553387
  34.9308652  46.9992746  83.5506869  36.7177642  38.8612532  88.5244761
  35.8713687  39.0335340  88.3986111  36.7148775  38.0561876  88.8610589
  36.5924792  38.7673561  88.5555888  37.7875943  42.6387747  89.3906819
  37.3135897  42.1129509  89.9012130  38.1594078  42.0917219  88.8221680
  37.7725832  42.4803743  89.3821966  28.1648973  44.6359253  94.7590365
  29.0274586  44.5354962  94.6727694  27.8340756  44.0553963  94.1975937
  28.2434169  44.5350880  94.6635770  44.0512673  47.6990122  90.8013599
  43.8110896  46.8596537  90.8056026  44.5304680  47.7790289  91.5254373
  44.0864857  47.5871522  90.9088402  39.7159442  43.5324301  82.4532573
  39.1882461  43.6153045  81.7638281  40.1755150  44.2742173  82.4497217
  39.7061293  43.6544964  82.3507268  46.0517860  44.4791579  88.7542858
  45.8127630  44.4387414  87.9163643  46.2151761  45.3262731  88.8808580
  46.0408164  44.5983664  88.6496340  42.6563890  48.8641529  94.6847904
  43.3798089  48.4114055  94.5058923  42.3913853  49.1446194  93.9020231
  42.7245164  48.8392497  94.5426619  31.5250759  43.4601702  91.4200783
  30.9003829  43.4720094  90.8126735  31.1896354  43.9361877  92.0692023
  31.3836251  43.5320219  91.4257351  31.7092507  41.8026821  77.4773468
  31.3605312  42.4546546  77.9405017  31.2288953  41.7883934  76.7497339
  31.5862751  41.8969874  77.4384559  28.2376434  51.5202162  92.8604547
  27.7076359  50.8294601  92.9099522  28.5101528  51.5112348  92.0317256
  28.2001157  51.4169294  92.7451963  39.2696525  52.1027865  81.5842230
  39.9930724  52.5685978  81.4406803  38.8297116  52.1701474  80.8339827
  39.3112217  52.1811701  81.4527011  38.4382680  48.9625407  92.8342919
  37.8239673  48.4183457  93.1291554  38.9549965  48.4489643  92.3548735
  38.4238342  48.8061816  92.8067147  37.6778977  50.0329677  90.5687217
  37.2506585  49.4079396  90.1352653  37.6703921  49.7504599  91.3946224
  37.6138118  49.8982458  90.6267045  30.7941504  45.0694850  93.6375651
  30.9534991  44.3138174  94.0427373  30.6134398  45.6185790  94.2916389
  30.7906863  45.0388664  93.7938357  38.7361807  37.2356086  94.1926441
  38.2402368  37.4319760  93.5018007  39.4930869  37.6348754  94.0215242
  38.7748632  37.3233819  94.0646577  36.0064687  40.9098432  90.7829751
  36.0307174  40.3758544  90.0942531  36.2576160  40.4015740  91.4455342
  36.0474605  40.7559335  90.7794396  23.5172276  48.1929927  90.2172895
  23.4115726  48.1476771  89.3524979  22.7672496  48.5383707  90.4987180
  23.3907879  48.2370835  90.1310225  32.2866009  39.6369250  90.1635496
  32.3264380  40.1378456  90.8770203  31.4615674  39.7279643  89.8941419
  32.1705535  39.7251066  90.2286034  34.4695622  49.2029990  98.2655790
  33.6191252  49.3401704  98.4013435  34.6323749  48.4693768  98.7103492
  34.3679485  49.1144091  98.3511389  33.7080372  46.1529760  92.4609395
  32.8772302  46.3203578  92.2544643  33.6531889  45.7765710  93.2458280
  33.5769787  46.1219491  92.5457923  31.5164156  39.6438653  98.0965805
  32.1416859  39.1000785  98.3695238  31.0614635  39.1633570  97.5273596
  31.5412416  39.4928134  98.0527399  32.0816416  44.4285351  82.9899512
  32.2219377  44.9257815  83.6928154  32.5798949  43.7271646  83.1313726
  32.1757497  44.3987330  83.1151091  32.1116638  45.2952462  80.3192089
  32.7461718  45.8912887  80.2541551  32.1942249  44.9955920  81.1337959
  32.2173189  45.3393370  80.4295176  45.0899204  47.8267940  93.1878453
  45.6817045  48.4665190  93.2196651  45.5258199  47.1290976  93.4770520
  45.2417635  47.8186290  93.2359286  33.6895621  41.2266438  80.2937531
  34.0111462  40.7469520  79.6396793  33.9522565  42.0366084  80.1028343
  33.7761647  41.2756336  80.1693023  36.9192594  52.2485312  93.8136347
  36.4117685  52.8021159  94.2576978  36.6219240  52.3093602  92.9955122
  36.7997479  52.3391623  93.7584804  39.0854776  40.6138632  92.6561010
  39.5109848  40.1611158  92.0444537  38.4711769  40.0598702  92.9325798
  39.0583422  40.4652608  92.6066035  28.6169626  47.4920303  83.5881635
  29.1261856  48.0884810  83.9692941  29.0903899  47.2246277  82.9058055
  28.7613002  47.5406118  83.5436158  39.5300374  56.1648570  81.7440291
  38.8129684  55.9909432  81.2787528  40.1807112  55.9301142  81.2115777
  39.5202225  56.1044362  81.5969509  37.5248999  37.0853731  86.0651587
  36.8817317  36.9351378  86.6336726  37.1848406  36.8396077  85.3000692
  37.3794076  37.0265854  86.0354602  42.1148346  45.0413158  85.4881596
  41.4439536  45.5842860  85.3594661  42.8088096  45.5108014  85.2463291
  42.1177213  45.1911429  85.4337124  36.1635079  57.1809870  90.7193354
  35.9400734  56.4228699  91.0877380  35.6744923  57.2107891  89.9973794
  36.0578528  57.0732095  90.6670095  42.2776473  41.4969042  88.3971969
  42.6304083  41.0698765  89.0717768  41.4191275  41.4119885  88.5273045
  42.2025918  41.4213782  88.5166979  30.9760158  44.1276562  86.4554816
  30.2572147  44.5440694  86.7227679  31.3472520  44.6930800  85.9046454
  30.9252090  44.2725843  86.4137623  40.2759739  44.7604410  92.3456811
  40.2557666  44.5787706  93.1991590  40.3238940  45.6316429  92.3216395
  40.2794380  44.8620949  92.4680106  38.2206069  51.3491602  98.2705288
  38.1801924  50.7041279  97.6850444  39.0329387  51.2928220  98.5830700
  38.3349222  51.2450569  98.2302237  34.8113536  57.4010328  88.1730439
  34.3973935  56.7384459  87.7834280  35.4960911  57.5488187  87.6526133
  34.8511908  57.3250986  88.0386936  38.1778830  56.5600414  88.9254055
  37.7795114  56.6702684  88.1574876  37.5630050  56.7682480  89.5080615
  38.0277720  56.6073982  88.8985355  36.7506732  43.1674561  81.7928195
  36.1571572  43.4891558  81.2412762  36.7882010  42.3215657  81.5849301
  36.6681122  43.0898890  81.6810966  43.7100533  36.6187454  89.3256282
  43.2031398  35.9116593  89.2577459  44.5067967  36.2880643  89.4557358
  43.7527772  36.4660605  89.3355276  39.6264549  43.1254066  85.2229945
  39.3978242  43.1486767  84.3808303  39.8862625  42.3011533  85.3424956
  39.6310737  43.0070146  85.1155143  33.9083777  44.9788539  94.8255045
  33.3962681  44.3709722  95.1840077  33.7363274  45.6945131  95.2929021
  33.8073414  44.9951838  94.9471269  28.7549492  43.4226114  97.4757407
  28.5852082  44.0827489  96.9305614  28.3115442  43.6332676  98.1969896
  28.6648826  43.5512096  97.5019037  32.6809312  41.6630612  86.5184141
  33.1566678  42.0247692  85.8834322  32.1797911  42.3187080  86.7984284
  32.6774671  41.8124801  86.4660882  45.9120673  51.1352380  82.3097146
  46.2954279  51.8843736  82.5395243  45.1164786  51.3818200  82.0509135
  45.8514455  51.2822074  82.3054719  37.7852848  42.9012784  97.2657301
  38.3424278  42.6726593  96.6335766  37.4613913  43.6618449  96.9892513
  37.8199258  42.9796620  97.1313798  25.6551557  46.3272980  92.7345897
  25.1078276  45.6573625  92.8526765  26.4443935  45.9602828  92.7989364
  25.6903740  46.1737966  92.7614598  35.5035965  45.9880437  98.2309308
  36.2547292  46.3032114  98.5448862  35.6958542  45.7859608  97.4043230
  35.6427379  46.0047819  98.1552704  34.7235965  43.8071812  79.8857525
  35.1034930  43.8251441  79.1008640  33.9828561  44.2525801  79.7648372
  34.6704802  43.8753587  79.7521093  42.3521255  42.1154003  85.4733104
  42.3515482  41.9602660  86.3317380  42.1477435  42.9616990  85.4174489
  42.3221033  42.2174624  85.5921043  24.4138526  45.5393788  89.8891920
  24.2360287  45.0870397  90.6146836  24.1257548  46.3419949  90.0730398
  24.3451479  45.5916345  90.0235423  40.0762107  46.7951505  89.1269310
  40.5715773  46.0774500  89.0873331  39.2661883  46.4922303  89.0123797
  40.0306001  46.6449151  89.1043036  35.5220719  50.6449318  81.2766315
  34.7132042  50.3215992  81.2299624  36.0295628  49.9382540  81.2094564
  35.4770386  50.4930635  81.2596609  26.1510996  48.0721511  87.0013679
  25.2856516  48.0607202  86.8896450  26.2509812  47.8851734  87.8484818
  26.0385163  48.0427573  87.1102624  42.1413926  49.5455193  91.8146439
  42.5668998  49.0229614  91.2616864  41.7770846  50.1436030  91.2935062
  42.1500529  49.5565420  91.6555449  31.7768006  57.8419410  90.5743785
  32.0914565  58.6555798  90.5821566  32.1861419  57.4569629  91.2425944
  31.8836104  57.9048112  90.6747876  38.7292526  53.2589457  88.1447597
  39.2003704  53.9729719  88.3137582  39.0652704  52.6588207  88.6807466
  38.8487641  53.2760921  88.2479973  40.8169510  54.8690770 100.3239669
  40.9266476  54.0799331 100.6796416  41.1460407  54.7796706  99.5214007
  40.8821916  54.7396623 100.2582059  35.6462021  38.0316927  95.1005691
  35.7789926  37.2347921  95.4286667  36.0307173  38.5583330  95.6803967
  35.7218349  37.9916844  95.2349194  39.3666472  53.0507391  94.9075289
  38.8187418  52.4265275  94.6395355  39.8279501  53.2401663  94.1919369
  39.3533681  52.9866441  94.7625720  38.7194376  34.9547253  91.6986785
  37.9140339  34.8444983  92.0154623  38.5901111  35.0559709  90.8416651
  38.5814509  34.9530924  91.6194825  42.1760336  41.1192745  92.2926482
  41.5923325  41.6201952  91.8804049  42.4964630  40.6122302  91.6590805
  42.1373512  41.1184580  92.1384989  34.7155135  40.0333340  82.5685156
  35.5370830  40.2031653  82.3266851  34.2524786  40.1880601  81.8451454
  34.7686298  40.0815073  82.4256801  33.3050467  38.0276102  93.3483585
  33.8494880  37.6867229  93.9387927  33.3587403  38.8861564  93.4904870
  33.3939587  38.1031362  93.4565459  29.1181026  51.7892518  90.2222393
  29.7225883  51.7488353  89.5936214  28.9108339  52.6363670  90.2526449
  29.1769923  51.9080521  90.1338510  38.9324798  54.0558464  91.4384631
  39.7523172  53.9121430  91.7000926  38.6518876  54.6804662  91.9801068
  39.0121542  54.1268816  91.5572570  24.3532308  50.7727136  90.0921316
  24.2556586  49.9623407  90.4011373  25.1361178  50.7518929  89.7067584
  24.4548445  50.6494226  90.0808179  55.4038449  61.7123315  84.4027507
  55.3732453  62.5667952  84.5745776  56.0019797  61.4118608  84.9613650
  55.4875606  61.7939812  84.5102309  48.6038133  60.7998966  89.1580437
  47.7476029  60.9607465  89.2089554  48.6505787  59.9291030  89.1785498
  48.4837245  60.6949768  89.1686503  42.9879273  70.3361684  84.9217669
  42.2362173  69.9577223  84.6933714  43.4365285  70.3680118  84.1736479
  42.9428940  70.2847291  84.7775171  51.9131850  67.0685492  98.7640893
  52.6198617  66.5737523  98.8927828  52.1019785  67.5094573  98.0343551
  52.0459756  67.0603842  98.6749939  48.4404233  70.7587054  80.3503216
  48.1055601  71.4363975  79.9147438  48.9531103  70.3692365  79.7620088
  48.4669814  70.8011632  80.1990007  47.9808524  72.7101322  86.2914328
  48.3647904  73.2788221  85.7519103  47.9167666  71.9850833  85.8120144
  48.0281952  72.6876786  86.1408190  51.4489954  62.8591010  91.8012089
  51.9945914  63.5376097  91.8606059  51.3906831  62.7178471  90.9413670
  51.5205869  62.9383012  91.6824150  44.5664029  70.3480076  87.1880441
  44.6674392  69.5380430  87.4977569  43.9705775  70.2537023  86.5580120
  44.4936568  70.2145104  87.1406680  53.2255023  64.2875617  82.6745817
  53.1094549  65.0383303  83.1037955  54.0210910  64.0299571  82.9241904
  53.3259613  64.3610464  82.7749908  44.4064769  75.2657666  88.5895297
  45.0502224  75.7070830  88.9791456  44.7321024  74.4611092  88.5025556
  44.5496598  75.2122860  88.6340775  37.7629074  66.3700363  86.8132775
  37.5279258  65.5368015  86.7065044  37.9014714  66.6505029  85.9993976
  37.7484736  66.2883866  86.6775130  40.0619161  58.5386094  89.7117083
  39.4424193  57.9478741  89.5427097  39.9603025  59.1297529  89.0781406
  39.9556837  58.5390176  89.5922072  45.1085349  68.2769640  83.9615159
  45.4301190  68.8174848  83.3576467  45.7557445  67.7066412  84.0937449
  45.2511404  68.2728816  83.8922194  47.1587057  60.2785635  84.0449546
  47.8567221  60.4573763  84.5371009  47.4739389  59.7555975  83.4219935
  47.3082394  60.2279407  84.0251556  39.7888294  62.0838375  91.9560652
  39.6646991  62.6700821  92.5910471  40.4406579  61.5898571  92.2572927
  39.8661943  62.0977180  92.0946581  47.3474992  66.6656080  84.0329337
  47.7868628  66.0573181  84.4784110  47.1979655  66.2863454  83.2614802
  47.3896458  66.5194551  83.9848505  44.8146635  65.2600092  91.2348163
  45.4595638  64.7672535  90.9159111  45.0548412  65.4024879  92.0614241
  44.9457220  65.2077534  91.3097696  47.3532726  68.1054998  90.8855055
  47.6355969  67.3106404  90.6641811  48.0818887  68.5835585  90.9060116
  47.5022290  68.0589595  90.8558071  45.3313920  55.6478032  88.1270820
  45.0017250  56.0989176  87.4574519  44.6558922  55.5694195  88.6743827
  45.1824357  55.7029167  88.1094044  50.9484329  65.0183262  80.9860107
  50.8635624  65.8744228  81.1309675  51.4368712  64.7427586  81.6542266
  51.0073226  65.1040583  81.1062188  51.8802762  61.6368056  82.4857842
  51.3514233  61.8527689  83.1455148  52.4027782  62.3304194  82.4058811
  51.8791215  61.7711193  82.5713441  57.3350815  67.2114360  87.8590886
  56.5048518  67.4225004  88.0224303  57.2860067  66.3851415  87.5833170
  57.2057550  67.1203967  87.8428252  43.7702370  65.5331273  81.2865310
  43.1859585  66.0381304  81.6931174  43.3672465  65.3073659  80.5461902
  43.6241673  65.5739521  81.2370335  39.3246398  71.2486034  88.0888981
  38.8413977  71.9736523  88.0648565  40.1369717  71.5462164  88.1999139
  39.3737146  71.3988387  88.1016260  45.3960552  70.0418214  90.6938796
  44.8787494  69.6825629  90.0900104  46.0934944  69.5180389  90.7044862
  45.4226133  69.9115902  90.6069054  49.0524144  70.4913028  96.6554969
  49.1407490  70.3039169  97.5033179  49.4813857  69.8450458  96.2559815
  49.1286247  70.3676036  96.7226720  46.6194604  69.7744188  95.6372631
  46.0565439  69.3616798  96.1612292  47.3815628  69.6997094  96.0565774
  46.6489053  69.7021589  95.7765631  48.2279584  61.7796925  79.7634230
  48.4675588  61.9874908  78.9509573  48.5495425  60.9754433  79.8723175
  48.3116742  61.6911026  79.6594783  43.5369874  53.7090320  83.6093768
  44.2915842  54.0768637  83.3710818  43.3597409  54.0829875  84.3772948
  43.6224353  53.8188508  83.6878657  42.1790596  71.7642210  88.2409261
  42.8811175  71.2494199  88.2982018  42.0988079  72.0916361  89.0456136
  42.2714356  71.7356436  88.3682053  56.8304773  59.8584761  91.6541308
  55.9933194  59.9286948  91.8888902  56.7993004  59.8609256  90.7815610
  56.7023055  59.8694988  91.5600855  43.2269502  62.0017797  97.3689676
  43.3990006  61.8923691  98.2174958  43.7638860  62.6472202  97.1320868
  43.3314506  62.0809798  97.4594773  41.8926939  56.1160639  80.3071881
  41.7102512  56.3332520  79.4812874  42.7552552  56.2299652  80.3630496
  41.9931528  56.1650537  80.1926368  41.5041371  67.9548562  87.7494869
  42.3430270  68.1871494  87.7968631  41.5353140  67.0852873  87.6801904
  41.6323089  67.8605508  87.7459514  42.1294074  68.3749437  92.0508175
  42.6692299  68.2320568  92.7211547  41.4464020  68.7746188  92.4192201
  42.1086228  68.4129108  92.2042596  47.5726658  53.1187050  83.3420905
  48.3012819  52.9403005  82.8959061  47.6621551  53.9605130  83.5528083
  47.6933320  53.2170928  83.3074423  51.5534959  64.0540437  87.2453199
  52.3092474  64.4871952  87.2842108  51.6597283  63.4045207  87.8187835
  51.6805129  64.0217921  87.3351225  54.5915130  67.8813715  87.9955602
  54.1550362  67.8850457  88.7514573  54.2578045  68.5619214  87.5635179
  54.4777750  67.9826170  88.0436434  49.1644204  69.9222048  99.3198752
  49.9484620  70.0352895  99.6854494  48.9640798  69.0963185  99.5157438
  49.2510229  69.8168767  99.4033138  37.5331219  64.5949728  92.2042596
  37.2669634  63.7788844  92.3633586  37.5469783  64.6402883  91.3338112
  37.4955941  64.4806632  92.0996078  54.5112613  54.9227542  90.2385030
  55.1538521  54.9925647  90.8246945  54.7635634  54.2556765  89.7364572
  54.6434745  54.8353891  90.2512309  41.4388966  59.3934812  78.8194354
  40.7247143  59.1072992  79.2316787  41.9232935  59.7331438  79.4600742
  41.4048329  59.4016462  78.9749989  42.2829825  58.1328106  94.8509604
  41.5901622  57.6625086  95.0970335  42.8990153  57.9066410  95.4251311
  42.2714355  58.0295238  94.9718756  49.3214597  71.8332150  92.9665208
  48.5229843  71.5931650  93.2239076  49.7700608  71.8846542  93.7132255
  49.2689208  71.8054541  93.1150132  57.7259476  64.5994635  86.8875239
  58.3875910  64.0385303  86.7871148  57.0850888  64.1046665  87.2127930
  57.7288344  64.4431044  86.9207579  48.6136284  67.8964766  79.1956162
  49.0287432  67.5649790  78.5040658  47.7828214  67.6633668  79.0676299
  48.5524293  67.8136022  79.0747010  37.9424633  65.3808507  89.4854340
  37.7600206  65.3555393  88.6326633  38.6774302  65.8507445  89.5243249
  38.0238697  65.4469869  89.3652259  54.0124307  65.6160017  86.6287228
  54.2479896  65.7605216  85.8014079  54.1613871  66.3802425  87.0218742
  54.0690110  65.7499071  86.5650832  41.0070384  62.0993510  95.9936449
  41.7310357  62.0846541  96.4801344  41.1086521  62.8088865  95.4958417
  41.1288593  62.2018213  95.9915236  55.8414764  64.4561683  84.4656832
  56.1722981  64.9889323  83.8596927  56.4147852  64.5100571  85.1218783
  55.9748443  64.5431252  84.4734613  48.3815334  65.5792594 100.8585396
  47.5888315  65.8936106 101.0438016  48.4964261  65.7944063 100.0206181
  48.2810744  65.6576431 100.7623731  51.0546653  62.3026586  85.1480412
  51.1493507  63.0415880  85.6020037  50.4305496  61.8744061  85.5814976
  50.9755683  62.3487906  85.2788559  49.3099127  65.4812798  95.7970693
  49.8837988  64.8440042  95.9519257  49.2313930  65.4816881  94.9280350
  49.3832361  65.3877910  95.6917104  37.9095543  62.2602008  89.6353407
  38.4869046  62.1238458  90.2745652  37.2109605  61.8037792  89.8898991
  37.8916564  62.1724274  89.7675697  51.3069674  64.1475325  78.3817364
  51.2249837  64.2177513  79.2472351  51.9449395  64.7105069  78.1901105
  51.3889511  64.2414296  78.4807313  44.6662845  63.9136063  87.8491890
  44.4082090  63.0807798  87.8223190  44.7211328  64.1393676  87.0084391
  44.6362623  63.8233835  87.7212027  49.7463895  56.0164514  87.9495983
  49.0420222  55.5273700  88.1079902  49.7948870  56.0286988  87.0784427
  49.6493947  55.9454162  87.8435323  43.6397557  61.4673826  88.3356785
  43.0647149  61.6265994  88.9720746  43.2633234  60.8309235  87.8725235
  43.5000370  61.3971639  88.3611343  47.3070846  59.9397175  93.1949163
  46.9185279  59.5151393  92.5401355  46.6425544  60.1879325  93.7026190
  47.1517774  59.9135896  93.1737031  56.9494115  59.6972180  85.9696993
  56.6930680  58.8852121  85.7794876  57.7923429  59.7049747  85.7427181
  57.0360141  59.5784177  85.9081811  33.3854376  61.1113901  86.3501226
  33.4714628  60.7345769  87.1314756  34.0130174  60.7374346  85.8721184
  33.4910927  60.9999383  86.3946703  51.1297208  53.6371804  90.7073148
  51.5107719  52.9549975  91.0941022  50.3260492  53.3481406  90.5248812
  51.0673669  53.4938852  90.7377203  48.4109784  64.1695780  81.3925970
  49.2250423  64.4610672  81.2808742  48.3468926  63.5155642  80.8184263
  48.5212523  64.1160974  81.2914808  54.6319274  66.8521776  95.8055546
  54.3957912  66.0209841  95.6867607  55.2762503  66.8007383  96.3910390
  54.6913945  66.7219464  95.8741440  44.2817693  67.6417297  86.5198282
  44.9191639  67.4029045  87.0650076  44.7072764  67.8454456  85.7851443
  44.4393859  67.6368307  86.4915440  38.9730335  69.8805634  90.4032586
  39.0134480  70.1520485  89.5752366  39.5324859  70.4047542  90.8190374
  39.0613681  69.9981389  90.3424474  44.9220508  62.8619587  80.8573172
  45.3065660  62.6427294  81.6089717  44.6732128  63.6882532  80.9874248
  44.9422580  62.9517733  80.9874248  45.0889048  56.1426002 100.5735756
  44.7742489  56.9125565 100.3105319  44.7678981  55.5796258  99.9887983
  44.9947967  56.1736271 100.4477106  55.6555695  66.6366225  91.8683840
  55.3501512  67.3694281  92.2297156  54.9361911  66.2304154  91.5876627
  55.5043037  66.6847958  91.8796978  46.6639164  68.1189720  88.1992069
  46.7378173  67.9564892  89.0533919  47.4808671  68.3079909  87.9552550
  46.7955523  68.1226462  88.2890094  40.4244921  68.4647583  85.2286512
  39.5983039  68.7109320  85.1020791  40.4856912  68.3859663  86.0948570
  40.3119088  68.4892532  85.3375457  42.6420945  54.5316524  86.1881952
  41.7743370  54.6039123  86.2539562  42.9296149  55.3338603  86.3769927
  42.5560693  54.6610671  86.2256719  51.7653834  54.6794383  94.5193274
  52.5107426  54.4904193  94.1056700  51.3491138  55.2052621  93.9607130
  51.8138808  54.7296528  94.3757847  45.2043750  71.0824463  82.9305542
  45.4942049  70.6913444  82.2064769  45.9347231  71.2641168  83.3710817
  45.3550634  71.0518277  82.8888349  59.1416105  62.0503611  89.4698779
  59.6924026  61.4171681  89.7095871  59.1260220  62.5819004  90.1614283
  59.2201301  62.0352560  89.6077637  45.7938495  65.8842209  94.0158673
  45.2950189  66.5957976  94.0943561  46.6038720  66.2042875  93.9776835
  45.8394602  66.0369057  94.0215241  43.1449666  73.0591845  85.9965692
  42.9249961  72.7689200  86.7892359  42.9244188  72.4006800  85.4683604
  43.0797260  72.9191554  86.0354600  42.0566613  65.1465162  88.2621393
  41.7679862  64.5202633  88.7967121  42.9249961  65.0885449  88.3286074
  42.1426865  65.0452706  88.3512348  52.8444511  60.2899945  88.5803375
  52.5009277  59.5690280  88.9310625  52.9437553  60.0813796  87.7381734
  52.8086554  60.1524148  88.5075055  45.3117622  74.4321235  84.7796384
  45.9641680  73.8997677  85.0087410  44.6143230  74.0789887  85.1664258
  45.3048339  74.3010758  84.8708552  42.2598886  66.7860413  84.1863758
  43.0144854  67.1673452  84.3999221  41.6669499  67.2371556  84.6410455
  42.2835600  66.9089240  84.2846637  53.3057540  66.7525649  84.1227363
  53.8715572  67.4118859  84.0385906  52.6585443  67.0975347  84.5943766
  53.2936296  66.9007591  84.1800120  44.7205553  58.7423253  99.3120971
  43.9105329  59.0481033  99.2010813  45.1980240  59.4628835  99.4273555
  44.6709032  58.8937854  99.3128042  43.5797113  67.9568974  89.5603874
  43.0577866  68.0969266  90.2455739  43.9671133  67.1979638  89.7505991
  43.5600814  67.8654498  89.6904950  40.5688297  58.0074783  83.6298829
  40.2813093  57.6376053  82.8930776  41.2558765  58.4769638  83.3682534
  40.6277194  58.0221752  83.4813904  49.7764118  69.6964433  83.5464443
  49.5350794  68.9632294  83.1391508  49.9565451  70.2451290  82.8930776
  49.7671742  69.6686825  83.3894666  45.0063439  64.9872993  84.9585365
  44.8106221  65.5947728  84.3645668  45.2297784  64.2940937  84.4777039
  45.0098080  64.9750519  84.8001446  43.4041969  61.8727731  85.0766233
  44.1264620  62.0368889  84.6170039  42.9249961  62.5937396  84.9705573
  43.4405699  62.0025961  84.9931847  51.3635476  58.2091530  90.4562918
  50.5246577  58.2352809  90.2201181  51.4339843  58.8562265  91.0368265
  51.2503870  58.3087656  90.5072035  41.0549585  64.2785803  94.1820373
  41.5670682  64.5570057  93.5329133  40.7685928  65.0175098  94.5483186
  41.0884448  64.4288157  94.1410251  55.2393000  63.4159517  87.7424160
  55.1526975  63.5714943  88.5958939  54.7843480  64.0597592  87.3683565
  55.1596257  63.5335272  87.8131267  38.1416492  58.7855995  84.4784110
  38.2432628  59.5882157  84.8065085  38.9372378  58.5843331  84.1807190
  38.2744397  58.8741894  84.4819465  44.5733311  56.3712192  94.2421415
  44.3816508  56.3867327  95.0920838  45.4231907  56.5675866  94.2188070
  44.6709033  56.4026543  94.3644710  38.9580224  58.9003174  92.2205231
  38.8165716  58.0487114  92.3449739  39.2420787  58.9431834  91.3967437
  38.9788070  58.7802924  92.1172855  49.1118816  60.7370264  86.3649719
  48.8653530  60.6566015  87.1986508  49.4403939  59.9523732  86.1712247
  49.1240060  60.6096529  86.4597243  53.0066865  67.4453623  90.1536501
  52.8681224  68.1434669  90.6585243  52.2266863  67.2902280  89.7972682
  52.8710092  67.5253790  90.1762775  51.3444950  63.7449998  96.4058882
  51.3392989  62.8729815  96.4101309  52.0505944  63.9438168  95.9328338
  51.4489954  63.6453873  96.3365918  45.0715843  63.4726982  95.7772703
  45.2159219  64.0528191  95.1415813  45.4191492  63.8503279  96.4822557
  45.1443305  63.6147686  95.7871698  47.2435761  62.6717151  93.5597834
  46.4959075  62.8648165  93.1546112  47.3977286  61.8462370  93.3221955
  47.1558188  62.5782262  93.4643240  44.1443598  71.6629754  92.6433729
  44.2933162  71.1032670  91.9907134  44.9243600  71.7421756  93.0266248
  44.2817692  71.5915320  92.6030679  54.5020238  66.8031877  80.9153000
  54.1227046  66.0169015  80.9082289  53.8386483  67.3518734  80.7724644
  54.3478713  66.7676701  80.8933797  46.6696899  71.8344397  93.9218220
  46.5940570  71.1653208  94.4769008  46.5986758  72.5362185  94.4358886
  46.6477506  71.8389304  94.0795068  47.4837538  56.5667701  94.4493238
  47.9410152  57.2991676  94.5766030  47.5593866  56.1434167  95.2080494
  47.5628508  56.6124940  94.5794314  39.7270529  56.8133521  95.5382682
  39.1912718  56.2013879  95.8543449  39.7888294  57.3881657  96.1916348
  39.6566162  56.8080449  95.6818108  47.3267146  70.3545396  84.7541826
  48.0917037  70.0855040  84.4324490  47.2245236  69.8695406  85.4711889
  47.4248641  70.2434961  84.8121654  45.3619916  58.5569805  91.2935062
  44.5715990  58.3761265  91.6152398  45.7580538  57.7796758  91.2765356
  45.3036792  58.4157266  91.3387610  49.8485806  67.3857580  76.7341776
  50.6158792  67.4457705  76.3247627  49.4017115  66.8138021  76.2498094
  49.8959234  67.3094155  76.6019486  50.7463602  66.1912236  89.0194508
  50.0708604  65.9597468  89.5207895  50.7555978  65.5833418  88.3936613
  50.6482106  66.0671161  89.0010660  47.8757746  61.0330064  95.7758561
  47.8116887  61.8940021  95.6478698  48.0154934  60.7162058  94.9754112
  47.8873216  61.1130231  95.6386774  52.7480337  69.0477368  81.2504686
  52.8300174  69.8544354  80.9266137  53.2330079  69.0673327  81.9745459
  52.8317494  69.1698030  81.3091584  46.5576840  63.7262204  89.9174764
  46.1339089  63.9266703  89.1813782  46.3821695  62.8791052  90.0299064
  46.4687720  63.6310985  89.8248454  46.0588533  75.2412717  92.3796221
  46.5484464  74.5423506  92.1971886  45.4872766  74.9436587  92.9672278
  46.0473063  75.0938940  92.4397262  41.8459285  64.2214255  85.3502736
  42.0023904  64.1561058  86.2058728  42.1859878  64.9962808  85.1381416
  41.9192520  64.3263453  85.4457330  48.3838429  63.5972139  84.2196099
  48.9253975  63.0942520  84.6834720  48.6984988  63.5437334  83.4085585
  48.5102826  63.5151560  84.1679912  52.2555537  67.8074786 101.3323012
  53.0690402  67.5359935 101.4928144  52.0950503  67.5082326 100.5283208
  52.3525485  67.7229712 101.2368418  46.5524879  68.9889490  81.5036127
  46.6217699  68.1304029  81.6429128  47.3313334  69.2061371  81.1755152
  46.6777729  68.8942354  81.4753285  49.5327699  58.4908443  94.2718400
  49.7469668  57.8519358  93.7181754  48.9161598  58.9354267  93.8426262
  49.4733028  58.4618587  94.1268831  50.9432367  71.4127192  85.7172621
  50.5512158  71.1093907  84.9995487  51.0985439  72.2496282  85.5277575
  50.9085957  71.4911028  85.5829118  38.4193546  61.4049206  85.6663503
  38.7992511  61.8233751  85.0023771  37.8448911  61.9862661  85.9732347
  38.3904871  61.5527065  85.6140244  51.6966787  60.0997509  95.2101707
  50.8843468  59.7923399  95.2914880  52.1556721  59.6196509  95.7744419
  51.6447172  59.9834001  95.3056301  51.1072041  67.9777181  85.6578651
  50.7486696  68.1491823  86.4342684  50.6210752  68.4390386  85.1006650
  50.9830738  68.0716152  85.6903920  48.9242427  51.6008379  89.2605743
  48.0535985  51.5747100  89.2139052  49.1782769  51.4285571  88.4431588
  48.8335988  51.5718523  89.1325879  45.8960407  63.6576346  78.1978886
  46.1852932  64.4341228  78.4722460  45.9832206  63.1465077  78.8993385
  45.9514663  63.6968264  78.3421384  48.7920294  61.5057580  99.9930409
  49.2619925  62.1299696 100.3798283  48.8382174  60.8374556 100.5523624
  48.8688170  61.4992260 100.1330481  45.9491568  53.6114607  90.7179213
  45.4330056  52.9194799  90.8430792  45.3885497  54.2785384  90.6641812
  45.7898081  53.6077865  90.7285279  48.0183801  54.1507567  92.5472066
  47.6315555  54.1756599  93.3285596  47.5316739  53.5849246  92.0946582
  47.8896310  54.0703318  92.5959969  52.2676781  68.8681076  96.6045852
  52.9056501  68.3741272  96.2708308  51.6250872  68.7958477  96.0198079
  52.2671007  68.7840085  96.4688207  53.9933781  60.7170222  91.1711768
  53.5661389  60.6296571  90.4159867  53.3559834  60.8247998  91.7566612
  53.8363388  60.7202882  91.1457209  47.6840943  51.0374553  94.8382326
  48.3134061  51.5734853  94.5603396  47.8526806  50.9451912  95.6895891
  47.8018738  51.1035915  94.9230854  47.4854858  55.8245748  97.1108737
  48.3128287  55.5530897  97.1667352  47.5062704  56.6206589  97.4672555
  47.6107708  55.9025502  97.1723920  52.3231037  69.5600885  93.2451209
  53.1123416  69.2089949  93.3653291  52.4974635  70.3737273  92.9827843
  52.4651319  69.6286742  93.2239077  42.0624348  62.9709610  90.2978998
  41.2212354  62.8713485  90.5057892  42.2714356  63.7405091  90.6493319
  41.9689040  63.0701654  90.3806313  39.5399915  60.5929147  88.1263749
  39.1456613  60.6672159  87.3513858  38.9840032  60.9787094  88.6772110
  39.4002727  60.6610922  88.0931408  45.8741013  60.8991010  89.5476595
  45.5704150  60.3446998  90.1487003  45.1720433  61.0783220  89.0604630
  45.7257222  60.8435792  89.5646301  44.9307110  58.2091529  84.1121297
  45.2066844  57.4910442  83.6998865  45.5305779  58.8076449  83.9042403
  45.0600374  58.1911900  84.0202058  43.9359364  68.1140730  94.2548693
  43.8279719  68.1242793  95.1210751  44.1455145  68.9395511  94.0653647
  43.9509475  68.2381805  94.3552785  48.4317630  55.8805047  82.3867892
  48.8861377  56.0515607  83.1115737  48.9057676  55.2673158  81.9865668
  48.5685950  55.8155932  82.4341654  41.9533156  65.3653373  91.7170631
  41.3621089  66.0062871  91.6873646  42.7154179  65.7890990  91.6901930
  41.9781416  65.5229211  91.7085778  42.3493778  56.5255371  92.3838648
  42.8095260  56.5994300  93.1213772  42.3949885  57.3236625  92.0338470
  42.4244334  56.6549518  92.4411405  43.9977128  57.1922065  96.9510675
  43.6062693  56.5455413  97.3866453  44.1662991  57.7833501  97.5704931
  43.9648039  57.1836333  97.1073381  58.0723577  65.1959142  92.7147909
  58.1306701  65.6445791  93.4607885  57.4390045  65.6057955  92.2777989
  57.9874872  65.3232877  92.7600457  51.7122672  70.8162684  89.1502655
  51.5142361  71.3053499  88.4558867  51.0910383  71.0203926  89.7286789
  51.5910236  70.9179223  89.1325878  45.7730650  62.5847581  83.4912899
  46.5172695  62.9721857  83.7295849  45.9191346  61.7405007  83.6553387
  45.9041235  62.5178054  83.5506869  47.6910226  54.3797840  88.5244761
  46.8446271  54.5520648  88.3986111  47.6881358  53.5747184  88.8610589
  47.5657376  54.2858869  88.5555888  48.7608526  58.1573054  89.3906819
  48.2868480  57.6314817  89.9012130  49.1326662  57.6102527  88.8221680
  48.7458415  57.9989051  89.3821966  39.1381556  60.1544561  94.7590365
  40.0007169  60.0540270  94.6727694  38.8073339  59.5739270  94.1975937
  39.2166753  60.0536188  94.6635770  55.0245257  63.2175430  90.8013599
  54.7843480  62.3781845  90.8056026  55.5037264  63.2975597  91.5254373
  55.0597440  63.1056830  90.9088402  50.6892026  59.0509609  82.4532573
  50.1615044  59.1338353  81.7638281  51.1487734  59.7927481  82.4497217
  50.6793876  59.1730271  82.3507268  57.0250444  59.9976887  88.7542858
  56.7860214  59.9572722  87.9163643  57.1884345  60.8448039  88.8808580
  57.0140747  60.1168972  88.6496340  53.6296474  64.3826837  94.6847904
  54.3530673  63.9299363  94.5058923  53.3646436  64.6631502  93.9020231
  53.6977747  64.3577805  94.5426619  42.4983342  58.9787010  91.4200783
  41.8736412  58.9905402  90.8126735  42.1628937  59.4547185  92.0692023
  42.3568834  59.0505527  91.4257351  42.6825091  57.3212129  77.4773468
  42.3337895  57.9731854  77.9405017  42.2021537  57.3069242  76.7497339
  42.5595335  57.4155182  77.4384559  39.2109018  67.0387470  92.8604547
  38.6808942  66.3479909  92.9099522  39.4834111  67.0297656  92.0317256
  39.1733740  66.9354602  92.7451963  50.2429108  67.6213173  81.5842230
  50.9663307  68.0871286  81.4406803  49.8029699  67.6886782  80.8339827
  50.2844801  67.6997009  81.4527011  49.4115263  64.4810715  92.8342919
  48.7972256  63.9368765  93.1291554  49.9282548  63.9674951  92.3548735
  49.3970926  64.3247124  92.8067147  48.6511561  65.5514985  90.5687217
  48.2239169  64.9264704  90.1352653  48.6436505  65.2689907  91.3946224
  48.5870702  65.4167766  90.6267045  41.7674088  60.5880158  93.6375651
  41.9267574  59.8323482  94.0427373  41.5866981  61.1371098  94.2916389
  41.7639447  60.5573972  93.7938357  49.7094391  52.7541394  94.1926441
  49.2134952  52.9505068  93.5018007  50.4663453  53.1534062  94.0215242
  49.7481215  52.8419127  94.0646577  46.9797270  56.4283739  90.7829751
  47.0039757  55.8943852  90.0942531  47.2308744  55.9201048  91.4455342
  47.0207189  56.2744643  90.7794396  34.4904860  63.7115234  90.2172895
  34.3848309  63.6662079  89.3524979  33.7405080  64.0569015  90.4987180
  34.3640463  63.7556143  90.1310225  43.2598592  55.1554558  90.1635496
  43.2996964  55.6563764  90.8770203  42.4348257  55.2464951  89.8941419
  43.1438118  55.2436374  90.2286034  45.4428205  64.7215298  98.2655790
  44.5923836  64.8587012  98.4013435  45.6056333  63.9879076  98.7103492
  45.3412069  64.6329399  98.3511389  44.6812956  61.6715068  92.4609395
  43.8504885  61.8388886  92.2544643  44.6264473  61.2951018  93.2458280
  44.5502371  61.6404799  92.5457923  42.4896739  55.1623960  98.0965805
  43.1149442  54.6186093  98.3695238  42.0347219  54.6818878  97.5273596
  42.5145000  55.0113442  98.0527399  43.0549000  59.9470659  82.9899512
  43.1951961  60.4443123  83.6928154  43.5531532  59.2456953  83.1313726
  43.1490081  59.9172638  83.1151091  43.0849222  60.8137770  80.3192089
  43.7194302  61.4098195  80.2541551  43.1674833  60.5141228  81.1337959
  43.1905773  60.8578678  80.4295176  56.0631788  63.3453247  93.1878453
  56.6549628  63.9850498  93.2196651  56.4990782  62.6476284  93.4770520
  56.2150219  63.3371598  93.2359286  44.6628205  56.7451746  80.2937531
  44.9844046  56.2654828  79.6396793  44.9255149  57.5551392  80.1028343
  44.7494230  56.7941643  80.1693023  47.8925178  67.7670620  93.8136347
  47.3850269  68.3206467  94.2576978  47.5951824  67.8278910  92.9955122
  47.7730063  67.8576931  93.7584804  50.0587360  56.1323940  92.6561010
  50.4842431  55.6796466  92.0444537  49.4444353  55.5784010  92.9325798
  50.0316005  55.9837916  92.6066035  39.5902210  63.0105611  83.5881635
  40.0994439  63.6070118  83.9692941  40.0636482  62.7431585  82.9058055
  39.7345586  63.0591426  83.5436158  50.5032958  71.6833878  81.7440291
  49.7862268  71.5094740  81.2787528  51.1539696  71.4486450  81.2115777
  50.4934808  71.6229670  81.5969509  53.0880929  60.5598466  85.4881596
  52.4172119  61.1028168  85.3594661  53.7820679  61.0293321  85.2463291
  53.0909797  60.7096737  85.4337124  47.1367663  72.6995178  90.7193354
  46.9133317  71.9414007  91.0877380  46.6477506  72.7293199  89.9973794
  47.0311112  72.5917403  90.6670095  53.2509057  57.0154350  88.3971969
  53.6036667  56.5884073  89.0717768  52.3923858  56.9305193  88.5273045
  53.1758501  56.9399090  88.5166979  41.9492742  59.6461869  86.4554816
  41.2304731  60.0626002  86.7227679  42.3205104  60.2116108  85.9046454
  41.8984673  59.7911151  86.4137623  51.2492322  60.2789718  92.3456811
  51.2290250  60.0973014  93.1991590  51.2971523  61.1501737  92.3216395
  51.2526963  60.3806257  92.4680106  49.1938652  66.8676910  98.2705288
  49.1534507  66.2226587  97.6850444  50.0061971  66.8113528  98.5830700
  49.3081806  66.7635877  98.2302237  45.7846120  72.9195636  88.1730439
  45.3706518  72.2569766  87.7834280  46.4693494  73.0673495  87.6526133
  45.8244492  72.8436294  88.0386936  49.1511414  72.0785722  88.9254055
  48.7527697  72.1887992  88.1574876  48.5362634  72.2867788  89.5080615
  49.0010303  72.1259290  88.8985355  47.7239316  58.6859869  81.7928195
  47.1304155  59.0076866  81.2412762  47.7614594  57.8400965  81.5849301
  47.6413705  58.6084198  81.6810966  50.5997133  58.6439374  85.2229945
  50.3710826  58.6672075  84.3808303  50.8595209  57.8196841  85.3424956
  50.6043321  58.5255454  85.1155143  44.8816361  60.4973847  94.8255045
  44.3695264  59.8895030  95.1840077  44.7095857  61.2130439  95.2929021
  44.7805998  60.5137146  94.9471269  39.7282076  58.9411422  97.4757407
  39.5584666  59.6012797  96.9305614  39.2848026  59.1517983  98.1969896
  39.6381409  59.0697404  97.5019037  43.6541895  57.1815920  86.5184141
  44.1299261  57.5433000  85.8834322  43.1530495  57.8372388  86.7984284
  43.6507254  57.3310109  86.4660882  56.8853257  66.6537688  82.3097146
  57.2686862  67.4029044  82.5395243  56.0897370  66.9003508  82.0509135
  56.8247039  66.8007382  82.3054719  48.7585431  58.4198092  97.2657301
  49.3156862  58.1911901  96.6335766  48.4346496  59.1803757  96.9892513
  48.7931842  58.4981928  97.1313798  36.6284140  61.8458288  92.7345897
  36.0810860  61.1758933  92.8526765  37.4176518  61.4788136  92.7989364
  36.6636324  61.6923274  92.7614598  46.4768549  61.5065745  98.2309308
  47.2279876  61.8217422  98.5448862  46.6691125  61.3044916  97.4043230
  46.6159963  61.5233127  98.1552704  45.6968548  59.3257120  79.8857525
  46.0767513  59.3436749  79.1008640  44.9561144  59.7711109  79.7648372
  45.6437386  59.3938895  79.7521093  53.3253839  57.6339311  85.4733104
  53.3248065  57.4787968  86.3317380  53.1210019  58.4802298  85.4174489
  53.2953617  57.7359932  85.5921043  35.3871110  61.0579096  89.8891920
  35.2092871  60.6055705  90.6146836  35.0990132  61.8605257  90.0730398
  35.3184063  61.1101653  90.0235423  51.0494691  62.3136813  89.1269310
  51.5448356  61.5959808  89.0873331  50.2394467  62.0107611  89.0123797
  51.0038584  62.1634459  89.1043036  46.4953302  66.1634626  81.2766315
  45.6864625  65.8401300  81.2299624  47.0028211  65.4567848  81.2094564
  46.4502969  66.0115943  81.2596609  37.1243580  63.5906819  87.0013679
  36.2589099  63.5792510  86.8896450  37.2242396  63.4037042  87.8484818
  37.0117747  63.5612881  87.1102624  53.1146510  65.0640500  91.8146439
  53.5401581  64.5414922  91.2616864  52.7503430  65.6621338  91.2935062
  53.1233112  65.0750727  91.6555449  42.7500590  73.3604718  90.5743785
  43.0647148  74.1741106  90.5821566  43.1594003  72.9754937  91.2425944
  42.8568688  73.4233420  90.6747876  49.7025109  68.7774765  88.1447597
  50.1736287  69.4915027  88.3137582  50.0385288  68.1773515  88.6807466
  49.8220224  68.7946229  88.2479973  51.7902094  70.3876078 100.3239669
  51.8999059  69.5984639 100.6796416  52.1192990  70.2982014  99.5214007
  51.8554500  70.2581931 100.2582059  46.6194604  53.5502235  95.1005691
  46.7522510  52.7533229  95.4286667  47.0039757  54.0768638  95.6803967
  46.6950933  53.5102152  95.2349194  50.3399055  68.5692699  94.9075289
  49.7920001  67.9450582  94.6395355  50.8012084  68.7586971  94.1919369
  50.3266265  68.5051749  94.7625720  49.6926959  50.4732561  91.6986785
  48.8872923  50.3630291  92.0154623  49.5633695  50.5745017  90.8416651
  49.5547092  50.4716231  91.6194825  53.1492920  56.6378053  92.2926482
  52.5655909  57.1387260  91.8804049  53.4697214  56.1307610  91.6590805
  53.1106095  56.6369888  92.1384989  45.6887719  55.5518648  82.5685156
  46.5103413  55.7216961  82.3266851  45.2257370  55.7065909  81.8451454
  45.7418881  55.6000381  82.4256801  44.2783051  53.5461410  93.3483585
  44.8227464  53.2052537  93.9387927  44.3319987  54.4046872  93.4904870
  44.3672170  53.6216670  93.4565459  40.0913610  67.3077826  90.2222393
  40.6958467  67.2673661  89.5936214  39.8840922  68.1548978  90.2526449
  40.1502507  67.4265829  90.1338510  49.9057382  69.5743772  91.4384631
  50.7255756  69.4306738  91.7000926  49.6251459  70.1989970  91.9801068
  49.9854125  69.6454124  91.5572570  35.3264892  66.2912444  90.0921316
  35.2289170  65.4808715  90.4011373  36.1093762  66.2704237  89.7067584
  35.4281028  66.1679534  90.0808179  66.3771032  77.2308623  84.4027507
  66.3465037  78.0853260  84.5745776  66.9752381  76.9303916  84.9613650
  66.4608190  77.3125120  84.5102309  59.5770717  76.3184274  89.1580437
  58.7208613  76.4792773  89.2089554  59.6238371  75.4476338  89.1785498
  59.4569828  76.2135076  89.1686503  53.9611857  85.8546992  84.9217669
  53.2094756  85.4762530  84.6933714  54.4097868  85.8865426  84.1736479
  53.9161524  85.8032599  84.7775171  62.8864434  82.5870800  98.7640893
  63.5931201  82.0922831  98.8927828  63.0752369  83.0279881  98.0343551
  63.0192339  82.5789150  98.6749939  59.4136817  86.2772362  80.3503216
  59.0788185  86.9549283  79.9147438  59.9263687  85.8877673  79.7620088
  59.4402398  86.3196940  80.1990007  58.9541108  88.2286630  86.2914328
  59.3380487  88.7973529  85.7519103  58.8900249  87.5036141  85.8120144
  59.0014535  88.2062094  86.1408190  62.4222538  78.3776318  91.8012089
  62.9678498  79.0561405  91.8606059  62.3639414  78.2363779  90.9413670
  62.4938452  78.4568320  91.6824150  55.5396613  85.8665384  87.1880441
  55.6406976  85.0565738  87.4977569  54.9438358  85.7722331  86.5580120
  55.4669152  85.7330412  87.1406680  64.1987607  79.8060925  82.6745817
  64.0827133  80.5568611  83.1037955  64.9943493  79.5484879  82.9241904
  64.2992196  79.8795772  82.7749908  55.3797352  90.7842973  88.5895297
  56.0234808  91.2256137  88.9791456  55.7053608  89.9796400  88.5025556
  55.5229181  90.7308168  88.6340775  48.7361657  81.8885671  86.8132775
  48.5011842  81.0553323  86.7065044  48.8747298  82.1690337  85.9993976
  48.7217320  81.8069174  86.6775130  51.0351745  74.0571401  89.7117083
  50.4156776  73.4664049  89.5427097  50.9335608  74.6482837  89.0781406
  50.9289420  74.0575484  89.5922072  56.0817932  83.7954948  83.9615159
  56.4033773  84.3360156  83.3576467  56.7290029  83.2251720  84.0937449
  56.2243987  83.7914123  83.8922194  58.1319640  75.7970943  84.0449546
  58.8299805  75.9759071  84.5371009  58.4471973  75.2741283  83.4219935
  58.2814977  75.7464715  84.0251556  50.7620878  77.6023683  91.9560652
  50.6379575  78.1886129  92.5910471  51.4139162  77.1083879  92.2572927
  50.8394527  77.6162488  92.0946581  58.3207576  82.1841388  84.0329337
  58.7601211  81.5758489  84.4784110  58.1712239  81.8048762  83.2614802
  58.3629041  82.0379859  83.9848505  55.7879219  80.7785400  91.2348163
  56.4328221  80.2857843  90.9159111  56.0280996  80.9210187  92.0614241
  55.9189804  80.7262842  91.3097696  58.3265310  83.6240306  90.8855055
  58.6088553  82.8291712  90.6641811  59.0551470  84.1020893  90.9060116
  58.4754874  83.5774903  90.8558071  56.3046504  71.1663340  88.1270820
  55.9749834  71.6174483  87.4574519  55.6291506  71.0879503  88.6743827
  56.1556940  71.2214475  88.1094044  61.9216912  80.5368570  80.9860107
  61.8368207  81.3929536  81.1309675  62.4101295  80.2612894  81.6542266
  61.9805809  80.6225891  81.1062188  63.5122912  67.1548863  86.3720431
  63.1976353  67.8452341  86.8040853  62.9949853  67.0993645  85.6705932
  63.3887382  67.2483751  86.3317380  62.8535345  77.1553364  82.4857842
  62.3246817  77.3712997  83.1455148  63.3760365  77.8489502  82.4058811
  62.8523798  77.2896501  82.5713441  68.3083398  82.7299668  87.8590886
  67.4781101  82.9410312  88.0224303  68.2592651  81.9036723  87.5833170
  68.1790134  82.6389274  87.8428252  54.7434953  81.0516581  81.2865310
  54.1592168  81.5566612  81.6931174  54.3405048  80.8258967  80.5461902
  54.5974257  81.0924829  81.2370335  50.2978982  86.7671342  88.0888981
  49.8146560  87.4921831  88.0648565  51.1102300  87.0647472  88.1999139
  50.3469730  86.9173695  88.1016260  56.3693136  85.5603522  90.6938796
  55.8520078  85.2010937  90.0900104  57.0667527  85.0365697  90.7044862
  56.3958717  85.4301210  90.6069054  60.0256728  86.0098336  96.6554969
  60.1140074  85.8224477  97.5033179  60.4546440  85.3635766  96.2559815
  60.1018830  85.8861344  96.7226720  57.5927188  85.2929496  95.6372631
  57.0298022  84.8802106  96.1612292  58.3548211  85.2182402  96.0565774
  57.6221636  85.2206897  95.7765631  59.2012168  77.2982233  79.7634230
  59.4408171  77.5060216  78.9509573  59.5228009  76.4939741  79.8723175
  59.2849326  77.2096334  79.6594783  54.5102458  69.2275628  83.6093768
  55.2648426  69.5953945  83.3710818  54.3329993  69.6015183  84.3772948
  54.5956936  69.3373816  83.6878657  53.1523179  87.2827518  88.2409261
  53.8543758  86.7679507  88.2982018  53.0720662  87.6101669  89.0456136
  53.2446940  87.2541744  88.3682053  67.8037357  75.3770069  91.6541308
  66.9665778  75.4472256  91.8888902  67.7725588  75.3794564  90.7815610
  67.6755639  75.3880296  91.5600855  54.2002086  77.5203104  97.3689676
  54.3722589  77.4108999  98.2174958  54.7371443  78.1657510  97.1320868
  54.3047090  77.5995106  97.4594773  52.8659523  71.6345947  80.3071881
  52.6835096  71.8517828  79.4812874  53.7285136  71.7484960  80.3630496
  52.9664112  71.6835845  80.1926368  52.4773955  83.4733870  87.7494869
  53.3162854  83.7056802  87.7968631  52.5085724  82.6038181  87.6801904
  52.6055672  83.3790816  87.7459514  53.1026658  83.8934745  92.0508175
  53.6424883  83.7505876  92.7211547  52.4196604  84.2931496  92.4192201
  53.0818811  83.9314416  92.2042596  58.5459242  68.6372358  83.3420905
  59.2745402  68.4588313  82.8959061  58.6354135  69.4790438  83.5528083
  58.6665904  68.7356236  83.3074423  62.5267542  79.5725745  87.2453199
  63.2825057  80.0057260  87.2842108  62.6329867  78.9230515  87.8187835
  62.6537713  79.5403229  87.3351225  65.5647714  83.3999023  87.9955602
  65.1282945  83.4035765  88.7514573  65.2310629  84.0804522  87.5635179
  65.4510334  83.5011478  88.0436434  60.1376787  85.4407355  99.3198752
  60.9217204  85.5538203  99.6854494  59.9373382  84.6148493  99.5157438
  60.2242813  85.3354075  99.4033138  48.5063803  80.1135036  92.2042596
  48.2402218  79.2974152  92.3633586  48.5202367  80.1588191  91.3338112
  48.4688525  79.9991940  92.0996078  65.4845196  70.4412850  90.2385030
  66.1271105  70.5110955  90.8246945  65.7368217  69.7742073  89.7364572
  65.6167329  70.3539199  90.2512309  52.4121550  74.9120120  78.8194354
  51.6979727  74.6258299  79.2316787  52.8965518  75.2516746  79.4600742
  52.3780913  74.9201770  78.9749989  53.2562409  73.6513414  94.8509604
  52.5634206  73.1810394  95.0970335  53.8722736  73.4251718  95.4251311
  53.2446939  73.5480546  94.9718756  60.2947181  87.3517457  92.9665208
  59.4962426  87.1116958  93.2239076  60.7433192  87.4031850  93.7132255
  60.2421792  87.3239849  93.1150132  68.6992060  80.1179942  86.8875239
  69.3608494  79.5570611  86.7871148  68.0583472  79.6231973  87.2127930
  68.7020927  79.9616352  86.9207579  59.5868868  83.4150074  79.1956162
  60.0020016  83.0835098  78.5040658  58.7560797  83.1818976  79.0676299
  59.5256876  83.3321330  79.0747010  48.9157216  80.8993815  89.4854340
  48.7332790  80.8740701  88.6326633  49.6506885  81.3692753  89.5243249
  48.9971280  80.9655177  89.3652259  64.9856890  81.1345325  86.6287228
  65.2212480  81.2790524  85.8014079  65.1346454  81.8987733  87.0218742
  65.0422694  81.2684379  86.5650832  51.9802968  77.6178818  95.9936449
  52.7042940  77.6031848  96.4801344  52.0819104  78.3274173  95.4958417
  52.1021177  77.7203521  95.9915236  66.8147347  79.9746991  84.4656832
  67.1455564  80.5074631  83.8596927  67.3880435  80.0285879  85.1218783
  66.9481026  80.0616560  84.4734613  59.3547917  81.0977902 100.8585396
  58.5620898  81.4121414 101.0438016  59.4696844  81.3129371 100.0206181
  59.2543328  81.1761739 100.7623731  62.0279236  77.8211894  85.1480412
  62.1226091  78.5601188  85.6020037  61.4038080  77.3929369  85.5814976
  61.9488266  77.8673214  85.2788559  60.2831710  80.9998106  95.7970693
  60.8570572  80.3625350  95.9519257  60.2046514  81.0002189  94.9280350
  60.3564945  80.9063218  95.6917104  48.8828127  77.7787316  89.6353407
  49.4601629  77.6423766  90.2745652  48.1842188  77.3223100  89.8898991
  48.8649148  77.6909582  89.7675697  62.2802258  79.6660633  78.3817364
  62.1982420  79.7362820  79.2472351  62.9181978  80.2290377  78.1901105
  62.3622095  79.7599604  78.4807313  55.6395429  79.4321371  87.8491890
  55.3814673  78.5993106  87.8223190  55.6943912  79.6578984  87.0084391
  55.6095207  79.3419143  87.7212027  60.7196479  71.5349822  87.9495983
  60.0152806  71.0459007  88.1079902  60.7681453  71.5472296  87.0784427
  60.6226531  71.4639470  87.8435323  54.6130141  76.9859134  88.3356785
  54.0379732  77.1451302  88.9720746  54.2365817  76.3494543  87.8725235
  54.4732953  76.9156947  88.3611343  58.2803430  75.4582483  93.1949163
  57.8917862  75.0336701  92.5401355  57.6158128  75.7064633  93.7026190
  58.1250357  75.4321204  93.1737031  67.9226699  75.2157488  85.9696993
  67.6663264  74.4037429  85.7794876  68.7656013  75.2235055  85.7427181
  68.0092724  75.0969485  85.9081811  44.3586960  76.6299209  86.3501226
  44.4447212  76.2531077  87.1314756  44.9862757  76.2559654  85.8721184
  44.4643511  76.5184691  86.3946703  62.1029791  69.1557112  90.7073148
  62.4840303  68.4735283  91.0941022  61.2993075  68.8666714  90.5248812
  62.0406253  69.0124160  90.7377203  59.3842368  79.6881088  81.3925970
  60.1983007  79.9795980  81.2808742  59.3201509  79.0340950  80.8184263
  59.4945107  79.6346282  81.2914808  65.6051858  82.3707084  95.8055546
  65.3690495  81.5395149  95.6867607  66.2495087  82.3192691  96.3910390
  65.6646529  82.2404772  95.8741440  55.2550276  83.1602605  86.5198282
  55.8924223  82.9214353  87.0650076  55.6805348  83.3639764  85.7851443
  55.4126442  83.1553615  86.4915440  49.9462918  85.3990942  90.4032586
  49.9867064  85.6705793  89.5752366  50.5057443  85.9232850  90.8190374
  50.0346264  85.5166697  90.3424474  55.8953091  78.3804895  80.8573172
  56.2798244  78.1612602  81.6089717  55.6464711  79.2067840  80.9874248
  55.9155164  78.4703041  80.9874248  56.0621632  71.6611310 100.5735756
  55.7475073  72.4310873 100.3105319  55.7411564  71.0981566  99.9887983
  55.9680551  71.6921579 100.4477106  66.6288279  82.1551533  91.8683840
  66.3234096  82.8879589  92.2297156  65.9094494  81.7489462  91.5876627
  66.4775621  82.2033265  91.8796978  57.6371748  83.6375028  88.1992069
  57.7110756  83.4750200  89.0533919  58.4541254  83.8265217  87.9552550
  57.7688107  83.6411770  88.2890094  72.3290071  78.7944533  91.1952185
  72.2614571  78.8140492  90.3254771  72.3145733  79.6374860  91.4207855
  72.3168827  78.9218268  91.1004662  51.3977505  83.9832891  85.2286512
  50.5715622  84.2294628  85.1020791  51.4589496  83.9044971  86.0948570
  51.2851672  84.0077839  85.3375457  53.6153529  70.0501832  86.1881952
  52.7475954  70.1224431  86.2539562  53.9028733  70.8523910  86.3769927
  53.5293277  70.1795979  86.2256719  62.7386417  70.1979691  94.5193274
  63.4840009  70.0089501  94.1056700  62.3223722  70.7237929  93.9607130
  62.7871391  70.2481836  94.3757847  56.1776334  86.6009771  82.9305542
  56.4674632  86.2098752  82.2064769  56.9079815  86.7826476  83.3710817
  56.3283218  86.5703585  82.8888349  70.1148688  77.5688919  89.4698779
  70.6656610  76.9356988  89.7095871  70.0992803  78.1004312  90.1614283
  70.1933884  77.5537868  89.6077637  56.7671079  81.4027517  94.0158673
  56.2682773  82.1143284  94.0943561  57.5771303  81.7228183  93.9776835
  56.8127186  81.5554365  94.0215241  54.1182249  88.5777153  85.9965692
  53.8982545  88.2874508  86.7892359  53.8976771  87.9192108  85.4683604
  54.0529844  88.4376862  86.0354600  53.0299197  80.6650470  88.2621393
  52.7412445  80.0387941  88.7967121  53.8982545  80.6070757  88.3286074
  53.1159448  80.5638014  88.3512348  63.8177094  75.8085253  88.5803375
  63.4741860  75.0875588  88.9310625  63.9170137  75.5999104  87.7381734
  63.7819137  75.6709456  88.5075055  56.2850205  89.9506543  84.7796384
  56.9374263  89.4182985  85.0087410  55.5875814  89.5975195  85.1664258
  56.2780923  89.8196066  84.8708552  53.2331470  82.3045721  84.1863758
  53.9877438  82.6858760  84.3999221  52.6402083  82.7556864  84.6410455
  53.2568184  82.4274548  84.2846637  64.2790123  82.2710957  84.1227363
  64.8448156  82.9304167  84.0385906  63.6318027  82.6160655  84.5943766
  64.2668880  82.4192898  84.1800120  55.6938137  74.2608561  99.3120971
  54.8837913  74.5666341  99.2010813  56.1712824  74.9814143  99.4273555
  55.6441616  74.4123162  99.3128042  54.5529697  83.4754282  89.5603874
  54.0310450  83.6154574  90.2455739  54.9403717  82.7164946  89.7505991
  54.5333397  83.3839806  89.6904950  51.5420881  73.5260091  83.6298829
  51.2545676  73.1561361  82.8930776  52.2291349  73.9954946  83.3682534
  51.6009778  73.5407060  83.4813904  60.7496702  85.2149741  83.5464443
  60.5083377  84.4817602  83.1391508  60.9298034  85.7636598  82.8930776
  60.7404325  85.1872132  83.3894666  55.9796022  80.5058301  84.9585365
  55.7838805  81.1133036  84.3645668  56.2030368  79.8126245  84.4777039
  55.9830663  80.4935827  84.8001446  54.3774552  77.3913039  85.0766233
  55.0997204  77.5554197  84.6170039  53.8982545  78.1122704  84.9705573
  54.4138283  77.5211269  84.9931847  62.3368060  73.7276838  90.4562918
  61.4979160  73.7538117  90.2201181  62.4072427  74.3747573  91.0368265
  62.2236453  73.8272964  90.5072035  52.0282169  79.7971111  94.1820373
  52.5403266  80.0755365  93.5329133  51.7418511  80.5360405  94.5483186
  52.0617032  79.9473465  94.1410251  60.7837338  70.6262215  85.1890534
  61.4863691  70.4269963  84.7110492  60.5181527  69.8538157  85.4959378
  60.8483970  70.4825181  85.1635976  66.2125584  78.9344825  87.7424160
  66.1259558  79.0900251  88.5958939  65.7576064  79.5782900  87.3683565
  66.1328840  79.0520580  87.8131267  49.1149075  74.3041303  84.4784110
  49.2165212  75.1067465  84.8065085  49.9104962  74.1028639  84.1807190
  49.2476981  74.3927202  84.4819465  55.5465894  71.8897500  94.2421415
  55.3549091  71.9052634  95.0920838  56.3964490  72.0861174  94.2188070
  55.6441616  71.9211851  94.3644710  49.9312807  74.4188481  92.2205231
  49.7898299  73.5672422  92.3449739  50.2153371  74.4617142  91.3967437
  49.9520653  74.2988232  92.1172855  60.0851400  76.2555572  86.3649719
  59.8386114  76.1751323  87.1986508  60.4136523  75.4709040  86.1712247
  60.0972643  76.1281837  86.4597243  63.9799448  82.9638931  90.1536501
  63.8413808  83.6619977  90.6585243  63.1999446  82.8087588  89.7972682
  63.8442675  83.0439098  90.1762775  62.3177534  79.2635306  96.4058882
  62.3125572  78.3915123  96.4101309  63.0238527  79.4623476  95.9328338
  62.4222538  79.1639181  96.3365918  56.0448427  78.9912290  95.7772703
  56.1891803  79.5713498  95.1415813  56.3924075  79.3688587  96.4822557
  56.1175888  79.1332994  95.7871698  58.2168344  78.1902459  93.5597834
  57.4691658  78.3833473  93.1546112  58.3709869  77.3647678  93.3221955
  58.1290772  78.0967570  93.4643240  55.1176182  87.1815062  92.6433729
  55.2665746  86.6217978  91.9907134  55.8976184  87.2607064  93.0266248
  55.2550276  87.1100628  92.6030679  65.4752821  82.3217185  80.9153000
  65.0959630  81.5354323  80.9082289  64.8119067  82.8704042  80.7724644
  65.3211296  82.2862009  80.8933797  57.6429483  87.3529705  93.9218220
  57.5673154  86.6838516  94.4769008  57.5719342  88.0547493  94.4358886
  57.6210089  87.3574612  94.0795068  58.4570121  72.0853009  94.4493238
  58.9142735  72.8176984  94.5766030  58.5326450  71.6619475  95.2080494
  58.5361091  72.1310247  94.5794314  50.7003113  72.3318829  95.5382682
  50.1645302  71.7199187  95.8543449  50.7620877  72.9066965  96.1916348
  50.6298745  72.3265757  95.6818108  62.9297447  65.2642885  88.3187081
  63.0481015  65.7219348  87.5854384  62.7559623  64.4588146  88.0323298
  62.9216618  65.2136657  88.1688014  58.2999729  85.8730704  84.7541826
  59.0649621  85.6040348  84.4324490  58.1977819  85.3880714  85.4711889
  58.3981225  85.7620269  84.8121654  56.3352499  74.0755113  91.2935062
  55.5448574  73.8946573  91.6152398  56.7313122  73.2982066  91.2765356
  56.2769375  73.9342574  91.3387610  60.8218390  82.9042888  76.7341776
  61.5891375  82.9643013  76.3247627  60.3749699  82.3323329  76.2498094
  60.8691817  82.8279463  76.6019486  61.7196186  81.7097543  89.0194508
  61.0441187  81.4782776  89.5207895  61.7288562  81.1018726  88.3936613
  61.6214690  81.5856469  89.0010660  58.8490329  76.5515372  95.7758561
  58.7849471  77.4125329  95.6478698  58.9887517  76.2347366  94.9754112
  58.8605800  76.6315539  95.6386774  63.7212920  84.5662676  81.2504686
  63.8032757  85.3729662  80.9266137  64.2062662  84.5858635  81.9745459
  63.8050078  84.6883338  81.3091584  57.5309423  79.2447512  89.9174764
  57.1071672  79.4452011  89.1813782  57.3554279  78.3976360  90.0299064
  57.4420304  79.1496293  89.8248454  57.0321117  90.7598025  92.3796221
  57.5217047  90.0608814  92.1971886  56.4605349  90.4621895  92.9672278
  57.0205647  90.6124248  92.4397262  52.8191868  79.7399563  85.3502736
  52.9756488  79.6746366  86.2058728  53.1592461  80.5148116  85.1381416
  52.8925103  79.8448761  85.4457330  59.3571013  79.1157447  84.2196099
  59.8986558  78.6127828  84.6834720  59.6717572  79.0622641  83.4085585
  59.4835410  79.0336868  84.1679912  63.2288120  83.3260094 101.3323012
  64.0422986  83.0545243 101.4928144  63.0683087  83.0267634 100.5283208
  63.3258069  83.2415020 101.2368418  57.5257463  84.5074798  81.5036127
  57.5950283  83.6489337  81.6429128  58.3045918  84.7246679  81.1755152
  57.6510313  84.4127662  81.4753285  60.5060282  74.0093751  94.2718400
  60.7202252  73.3704665  93.7181754  59.8894182  74.4539575  93.8426262
  60.4465612  73.9803895  94.1268831  61.9164950  86.9312500  85.7172621
  61.5244742  86.6279215  84.9995487  62.0718022  87.7681590  85.5277575
  61.8818540  87.0096336  85.5829118  49.3926130  76.9234514  85.6663503
  49.7725095  77.3419059  85.0023771  48.8181495  77.5047969  85.9732347
  49.3637455  77.0712372  85.6140244  62.6699370  75.6182816  95.2101707
  61.8576052  75.3108707  95.2914880  63.1289305  75.1381817  95.7744419
  62.6179755  75.5019309  95.3056301  62.0804625  83.4962488  85.6578651
  61.7219280  83.6677131  86.4342684  61.5943336  83.9575694  85.1006650
  61.9563322  83.5901460  85.6903920  59.8975011  67.1193687  89.2605743
  59.0268569  67.0932408  89.2139052  60.1515352  66.9470879  88.4431588
  59.8068571  67.0903831  89.1325879  56.8692990  79.1761654  78.1978886
  57.1585515  79.9526536  78.4722460  56.9564789  78.6650385  78.8993385
  56.9247247  79.2153572  78.3421384  59.7652878  77.0242888  99.9930409
  60.2352509  77.6485004 100.3798283  59.8114758  76.3559863 100.5523624
  59.8420754  77.0177568 100.1330481  56.9224151  69.1299915  90.7179213
  56.4062640  68.4380107  90.8430792  56.3618080  69.7970692  90.6641812
  56.7630665  69.1263173  90.7285279  58.9916385  69.6692875  92.5472066
  58.6048138  69.6941907  93.3285596  58.5049322  69.1034554  92.0946582
  58.8628894  69.5888626  92.5959969  63.2409364  84.3866384  96.6045852
  63.8789085  83.8926580  96.2708308  62.5983456  84.3143785  96.0198079
  63.2403591  84.3025393  96.4688207  64.9666364  76.2355530  91.1711768
  64.5393973  76.1481879  90.4159867  64.3292417  76.3433306  91.7566612
  64.8095972  76.2388190  91.1457209  58.6573527  66.5559861  94.8382326
  59.2866645  67.0920161  94.5603396  58.8259389  66.4637220  95.6895891
  58.7751321  66.6221223  94.9230854  58.4587442  71.3431056  97.1108737
  59.2860871  71.0716204  97.1667352  58.4795288  72.1391897  97.4672555
  58.5840292  71.4210810  97.1723920  63.2963621  85.0786193  93.2451209
  64.0855999  84.7275257  93.3653291  63.4707219  85.8922581  92.9827843
  63.4383903  85.1472050  93.2239077  53.0356931  78.4894918  90.2978998
  52.1944938  78.3898793  90.5057892  53.2446939  79.2590399  90.6493319
  52.9421624  78.5886962  90.3806313  50.5132498  76.1114455  88.1263749
  50.1189196  76.1857467  87.3513858  49.9572615  76.4972402  88.6772110
  50.3735311  76.1796230  88.0931408  62.1497445  69.0895749  87.8067627
  62.3547039  69.0218057  88.6524625  61.8223869  69.8954571  87.7388805
  62.1312693  69.1981690  87.9227283  56.8473596  76.4176318  89.5476595
  56.5436734  75.8632306  90.1487003  56.1453017  76.5968528  89.0604630
  56.6989806  76.3621100  89.5646301  55.9039693  73.7276837  84.1121297
  56.1799428  73.0095750  83.6998865  56.5038363  74.3261757  83.9042403
  56.0332958  73.7097208  84.0202058  54.9091947  83.6326038  94.2548693
  54.8012302  83.6428100  95.1210751  55.1187729  84.4580819  94.0653647
  54.9242058  83.7567113  94.3552785  65.4031133  69.6427514  87.2870393
  64.7905446  70.1297916  87.6724125  65.4995308  68.9671004  87.8308044
  65.3269030  69.6145822  87.4249251  59.4050214  71.3990355  82.3867892
  59.8593960  71.5700915  83.1115737  59.8790260  70.7858465  81.9865668
  59.5418534  71.3341240  82.4341654  52.9265739  80.8838681  91.7170631
  52.3353673  81.5248179  91.6873646  53.6886763  81.3076298  91.6901930
  52.9514000  81.0414519  91.7085778  53.3226362  72.0440678  92.3838648
  53.7827844  72.1179608  93.1213772  53.3682469  72.8421933  92.0338470
  53.3976917  72.1734826  92.4411405  54.9709712  72.7107373  96.9510675
  54.5795277  72.0640720  97.3866453  55.1395575  73.3018809  97.5704931
  54.9380622  72.7021641  97.1073381  69.0456161  80.7144450  92.7147909
  69.1039285  81.1631099  93.4607885  68.4122628  81.1243263  92.2777989
  68.9607456  80.8418185  92.7600457  62.6855256  86.3347992  89.1502655
  62.4874944  86.8238807  88.4558867  62.0642967  86.5389234  89.7286789
  62.5642820  86.4364531  89.1325878  56.7463234  78.1032889  83.4912899
  57.4905279  78.4907165  83.7295849  56.8923930  77.2590314  83.6553387
  56.8773819  78.0363362  83.5506869  58.6642809  69.8983148  88.5244761
  57.8178854  70.0705956  88.3986111  58.6613942  69.0932492  88.8610589
  58.5389959  69.8044177  88.5555888  59.7341110  73.6758362  89.3906819
  59.2601064  73.1500124  89.9012130  60.1059246  73.1287835  88.8221680
  59.7190999  73.5174359  89.3821966  50.1114140  75.6729869  94.7590365
  50.9739753  75.5725578  94.6727694  49.7805923  75.0924578  94.1975937
  50.1899336  75.5721496  94.6635770  65.9977840  78.7360738  90.8013599
  65.7576063  77.8967153  90.8056026  66.4769847  78.8160905  91.5254373
  66.0330024  78.6242138  90.9088402  61.6624609  74.5694917  82.4532573
  61.1347628  74.6523661  81.7638281  62.1220318  75.3112788  82.4497217
  61.6526460  74.6915579  82.3507268  67.9983027  75.5162195  88.7542858
  67.7592797  75.4758029  87.9163643  68.1616929  76.3633347  88.8808580
  67.9873331  75.6354280  88.6496340  64.6029057  79.9012145  94.6847904
  65.3263256  79.4484671  94.5058923  64.3379020  80.1816810  93.9020231
  64.6710331  79.8763113  94.5426619  53.4715926  74.4972318  91.4200783
  52.8468996  74.5090710  90.8126735  53.1361521  74.9732493  92.0692023
  53.3301418  74.5690835  91.4257351  53.6557675  72.8397437  77.4773468
  53.3070479  73.4917162  77.9405017  53.1754120  72.8254550  76.7497339
  53.5327918  72.9340490  77.4384559  50.1841601  82.5572778  92.8604547
  49.6541526  81.8665217  92.9099522  50.4566695  82.5482964  92.0317256
  50.1466324  82.4539910  92.7451963  61.2161692  83.1398481  81.5842230
  61.9395891  83.6056594  81.4406803  60.7762283  83.2072090  80.8339827
  61.2577384  83.2182317  81.4527011  60.3847847  79.9996023  92.8342919
  59.7704840  79.4554073  93.1291554  60.9015132  79.4860259  92.3548735
  60.3703509  79.8432432  92.8067147  59.6244144  81.0700293  90.5687217
  59.1971752  80.4450012  90.1352653  59.6169088  80.7875215  91.3946224
  59.5603285  80.9353074  90.6267045  52.7406671  76.1065466  93.6375651
  52.9000158  75.3508790  94.0427373  52.5599565  76.6556405  94.2916389
  52.7372030  76.0759280  93.7938357  60.6826974  68.2726701  94.1926441
  60.1867535  68.4690376  93.5018007  61.4396036  68.6719370  94.0215242
  60.7213799  68.3604435  94.0646577  57.9529854  71.9469047  90.7829751
  57.9772341  71.4129160  90.0942531  58.2041327  71.4386356  91.4455342
  57.9939772  71.7929951  90.7794396  45.4637444  79.2300542  90.2172895
  45.3580893  79.1847387  89.3524979  44.7137664  79.5754323  90.4987180
  45.3373047  79.2741451  90.1310225  54.2331176  70.6739866  90.1635496
  54.2729548  71.1749072  90.8770203  53.4080841  70.7650259  89.8941419
  54.1170702  70.7621682  90.2286034  56.4160789  80.2400606  98.2655790
  55.5656419  80.3772320  98.4013435  56.5788917  79.5064384  98.7103492
  56.3144652  80.1514707  98.3511389  55.6545539  77.1900375  92.4609395
  54.8237469  77.3574193  92.2544643  55.5997057  76.8136326  93.2458280
  55.5234954  77.1590107  92.5457923  53.4629323  70.6809268  98.0965805
  54.0882026  70.1371401  98.3695238  53.0079803  70.2004186  97.5273596
  53.4877583  70.5298750  98.0527399  54.0281583  75.4655967  82.9899512
  54.1684544  75.9628431  83.6928154  54.5264116  74.7642261  83.1313726
  54.1222664  75.4357946  83.1151091  54.0581806  76.3323078  80.3192089
  54.6926885  76.9283503  80.2541551  54.1407416  76.0326536  81.1337959
  54.1638357  76.3763986  80.4295176  67.0364371  78.8638555  93.1878453
  67.6282212  79.5035806  93.2196651  67.4723366  78.1661592  93.4770520
  67.1882803  78.8556906  93.2359286  55.6360788  72.2637053  80.2937531
  55.9576630  71.7840136  79.6396793  55.8987732  73.0736700  80.1028343
  55.7226814  72.3126951  80.1693023  58.8657761  83.2855928  93.8136347
  58.3582852  83.8391775  94.2576978  58.5684407  83.3464218  92.9955122
  58.7462646  83.3762239  93.7584804  61.0319943  71.6509247  92.6561010
  61.4575015  71.1981774  92.0444537  60.4176937  71.0969318  92.9325798
  61.0048589  71.5023224  92.6066035  50.5634794  78.5290919  83.5881635
  51.0727023  79.1255426  83.9692941  51.0369066  78.2616892  82.9058055
  50.7078169  78.5776734  83.5436158  61.4765542  87.2019186  81.7440291
  60.7594851  87.0280048  81.2787528  62.1272279  86.9671758  81.2115777
  61.4667392  87.1414978  81.5969509  59.4714166  68.1224347  86.0651587
  58.8282484  67.9721994  86.6336726  59.1313573  67.8766692  85.3000692
  59.3259244  68.0636470  86.0354602  64.0613513  76.0783774  85.4881596
  63.3904703  76.6213476  85.3594661  64.7553263  76.5478629  85.2463291
  64.0642380  76.2282045  85.4337124  58.1100247  88.2180486  90.7193354
  57.8865901  87.4599315  91.0877380  57.6210090  88.2478507  89.9973794
  58.0043696  88.1102711  90.6670095  64.2241640  72.5339658  88.3971969
  64.5769250  72.1069381  89.0717768  63.3656442  72.4490501  88.5273045
  64.1491085  72.4584398  88.5166979  52.9225325  75.1647177  86.4554816
  52.2037314  75.5811310  86.7227679  53.2937688  75.7301416  85.9046454
  52.8717257  75.3096459  86.4137623  62.2224906  75.7975026  92.3456811
  62.2022833  75.6158321  93.1991590  62.2704107  76.6687045  92.3216395
  62.2259547  75.8991565  92.4680106  60.1671236  82.3862218  98.2705288
  60.1267091  81.7411895  97.6850444  60.9794554  82.3298836  98.5830700
  60.2814389  82.2821185  98.2302237  56.7578703  88.4380944  88.1730439
  56.3439102  87.7755074  87.7834280  57.4426078  88.5858803  87.6526133
  56.7977075  88.3621602  88.0386936  60.1243998  87.5971029  88.9254055
  59.7260281  87.7073300  88.1574876  59.5095217  87.8053096  89.5080615
  59.9742887  87.6444597  88.8985355  58.6971900  74.2045177  81.7928195
  58.1036739  74.5262174  81.2412762  58.7347177  73.3586273  81.5849301
  58.6146289  74.1269506  81.6810966  65.6565700  67.6558070  89.3256282
  65.1496565  66.9487209  89.2577459  66.4533134  67.3251258  89.4557358
  65.6992940  67.5031221  89.3355276  61.5729716  74.1624682  85.2229945
  61.3443409  74.1857383  84.3808303  61.8327792  73.3382149  85.3424956
  61.5775904  74.0440762  85.1155143  55.8548945  76.0159155  94.8255045
  55.3427848  75.4080338  95.1840077  55.6828441  76.7315747  95.2929021
  55.7538582  76.0322454  94.9471269  50.7014659  74.4596730  97.4757407
  50.5317250  75.1198105  96.9305614  50.2580609  74.6703291  98.1969896
  50.6113993  74.5882712  97.5019037  54.6274479  72.7001228  86.5184141
  55.1031845  73.0618308  85.8834322  54.1263078  73.3557696  86.7984284
  54.6239838  72.8495417  86.4660882  67.8585840  82.1722996  82.3097146
  68.2419446  82.9214352  82.5395243  67.0629954  82.4188816  82.0509135
  67.7979622  82.3192690  82.3054719  59.7318015  73.9383399  97.2657301
  60.2889445  73.7097209  96.6335766  59.4079080  74.6989065  96.9892513
  59.7664425  74.0167236  97.1313798  47.6016724  77.3643596  92.7345897
  47.0543443  76.6944241  92.8526765  48.3909102  76.9973444  92.7989364
  47.6368908  77.2108582  92.7614598  57.4501132  77.0251053  98.2309308
  58.2012459  77.3402730  98.5448862  57.6423709  76.8230224  97.4043230
  57.5892546  77.0418435  98.1552704  56.6701132  74.8442428  79.8857525
  57.0500097  74.8622057  79.1008640  55.9293728  75.2896417  79.7648372
  56.6169970  74.9124202  79.7521093  64.2986422  73.1524619  85.4733104
  64.2980649  72.9973276  86.3317380  64.0942602  73.9987606  85.4174489
  64.2686200  73.2545240  85.5921043  46.3603693  76.5764403  89.8891920
  46.1825454  76.1241012  90.6146836  46.0722715  77.3790565  90.0730398
  46.2916646  76.6286961  90.0235423  62.0227274  77.8322121  89.1269310
  62.5180940  77.1145116  89.0873331  61.2127050  77.5292919  89.0123797
  61.9771168  77.6819767  89.1043036  57.4685886  81.6819934  81.2766315
  56.6597209  81.3586608  81.2299624  57.9760795  80.9753156  81.2094564
  57.4235553  81.5301250  81.2596609  48.0976163  79.1092127  87.0013679
  47.2321683  79.0977818  86.8896450  48.1974979  78.9222350  87.8484818
  47.9850330  79.0798188  87.1102624  64.0879093  80.5825808  91.8146439
  64.5134165  80.0600230  91.2616864  63.7236013  81.1806646  91.2935062
  64.0965696  80.5936035  91.6555449  53.7233173  88.8790026  90.5743785
  54.0379732  89.6926414  90.5821566  54.1326586  88.4940245  91.2425944
  53.8301271  88.9418728  90.6747876  60.6757693  84.2960073  88.1447597
  61.1468871  85.0100335  88.3137582  61.0117871  83.6958823  88.6807466
  60.7952808  84.3131537  88.2479973  62.7634677  85.9061386 100.3239669
  62.8731643  85.1169947 100.6796416  63.0925574  85.8167322  99.5214007
  62.8287083  85.7767239 100.2582059  57.5927188  69.0687543  95.1005691
  57.7255093  68.2718537  95.4286667  57.9772340  69.5953946  95.6803967
  57.6683517  69.0287460  95.2349194  61.3131639  84.0878007  94.9075289
  60.7652585  83.4635890  94.6395355  61.7744668  84.2772279  94.1919369
  61.2998849  84.0237057  94.7625720  60.6659543  65.9917869  91.6986785
  59.8605507  65.8815599  92.0154623  60.5366278  66.0930325  90.8416651
  60.5279676  65.9901539  91.6194825  64.1225503  72.1563361  92.2926482
  63.5388492  72.6572568  91.8804049  64.4429797  71.6492917  91.6590805
  64.0838679  72.1555196  92.1384989  56.6620303  71.0703956  82.5685156
  57.4835997  71.2402269  82.3266851  56.1989953  71.2251217  81.8451454
  56.7151465  71.1185689  82.4256801  55.2515634  69.0646718  93.3483585
  55.7960047  68.7237845  93.9387927  55.3052570  69.9232180  93.4904870
  55.3404754  69.1401978  93.4565459  51.0646193  82.8263134  90.2222393
  51.6691051  82.7858968  89.5936214  50.8573506  83.6734286  90.2526449
  51.1235091  82.9451137  90.1338510  60.8789965  85.0929079  91.4384631
  61.6988339  84.9492046  91.7000926  60.5984043  85.7175278  91.9801068
  60.9586709  85.1639431  91.5572570  46.2997476  81.8097752  90.0921316
  46.2021754  80.9994023  90.4011373  47.0826345  81.7889545  89.7067584
  46.4013612  81.6864842  90.0808179  77.3503616  92.7493931  84.4027507
  77.3197620  93.6038568  84.5745776  77.9484964  92.4489224  84.9613650
  77.4340774  92.8310428  84.5102309  70.5503301  91.8369582  89.1580437
  69.6941196  91.9978080  89.2089554  70.5970954  90.9661646  89.1785498
  70.4302412  91.7320384  89.1686503  64.9344440 101.3732300  84.9217669
  64.1827340 100.9947838  84.6933714  65.3830452 101.4050734  84.1736479
  64.8894107 101.3217907  84.7775171  73.8597017  98.1056108  98.7640893
  74.5663784  97.6108139  98.8927828  74.0484953  98.5465189  98.0343551
  73.9924923  98.0974458  98.6749939  70.3869400 101.7957670  80.3503216
  70.0520769 102.4734591  79.9147438  70.8996271 101.4062981  79.7620088
  70.4134981 101.8382248  80.1990007  69.9273691 103.7471938  86.2914328
  70.3113071 104.3158837  85.7519103  69.8632833 103.0221449  85.8120144
  69.9747119 103.7247402  86.1408190  73.3955122  93.8961626  91.8012089
  73.9411082  94.5746713  91.8606059  73.3371998  93.7549087  90.9413670
  73.4671036  93.9753628  91.6824150  66.5129196 101.3850692  87.1880441
  66.6139559 100.5751046  87.4977569  65.9170942 101.2907639  86.5580120
  66.4401735 101.2515720  87.1406680  75.1720190  95.3246233  82.6745817
  75.0559716  96.0753919  83.1037955  75.9676077  95.0670186  82.9241904
  75.2724780  95.3981080  82.7749908  66.3529936 106.3028281  88.5895297
  66.9967392 106.7441445  88.9791456  66.6786192 105.4981708  88.5025556
  66.4961765 106.2493476  88.6340775  59.7094241  97.4070979  86.8132775
  59.4744425  96.5738631  86.7065044  59.8479881  97.6875644  85.9993976
  59.6949903  97.3254482  86.6775130  62.0084328  89.5756709  89.7117083
  61.3889360  88.9849357  89.5427097  61.9068192  90.1668145  89.0781406
  61.9022004  89.5760792  89.5922072  67.0550516  99.3140256  83.9615159
  67.3766357  99.8545464  83.3576467  67.7022612  98.7437028  84.0937449
  67.1976571  99.3099431  83.8922194  69.1052224  91.3156251  84.0449546
  69.8032389  91.4944379  84.5371009  69.4204556  90.7926591  83.4219935
  69.2547561  91.2650023  84.0251556  61.7353461  93.1208991  91.9560652
  61.6112158  93.7071437  92.5910471  62.3871746  92.6269187  92.2572927
  61.8127111  93.1347796  92.0946581  69.2940159  97.7026696  84.0329337
  69.7333795  97.0943797  84.4784110  69.1444822  97.3234070  83.2614802
  69.3361625  97.5565167  83.9848505  66.7611802  96.2970708  91.2348163
  67.4060805  95.8043151  90.9159111  67.0013579  96.4395495  92.0614241
  66.8922387  96.2448150  91.3097696  69.2997894  99.1425614  90.8855055
  69.5821136  98.3477020  90.6641811  70.0284054  99.6206201  90.9060116
  69.4487457  99.0960211  90.8558071  67.2779087  86.6848648  88.1270820
  66.9482417  87.1359791  87.4574519  66.6024089  86.6064811  88.6743827
  67.1289524  86.7399783  88.1094044  72.8949496  96.0553877  80.9860107
  72.8100791  96.9114844  81.1309675  73.3833879  95.7798202  81.6542266
  72.9538393  96.1411199  81.1062188  74.4855495  82.6734171  86.3720431
  74.1708936  83.3637649  86.8040853  73.9682437  82.6178953  85.6705932
  74.3619966  82.7669059  86.3317380  73.8267929  92.6738672  82.4857842
  73.2979400  92.8898305  83.1455148  74.3492949  93.3674810  82.4058811
  73.8256382  92.8081809  82.5713441  79.2815982  98.2484976  87.8590886
  78.4513685  98.4595620  88.0224303  79.2325234  97.4222031  87.5833170
  79.1522717  98.1574582  87.8428252  65.7167537  96.5701888  81.2865310
  65.1324752  97.0751920  81.6931174  65.3137632  96.3444275  80.5461902
  65.5706841  96.6110137  81.2370335  61.2711565 102.2856650  88.0888981
  60.7879144 103.0107139  88.0648565  62.0834884 102.5832780  88.1999139
  61.3202313 102.4359003  88.1016260  67.3425719 101.0788830  90.6938796
  66.8252661 100.7196245  90.0900104  68.0400111 100.5551005  90.7044862
  67.3691301 100.9486518  90.6069054  70.9989311 101.5283644  96.6554969
  71.0872657 101.3409785  97.5033179  71.4279024 100.8821074  96.2559815
  71.0751414 101.4046652  96.7226720  68.5659771 100.8114804  95.6372631
  68.0030606 100.3987414  96.1612292  69.3280795 100.7367710  96.0565774
  68.5954220 100.7392205  95.7765631  70.1744751  92.8167541  79.7634230
  70.4140755  93.0245524  78.9509573  70.4960592  92.0125049  79.8723175
  70.2581909  92.7281642  79.6594783  65.4835041  84.7460936  83.6093768
  66.2381010  85.1139253  83.3710818  65.3062576  85.1200491  84.3772948
  65.5689520  84.8559124  83.6878657  64.1255763 102.8012825  88.2409261
  64.8276342 102.2864815  88.2982018  64.0453246 103.1286977  89.0456136
  64.2179523 102.7727052  88.3682053  78.7769940  90.8955377  91.6541308
  77.9398361  90.9657564  91.8888902  78.7458171  90.8979872  90.7815610
  78.6488223  90.9065604  91.5600855  65.1734669  93.0388412  97.3689676
  65.3455173  92.9294307  98.2174958  65.7104027  93.6842818  97.1320868
  65.2779673  93.1180414  97.4594773  63.8392106  87.1531255  80.3071881
  63.6567679  87.3703136  79.4812874  64.7017719  87.2670268  80.3630496
  63.9396696  87.2021153  80.1926368  63.4506538  98.9919177  87.7494869
  64.2895438  99.2242110  87.7968631  63.4818307  98.1223489  87.6801904
  63.5788256  98.8976124  87.7459514  64.0759241  99.4120053  92.0508175
  64.6157466  99.2691184  92.7211547  63.3929187  99.8116803  92.4192201
  64.0551395  99.4499724  92.2042596  69.5191825  84.1557666  83.3420905
  70.2477986  83.9773621  82.8959061  69.6086718  84.9975746  83.5528083
  69.6398487  84.2541544  83.3074423  73.5000126  95.0911053  87.2453199
  74.2557641  95.5242568  87.2842108  73.6062450  94.4415823  87.8187835
  73.6270297  95.0588537  87.3351225  76.5380297  98.9184331  87.9955602
  76.1015529  98.9221073  88.7514573  76.2043213  99.5989830  87.5635179
  76.4242917  99.0196786  88.0436434  71.1109371 100.9592663  99.3198752
  71.8949787 101.0723511  99.6854494  70.9105965 100.1333800  99.5157438
  71.1975396 100.8539383  99.4033138  59.4796386  95.6320343  92.2042596
  59.2134801  94.8159460  92.3633586  59.4934950  95.6773499  91.3338112
  59.4421109  95.5177248  92.0996078  76.4577780  85.9598158  90.2385030
  77.1003688  86.0296263  90.8246945  76.7100801  85.2927381  89.7364572
  76.5899912  85.8724507  90.2512309  63.3854133  90.4305428  78.8194354
  62.6712310  90.1443607  79.2316787  63.8698102  90.7702054  79.4600742
  63.3513496  90.4387078  78.9749989  64.2294993  89.1698722  94.8509604
  63.5366789  88.6995701  95.0970335  64.8455320  88.9437026  95.4251311
  64.2179523  89.0665854  94.9718756  71.2679764 102.8702765  92.9665208
  70.4695010 102.6302265  93.2239076  71.7165776 102.9217158  93.7132255
  71.2154375 102.8425157  93.1150132  79.6724643  95.6365250  86.8875239
  80.3341077  95.0755919  86.7871148  79.0316055  95.1417281  87.2127930
  79.6753511  95.4801659  86.9207579  70.5601451  98.9335382  79.1956162
  70.9752600  98.6020406  78.5040658  69.7293381  98.7004284  79.0676299
  70.4989460  98.8506638  79.0747010  59.8889800  96.4179123  89.4854340
  59.7065373  96.3926009  88.6326633  60.6239469  96.8878061  89.5243249
  59.9703864  96.4840485  89.3652259  75.9589474  96.6530633  86.6287228
  76.1945063  96.7975832  85.8014079  76.1079038  97.4173041  87.0218742
  76.0155277  96.7869687  86.5650832  62.9535552  93.1364126  95.9936449
  63.6775524  93.1217156  96.4801344  63.0551688  93.8459481  95.4958417
  63.0753761  93.2388829  95.9915236  77.7879931  95.4932299  84.4656832
  78.1188148  96.0259939  83.8596927  78.3613019  95.5471187  85.1218783
  77.9213610  95.5801868  84.4734613  70.3280501  96.6163210 100.8585396
  69.5353482  96.9306722 101.0438016  70.4429428  96.8314679 100.0206181
  70.2275911  96.6947047 100.7623731  73.0011820  93.3397201  85.1480412
  73.0958674  94.0786496  85.6020037  72.3770663  92.9114677  85.5814976
  72.9220850  93.3858522  85.2788559  71.2564294  96.5183414  95.7970693
  71.8303155  95.8810658  95.9519257  71.1779097  96.5187497  94.9280350
  71.3297529  96.4248525  95.6917104  59.8560710  93.2972624  89.6353407
  60.4334213  93.1609074  90.2745652  59.1574772  92.8408408  89.8898991
  59.8381732  93.2094890  89.7675697  73.2534841  95.1845941  78.3817364
  73.1715004  95.2548128  79.2472351  73.8914562  95.7475685  78.1901105
  73.3354679  95.2784912  78.4807313  66.6128012  94.9506679  87.8491890
  66.3547257  94.1178414  87.8223190  66.6676495  95.1764292  87.0084391
  66.5827790  94.8604450  87.7212027  71.6929063  87.0535130  87.9495983
  70.9885389  86.5644315  88.1079902  71.7414037  87.0657604  87.0784427
  71.5959114  86.9824778  87.8435323  65.5862725  92.5044442  88.3356785
  65.0112316  92.6636610  88.9720746  65.2098401  91.8679851  87.8725235
  65.4465537  92.4342255  88.3611343  69.2536013  90.9767791  93.1949163
  68.8650446  90.5522009  92.5401355  68.5890712  91.2249941  93.7026190
  69.0982941  90.9506512  93.1737031  78.8959282  90.7342796  85.9696993
  78.6395847  89.9222737  85.7794876  79.7388596  90.7420363  85.7427181
  78.9825308  90.6154793  85.9081811  55.3319543  92.1484516  86.3501226
  55.4179795  91.7716385  87.1314756  55.9595341  91.7744962  85.8721184
  55.4376094  92.0369999  86.3946703  73.0762375  84.6742420  90.7073148
  73.4572886  83.9920591  91.0941022  72.2725659  84.3852022  90.5248812
  73.0138836  84.5309468  90.7377203  70.3574951  95.2066396  81.3925970
  71.1715590  95.4981288  81.2808742  70.2934093  94.5526258  80.8184263
  70.4677690  95.1531590  81.2914808  76.5784442  97.8892392  95.8055546
  76.3423079  97.0580456  95.6867607  77.2227671  97.8377999  96.3910390
  76.6379112  97.7590080  95.8741440  66.2282860  98.6787913  86.5198282
  66.8656807  98.4399661  87.0650076  66.6537931  98.8825072  85.7851443
  66.3859026  98.6738923  86.4915440  60.9195502 100.9176250  90.4032586
  60.9599647 101.1891101  89.5752366  61.4790026 101.4418158  90.8190374
  61.0078848 101.0352005  90.3424474  66.8685675  93.8990203  80.8573172
  67.2530827  93.6797909  81.6089717  66.6197295  94.7253148  80.9874248
  66.8887747  93.9888349  80.9874248  67.0354215  87.1796618 100.5735756
  66.7207656  87.9496181 100.3105319  66.7144148  86.6166874  99.9887983
  66.9413134  87.2106887 100.4477106  77.6020862  97.6736840  91.8683840
  77.2966679  98.4064897  92.2297156  76.8827078  97.2674770  91.5876627
  77.4508205  97.7218573  91.8796978  68.6104332  99.1560336  88.1992069
  68.6843340  98.9935507  89.0533919  69.4273838  99.3450525  87.9552550
  68.7420690  99.1597078  88.2890094  83.3022654  94.3129841  91.1952185
  83.2347155  94.3325800  90.3254771  83.2878317  95.1560168  91.4207855
  83.2901411  94.4403576  91.1004662  62.3710088  99.5018198  85.2286512
  61.5448206  99.7479936  85.1020791  62.4322080  99.4230279  86.0948570
  62.2584255  99.5263147  85.3375457  64.5886112  85.5687139  86.1881952
  63.7208538  85.6409739  86.2539562  64.8761316  86.3709218  86.3769927
  64.5025860  85.6981287  86.2256719  73.7119001  85.7164999  94.5193274
  74.4572593  85.5274809  94.1056700  73.2956305  86.2423237  93.9607130
  73.7603975  85.7667144  94.3757847  67.1508917 102.1195079  82.9305542
  67.4407216 101.7284060  82.2064769  67.8812398 102.3011784  83.3710817
  67.3015802 102.0888892  82.8888349  81.0881272  93.0874227  89.4698779
  81.6389193  92.4542296  89.7095871  81.0725387  93.6189620  90.1614283
  81.1666468  93.0723175  89.6077637  67.7403663  96.9212825  94.0158673
  67.2415356  97.6328592  94.0943561  68.5503887  97.2413491  93.9776835
  67.7859769  97.0739673  94.0215241  65.0914833 104.0962461  85.9965692
  64.8715128 103.8059816  86.7892359  64.8709355 103.4377416  85.4683604
  65.0262427 103.9562169  86.0354600  64.0031780  96.1835778  88.2621393
  63.7145029  95.5573249  88.7967121  64.8715128  96.1256065  88.3286074
  64.0892032  96.0823322  88.3512348  74.7909678  91.3270561  88.5803375
  74.4474444  90.6060896  88.9310625  74.8902720  91.1184412  87.7381734
  74.7551721  91.1894764  88.5075055  67.2582789 105.4691851  84.7796384
  67.9106847 104.9368293  85.0087410  66.5608397 105.1160503  85.1664258
  67.2513507 105.3381374  84.8708552  64.2064053  97.8231029  84.1863758
  64.9610021  98.2044068  84.3999221  63.6134666  98.2742172  84.6410455
  64.2300767  97.9459856  84.2846637  75.2522707  97.7896265  84.1227363
  75.8180740  98.4489475  84.0385906  74.6050610  98.1345963  84.5943766
  75.2401463  97.9378206  84.1800120  66.6670721  89.7793869  99.3120971
  65.8570496  90.0851649  99.2010813  67.1445407  90.4999451  99.4273555
  66.6174199  89.9308470  99.3128042  65.5262280  98.9939590  89.5603874
  65.0043034  99.1339882  90.2455739  65.9136300  98.2350254  89.7505991
  65.5065981  98.9025114  89.6904950  62.5153464  89.0445399  83.6298829
  62.2278260  88.6746669  82.8930776  63.2023932  89.5140254  83.3682534
  62.5742361  89.0592368  83.4813904  71.7229285 100.7335049  83.5464443
  71.4815961 100.0002910  83.1391508  71.9030618 101.2821906  82.8930776
  71.7136909 100.7057440  83.3894666  66.9528606  96.0243609  84.9585365
  66.7571388  96.6318344  84.3645668  67.1762951  95.3311553  84.4777039
  66.9563247  96.0121135  84.8001446  65.3507136  92.9098347  85.0766233
  66.0729788  93.0739505  84.6170039  64.8715129  93.6308012  84.9705573
  65.3870866  93.0396577  84.9931847  73.3100643  89.2462146  90.4562918
  72.4711744  89.2723425  90.2201181  73.3805011  89.8932881  91.0368265
  73.1969037  89.3458272  90.5072035  63.0014752  95.3156419  94.1820373
  63.5135849  95.5940673  93.5329133  62.7151095  96.0545713  94.5483186
  63.0349616  95.4658773  94.1410251  71.7569922  86.1447523  85.1890534
  72.4596274  85.9455271  84.7110492  71.4914110  85.3723465  85.4959378
  71.8216554  86.0010489  85.1635976  77.1858167  94.4530133  87.7424160
  77.0992142  94.6085559  88.5958939  76.7308647  95.0968208  87.3683565
  77.1061424  94.5705888  87.8131267  60.0881659  89.8226611  84.4784110
  60.1897795  90.6252773  84.8065085  60.8837545  89.6213947  84.1807190
  60.2209564  89.9112510  84.4819465  66.5198478  87.4082808  94.2421415
  66.3281675  87.4237942  95.0920838  67.3697074  87.6046482  94.2188070
  66.6174200  87.4397159  94.3644710  60.9045391  89.9373789  92.2205231
  60.7630883  89.0857730  92.3449739  61.1885954  89.9802450  91.3967437
  60.9253237  89.8173539  92.1172855  71.0583983  91.7740880  86.3649719
  70.8118697  91.6936631  87.1986508  71.3869106  90.9894347  86.1712247
  71.0705227  91.6467145  86.4597243  74.9532032  98.4824239  90.1536501
  74.8146391  99.1805285  90.6585243  74.1732030  98.3272895  89.7972682
  74.8175259  98.5624406  90.1762775  73.2910117  94.7820614  96.4058882
  73.2858156  93.9100431  96.4101309  73.9971111  94.9808783  95.9328338
  73.3955121  94.6824488  96.3365918  67.0181010  94.5097598  95.7772703
  67.1624386  95.0898806  95.1415813  67.3656659  94.8873895  96.4822557
  67.0908472  94.6518302  95.7871698  69.1900928  93.7087767  93.5597834
  68.4424242  93.9018781  93.1546112  69.3442453  92.8832986  93.3221955
  69.1023355  93.6152878  93.4643240  66.0908765 102.7000370  92.6433729
  66.2398329 102.1403286  91.9907134  66.8708768 102.7792372  93.0266248
  66.2282859 102.6285936  92.6030679  76.4485405  97.8402493  80.9153000
  76.0692214  97.0539631  80.9082289  75.7851650  98.3889350  80.7724644
  76.2943880  97.8047317  80.8933797  68.6162066 102.8715013  93.9218220
  68.5405737 102.2023823  94.4769008  68.5451925 103.5732801  94.4358886
  68.5942673 102.8759920  94.0795068  69.4302705  87.6038317  94.4493238
  69.8875319  88.3362292  94.5766030  69.5059034  87.1804783  95.2080494
  69.5093675  87.6495555  94.5794314  61.6735696  87.8504137  95.5382682
  61.1377886  87.2384495  95.8543449  61.7353461  88.4252273  96.1916348
  61.6031329  87.8451065  95.6818108  73.9030031  80.7828193  88.3187081
  74.0213599  81.2404656  87.5854384  73.7292207  79.9773454  88.0323298
  73.8949202  80.7321965  88.1688014  69.2732313 101.3916012  84.7541826
  70.0382204 101.1225656  84.4324490  69.1710403 100.9066022  85.4711889
  69.3713809 101.2805576  84.8121654  67.3085083  89.5940421  91.2935062
  66.5181158  89.4131881  91.6152398  67.7045706  88.8167374  91.2765356
  67.2501959  89.4527882  91.3387610  71.7950974  98.4228196  76.7341776
  72.5623959  98.4828321  76.3247627  71.3482283  97.8508637  76.2498094
  71.8424401  98.3464771  76.6019486  72.6928769  97.2282851  89.0194508
  72.0173771  96.9968084  89.5207895  72.7021145  96.6204034  88.3936613
  72.5947274  97.1041777  89.0010660  69.8222913  92.0700680  95.7758561
  69.7582054  92.9310637  95.6478698  69.9620101  91.7532674  94.9754112
  69.8338383  92.1500847  95.6386774  74.6945504 100.0847984  81.2504686
  74.7765341 100.8914970  80.9266137  75.1795246 100.1043943  81.9745459
  74.7782662 100.2068646  81.3091584  68.5042007  94.7632820  89.9174764
  68.0804256  94.9637319  89.1813782  68.3286862  93.9161668  90.0299064
  68.4152888  94.6681601  89.8248454  68.0053700 106.2783333  92.3796221
  68.4949631 105.5794122  92.1971886  67.4337933 105.9807203  92.9672278
  67.9938230 106.1309556  92.4397262  63.7924452  95.2584871  85.3502736
  63.9489071  95.1931674  86.2058728  64.1325045  96.0333424  85.1381416
  63.8657687  95.3634069  85.4457330  70.3303597  94.6342755  84.2196099
  70.8719142  94.1313136  84.6834720  70.6450156  94.5807949  83.4085585
  70.4567994  94.5522176  84.1679912  74.2020704  98.8445402 101.3323012
  75.0155569  98.5730551 101.4928144  74.0415670  98.5452942 100.5283208
  74.2990652  98.7600328 101.2368418  68.4990046 100.0260106  81.5036127
  68.5682867  99.1674645  81.6429128  69.2778501 100.2431987  81.1755152
  68.6242896  99.9312970  81.4753285  71.4792866  89.5279059  94.2718400
  71.6934835  88.8889973  93.7181754  70.8626765  89.9724883  93.8426262
  71.4198195  89.4989203  94.1268831  72.8897534 102.4497808  85.7172621
  72.4977326 102.1464523  84.9995487  73.0450606 103.2866897  85.5277575
  72.8551124 102.5281644  85.5829118  60.3658713  92.4419822  85.6663503
  60.7457678  92.8604367  85.0023771  59.7914078  93.0233277  85.9732347
  60.3370038  92.5897680  85.6140244  73.6431954  91.1368124  95.2101707
  72.8308636  90.8294015  95.2914880  74.1021889  90.6567125  95.7744419
  73.5912339  91.0204617  95.3056301  73.0537209  99.0147796  85.6578651
  72.6951863  99.1862439  86.4342684  72.5675919  99.4761002  85.1006650
  72.9295906  99.1086767  85.6903920  70.8707595  82.6378995  89.2605743
  70.0001153  82.6117716  89.2139052  71.1247936  82.4656187  88.4431588
  70.7801155  82.6089139  89.1325879  67.8425574  94.6946962  78.1978886
  68.1318099  95.4711844  78.4722460  67.9297373  94.1835693  78.8993385
  67.8979830  94.7338880  78.3421384  70.7385461  92.5428196  99.9930409
  71.2085093  93.1670312 100.3798283  70.7847342  91.8745171 100.5523624
  70.8153337  92.5362876 100.1330481  67.8956735  84.6485223  90.7179213
  67.3795224  83.9565415  90.8430792  67.3350664  85.3156000  90.6641812
  67.7363248  84.6448481  90.7285279  69.9648969  85.1878183  92.5472066
  69.5780722  85.2127215  93.3285596  69.4781906  84.6219862  92.0946582
  69.8361477  85.1073934  92.5959969  74.2141948  99.9051692  96.6045852
  74.8521668  99.4111888  96.2708308  73.5716040  99.8329093  96.0198079
  74.2136174  99.8210701  96.4688207  75.9398948  91.7540838  91.1711768
  75.5126556  91.6667187  90.4159867  75.3025001  91.8618614  91.7566612
  75.7828555  91.7573498  91.1457209  69.6306110  82.0745169  94.8382326
  70.2599228  82.6105469  94.5603396  69.7991973  81.9822528  95.6895891
  69.7483905  82.1406531  94.9230854  69.4320025  86.8616364  97.1108737
  70.2593454  86.5901512  97.1667352  69.4527871  87.6577205  97.4672555
  69.5572875  86.9396118  97.1723920  74.2696205 100.5971501  93.2451209
  75.0588583 100.2460565  93.3653291  74.4439802 101.4107889  92.9827843
  74.4116486 100.6657358  93.2239077  64.0089515  94.0080226  90.2978998
  63.1677522  93.9084101  90.5057892  64.2179523  94.7775707  90.6493319
  63.9154208  94.1072270  90.3806313  61.4865082  91.6299763  88.1263749
  61.0921780  91.7042775  87.3513858  60.9305199  92.0157710  88.6772110
  61.3467894  91.6981538  88.0931408  73.1230029  84.6081057  87.8067627
  73.3279622  84.5403365  88.6524625  72.7956453  85.4139879  87.7388805
  73.1045277  84.7166998  87.9227283  67.8206180  91.9361626  89.5476595
  67.5169317  91.3817614  90.1487003  67.1185601  92.1153836  89.0604630
  67.6722390  91.8806408  89.5646301  66.8772277  89.2462145  84.1121297
  67.1532011  88.5281058  83.6998865  67.4770946  89.8447065  83.9042403
  67.0065542  89.2282516  84.0202058  65.8824531  99.1511346  94.2548693
  65.7744886  99.1613408  95.1210751  66.0920312  99.9766127  94.0653647
  65.8974642  99.2752421  94.3552785  76.3763716  85.1612822  87.2870393
  75.7638030  85.6483224  87.6724125  76.4727891  84.4856312  87.8308044
  76.3001614  85.1331130  87.4249251  70.3782797  86.9175663  82.3867892
  70.8326544  87.0886223  83.1115737  70.8522843  86.3043773  81.9865668
  70.5151118  86.8526548  82.4341654  63.8998323  96.4023989  91.7170631
  63.3086256  97.0433487  91.6873646  64.6619346  96.8261606  91.6901930
  63.9246583  96.5599827  91.7085778  64.2958946  87.5625986  92.3838648
  64.7560427  87.6364916  93.1213772  64.3415052  88.3607240  92.0338470
  64.3709501  87.6920133  92.4411405  65.9442295  88.2292681  96.9510675
  65.5527861  87.5826028  97.3866453  66.1128158  88.8204117  97.5704931
  65.9113206  88.2206949  97.1073381  80.0188744  96.2329758  92.7147909
  80.0771868  96.6816407  93.4607885  79.3855212  96.6428571  92.2777989
  79.9340040  96.3603493  92.7600457  73.6587839 101.8533300  89.1502655
  73.4607528 102.3424115  88.4558867  73.0375550 102.0574542  89.7286789
  73.5375404 101.9549838  89.1325878  67.7195817  93.6218197  83.4912899
  68.4637862  94.0092473  83.7295849  67.8656514  92.7775622  83.6553387
  67.8506403  93.5548670  83.5506869  69.6375393  85.4168456  88.5244761
  68.7911438  85.5891264  88.3986111  69.6346525  84.6117800  88.8610589
  69.5122543  85.3229485  88.5555888  70.7073693  89.1943670  89.3906819
  70.2333648  88.6685432  89.9012130  71.0791829  88.6473143  88.8221680
  70.6923582  89.0359667  89.3821966  61.0846723  91.1915177  94.7590365
  61.9472336  91.0910886  94.6727694  60.7538506  90.6109886  94.1975937
  61.1631920  91.0906804  94.6635770  76.9710424  94.2546046  90.8013599
  76.7308647  93.4152461  90.8056026  77.4502431  94.3346213  91.5254373
  77.0062608  94.1427446  90.9088402  72.6357193  90.0880225  82.4532573
  72.1080212  90.1708969  81.7638281  73.0952901  90.8298096  82.4497217
  72.6259043  90.2100887  82.3507268  78.9715611  91.0347503  88.7542858
  78.7325381  90.9943337  87.9163643  79.1349512  91.8818655  88.8808580
  78.9605914  91.1539588  88.6496340  75.5761641  95.4197453  94.6847904
  76.2995840  94.9669979  94.5058923  75.3111603  95.7002118  93.9020231
  75.6442914  95.3948421  94.5426619  64.4448509  90.0157626  91.4200783
  63.8201580  90.0276018  90.8126735  64.1094104  90.4917801  92.0692023
  64.3034001  90.0876143  91.4257351  64.6290258  88.3582745  77.4773468
  64.2803062  89.0102470  77.9405017  64.1486704  88.3439858  76.7497339
  64.5060502  88.4525798  77.4384559  61.1574185  98.0758086  92.8604547
  60.6274109  97.3850525  92.9099522  61.4299278  98.0668271  92.0317256
  61.1198907  97.9725218  92.7451963  72.1894275  98.6583789  81.5842230
  72.9128474  99.1241902  81.4406803  71.7494866  98.7257398  80.8339827
  72.2309968  98.7367625  81.4527011  71.3580431  95.5181331  92.8342919
  70.7437424  94.9739381  93.1291554  71.8747715  95.0045567  92.3548735
  71.3436093  95.3617740  92.8067147  70.5976728  96.5885601  90.5687217
  70.1704336  95.9635319  90.1352653  70.5901672  96.3060523  91.3946224
  70.5335869  96.4538381  90.6267045  63.7139255  91.6250774  93.6375651
  63.8732741  90.8694098  94.0427373  63.5332148  92.1741713  94.2916389
  63.7104614  91.5944588  93.7938357  71.6559558  83.7912009  94.1926441
  71.1600119  83.9875684  93.5018007  72.4128620  84.1904678  94.0215242
  71.6946382  83.8789743  94.0646577  68.9262437  87.4654355  90.7829751
  68.9504925  86.9314468  90.0942531  69.1773911  86.9571664  91.4455342
  68.9672356  87.3115259  90.7794396  56.4370027  94.7485850  90.2172895
  56.3313476  94.7032695  89.3524979  55.6870247  95.0939631  90.4987180
  56.3105630  94.7926758  90.1310225  65.2063760  86.1925174  90.1635496
  65.2462131  86.6934380  90.8770203  64.3813424  86.2835567  89.8941419
  65.0903286  86.2806990  90.2286034  67.3893372  95.7585914  98.2655790
  66.5389003  95.8957628  98.4013435  67.5521500  95.0249692  98.7103492
  67.2877236  95.6700015  98.3511389  66.6278123  92.7085683  92.4609395
  65.7970053  92.8759501  92.2544643  66.5729640  92.3321634  93.2458280
  66.4967538  92.6775415  92.5457923  64.4361906  86.1994576  98.0965805
  65.0614610  85.6556709  98.3695238  63.9812386  85.7189494  97.5273596
  64.4610167  86.0484058  98.0527399  65.0014167  90.9841275  82.9899512
  65.1417128  91.4813739  83.6928154  65.4996700  90.2827569  83.1313726
  65.0955248  90.9543254  83.1151091  65.0314389  91.8508386  80.3192089
  65.6659469  92.4468811  80.2541551  65.1140000  91.5511844  81.1337959
  65.1370940  91.8949294  80.4295176  78.0096955  94.3823863  93.1878453
  78.6014795  95.0221114  93.2196651  78.4455949  93.6846900  93.4770520
  78.1615386  94.3742214  93.2359286  66.6093372  87.7822361  80.2937531
  66.9309213  87.3025444  79.6396793  66.8720316  88.5922007  80.1028343
  66.6959397  87.8312259  80.1693023  69.8390345  98.8041236  93.8136347
  69.3315436  99.3577083  94.2576978  69.5416991  98.8649526  92.9955122
  69.7195230  98.8947547  93.7584804  72.0052527  87.1694555  92.6561010
  72.4307599  86.7167082  92.0444537  71.3909520  86.6154626  92.9325798
  71.9781172  87.0208532  92.6066035  61.5367377  94.0476227  83.5881635
  62.0459606  94.6440734  83.9692941  62.0101649  93.7802200  82.9058055
  61.6810753  94.0962042  83.5436158  72.4498125 102.7204493  81.7440291
  71.7327435 102.5465356  81.2787528  73.1004863 102.4857066  81.2115777
  72.4399976 102.6600286  81.5969509  70.4446750  83.6409655  86.0651587
  69.8015068  83.4907302  86.6336726  70.1046157  83.3952000  85.3000692
  70.2991827  83.5821778  86.0354602  75.0346096  91.5969082  85.4881596
  74.3637286  92.1398784  85.3594661  75.7285847  92.0663937  85.2463291
  75.0374964  91.7467353  85.4337124  69.0832830 103.7365794  90.7193354
  68.8598485 102.9784623  91.0877380  68.5942673 103.7663815  89.9973794
  68.9776279 103.6288018  90.6670095  75.1974224  88.0524966  88.3971969
  75.5501834  87.6254689  89.0717768  74.3389025  87.9675809  88.5273045
  75.1223668  87.9769706  88.5166979  63.8957909  90.6832485  86.4554816
  63.1769898  91.0996618  86.7227679  64.2670271  91.2486724  85.9046454
  63.8449841  90.8281767  86.4137623  73.1957490  91.3160334  92.3456811
  73.1755417  91.1343629  93.1991590  73.2436690  92.1872353  92.3216395
  73.1992131  91.4176872  92.4680106  71.1403819  97.9047526  98.2705288
  71.0999674  97.2597203  97.6850444  71.9527138  97.8484144  98.5830700
  71.2546973  97.8006493  98.2302237  67.7311287 103.9566252  88.1730439
  67.3171686 103.2940382  87.7834280  68.4158661 104.1044111  87.6526133
  67.7709659 103.8806910  88.0386936  71.0976581 103.1156337  88.9254055
  70.6992864 103.2258608  88.1574876  70.4827801 103.3238404  89.5080615
  70.9475470 103.1629905  88.8985355  69.6704483  89.7230485  81.7928195
  69.0769322  90.0447482  81.2412762  69.7079761  88.8771581  81.5849301
  69.5878872  89.6454813  81.6810966  76.6298284  83.1743377  89.3256282
  76.1229149  82.4672517  89.2577459  77.4265718  82.8436566  89.4557358
  76.6725523  83.0216529  89.3355276  72.5462300  89.6809990  85.2229945
  72.3175993  89.7042691  84.3808303  72.8060376  88.8567457  85.3424956
  72.5508488  89.5626070  85.1155143  66.8281528  91.5344463  94.8255045
  66.3160431  90.9265646  95.1840077  66.6561024  92.2501055  95.2929021
  66.7271165  91.5507762  94.9471269  61.6747243  89.9782038  97.4757407
  61.5049833  90.6383413  96.9305614  61.2313193  90.1888599  98.1969896
  61.5846576  90.1068020  97.5019037  65.6007062  88.2186536  86.5184141
  66.0764429  88.5803616  85.8834322  65.0995662  88.8743004  86.7984284
  65.5972421  88.3680725  86.4660882  78.8318424  97.6908304  82.3097146
  79.2152030  98.4399660  82.5395243  78.0362537  97.9374124  82.0509135
  78.7712206  97.8377998  82.3054719  70.7050599  89.4568707  97.2657301
  71.2622029  89.2282517  96.6335766  70.3811664  90.2174373  96.9892513
  70.7397009  89.5352544  97.1313798  58.5749307  92.8828904  92.7345897
  58.0276027  92.2129549  92.8526765  59.3641686  92.5158751  92.7989364
  58.6101491  92.7293890  92.7614598  68.4233716  92.5436361  98.2309308
  69.1745043  92.8588038  98.5448862  68.6156292  92.3415532  97.4043230
  68.5625130  92.5603742  98.1552704  67.6433715  90.3627736  79.8857525
  68.0232680  90.3807365  79.1008640  66.9026311  90.8081725  79.7648372
  67.5902553  90.4309510  79.7521093  75.2719006  88.6709927  85.4733104
  75.2713232  88.5158584  86.3317380  75.0675186  89.5172914  85.4174489
  75.2418784  88.7730548  85.5921043  57.3336277  92.0949711  89.8891920
  57.1558038  91.6426320  90.6146836  57.0455299  92.8975873  90.0730398
  57.2649230  92.1472269  90.0235423  72.9959858  93.3507429  89.1269310
  73.4913523  92.6330424  89.0873331  72.1859634  93.0478226  89.0123797
  72.9503751  93.2005075  89.1043036  68.4418470  97.2005242  81.2766315
  67.6329792  96.8771916  81.2299624  68.9493378  96.4938464  81.2094564
  68.3968136  97.0486558  81.2596609  59.0708747  94.6277435  87.0013679
  58.2054266  94.6163126  86.8896450  59.1707563  94.4407658  87.8484818
  58.9582914  94.5983496  87.1102624  75.0611677  96.1011116  91.8146439
  75.4866748  95.5785538  91.2616864  74.6968597  96.6991954  91.2935062
  75.0698279  96.1121343  91.6555449  64.6965757 104.3975334  90.5743785
  65.0112316 105.2111722  90.5821566  65.1059170 104.0125552  91.2425944
  64.8033855 104.4604036  90.6747876  71.6490276  99.8145381  88.1447597
  72.1201454 100.5285643  88.3137582  71.9850455  99.2144131  88.6807466
  71.7685391  99.8316845  88.2479973  73.7367261 101.4246694 100.3239669
  73.8464226 100.6355255 100.6796416  74.0658158 101.3352630  99.5214007
  73.8019667 101.2952547 100.2582059  68.5659771  84.5872851  95.1005691
  68.6987677  83.7903845  95.4286667  68.9504924  85.1139254  95.6803967
  68.6416100  84.5472768  95.2349194  72.2864223  99.6063315  94.9075289
  71.7385169  98.9821198  94.6395355  72.7477251  99.7957587  94.1919369
  72.2731432  99.5422365  94.7625720  71.6392126  81.5103177  91.6986785
  70.8338090  81.4000907  92.0154623  71.5098862  81.6115633  90.8416651
  71.5012259  81.5086847  91.6194825  75.0958087  87.6748669  92.2926482
  74.5121076  88.1757876  91.8804049  75.4162381  87.1678225  91.6590805
  75.0571262  87.6740504  92.1384989  67.6352886  86.5889264  82.5685156
  68.4568580  86.7587577  82.3266851  67.1722537  86.7436525  81.8451454
  67.6884048  86.6370997  82.4256801  66.2248218  84.5832026  93.3483585
  66.7692631  84.2423153  93.9387927  66.2785154  85.4417488  93.4904870
  66.3137337  84.6587286  93.4565459  62.0378777  98.3448442  90.2222393
  62.6423634  98.3044276  89.5936214  61.8306089  99.1919594  90.2526449
  62.0967674  98.4636445  90.1338510  71.8522549 100.6114387  91.4384631
  72.6720923 100.4677353  91.7000926  71.5716627 101.2360586  91.9801068
  71.9319292 100.6824739  91.5572570  57.2730059  97.3283060  90.0921316
  57.1754337  96.5179331  90.4011373  58.0558929  97.3074853  89.7067584
  57.3746196  97.2050150  90.0808179  88.3236199 108.2679239  84.4027507
  88.2930204 109.1223876  84.5745776  88.9217548 107.9674532  84.9613650
  88.4073357 108.3495736  84.5102309  81.5235884 107.3554890  89.1580437
  80.6673780 107.5163388  89.2089554  81.5703538 106.4846954  89.1785498
  81.4034996 107.2505692  89.1686503  75.9077024 116.8917608  84.9217669
  75.1559923 116.5133146  84.6933714  76.3563036 116.9236042  84.1736479
  75.8626691 116.8403215  84.7775171  84.8329601 113.6241416  98.7640893
  85.5396368 113.1293446  98.8927828  85.0217536 114.0650497  98.0343551
  84.9657506 113.6159766  98.6749939  81.3601984 117.3142977  80.3503216
  81.0253352 117.9919899  79.9147438  81.8728854 116.9248289  79.7620088
  81.3867565 117.3567556  80.1990007  80.9006275 119.2657246  86.2914328
  81.2845654 119.8344145  85.7519103  80.8365416 118.5406756  85.8120144
  80.9479702 119.2432710  86.1408190  84.3687705 109.4146934  91.8012089
  84.9143665 110.0932021  91.8606059  84.3104581 109.2734395  90.9413670
  84.4403620 109.4938936  91.6824150  77.4861780 116.9036000  87.1880441
  77.5872143 116.0936354  87.4977569  76.8903525 116.8092947  86.5580120
  77.4134319 116.7701028  87.1406680  86.1452774 110.8431541  82.6745817
  86.0292300 111.5939227  83.1037955  86.9408661 110.5855494  82.9241904
  86.2457363 110.9166388  82.7749908  77.3262520 121.8213589  88.5895297
  77.9699975 122.2626753  88.9791456  77.6518775 121.0167015  88.5025556
  77.4694348 121.7678784  88.6340775  70.6826824 112.9256287  86.8132775
  70.4477009 112.0923939  86.7065044  70.8212465 113.2060952  85.9993976
  70.6682487 112.8439790  86.6775130  72.9816912 105.0942017  89.7117083
  72.3621943 104.5034665  89.5427097  72.8800775 105.6853453  89.0781406
  72.8754587 105.0946100  89.5922072  78.0283099 114.8325564  83.9615159
  78.3498940 115.3730771  83.3576467  78.6755196 114.2622336  84.0937449
  78.1709155 114.8284739  83.8922194  80.0784807 106.8341559  84.0449546
  80.7764972 107.0129687  84.5371009  80.3937140 106.3111898  83.4219935
  80.2280145 106.7835331  84.0251556  72.7086045 108.6394299  91.9560652
  72.5844742 109.2256745  92.5910471  73.3604329 108.1454495  92.2572927
  72.7859694 108.6533103  92.0946581  80.2672743 113.2212004  84.0329337
  80.7066378 112.6129105  84.4784110  80.1177406 112.8419377  83.2614802
  80.3094208 113.0750475  83.9848505  77.7344386 111.8156016  91.2348163
  78.3793388 111.3228459  90.9159111  77.9746163 111.9580803  92.0614241
  77.8654971 111.7633458  91.3097696  80.2730477 114.6610922  90.8855055
  80.5553720 113.8662328  90.6641811  81.0016638 115.1391509  90.9060116
  80.4220041 114.6145519  90.8558071  78.2511671 102.2033956  88.1270820
  77.9215001 102.6545099  87.4574519  77.5756673 102.1250119  88.6743827
  78.1022107 102.2585091  88.1094044  83.8682079 111.5739185  80.9860107
  83.7833374 112.4300152  81.1309675  84.3566463 111.2983509  81.6542266
  83.9270977 111.6596507  81.1062188  85.4588079  98.1919479  86.3720431
  85.1441520  98.8822957  86.8040853  84.9415020  98.1364261  85.6705932
  85.3352549  98.2854367  86.3317380  84.8000513 108.1923980  82.4857842
  84.2711984 108.4083613  83.1455148  85.3225533 108.8860118  82.4058811
  84.7988966 108.3267116  82.5713441  90.2548566 113.7670284  87.8590886
  89.4246269 113.9780928  88.0224303  90.2057818 112.9407339  87.5833170
  90.1255301 113.6759890  87.8428252  76.6900120 112.0887196  81.2865310
  76.1057336 112.5937228  81.6931174  76.2870216 111.8629583  80.5461902
  76.5439424 112.1295445  81.2370335  72.2444149 117.8041957  88.0888981
  71.7611727 118.5292447  88.0648565  73.0567467 118.1018088  88.1999139
  72.2934897 117.9544311  88.1016260  78.3158303 116.5974138  90.6938796
  77.7985245 116.2381553  90.0900104  79.0132694 116.0736313  90.7044862
  78.3423884 116.4671826  90.6069054  81.9721895 117.0468952  96.6554969
  82.0605241 116.8595093  97.5033179  82.4011608 116.4006382  96.2559815
  82.0483997 116.9231960  96.7226720  79.5392355 116.3300112  95.6372631
  78.9763190 115.9172722  96.1612292  80.3013378 116.2553018  96.0565774
  79.5686803 116.2577513  95.7765631  81.1477335 108.3352848  79.7634230
  81.3873338 108.5430832  78.9509573  81.4693176 107.5310357  79.8723175
  81.2314493 108.2466950  79.6594783  76.4567625 100.2646244  83.6093768
  77.2113593 100.6324561  83.3710818  76.2795160 100.6385799  84.3772948
  76.5422103 100.3744432  83.6878657  75.0988346 118.3198133  88.2409261
  75.8008926 117.8050122  88.2982018  75.0185829 118.6472285  89.0456136
  75.1912107 118.2912360  88.3682053  89.7502524 106.4140685  91.6541308
  88.9130945 106.4842872  91.8888902  89.7190755 106.4165180  90.7815610
  89.6220806 106.4250912  91.5600855  76.1467253 108.5573720  97.3689676
  76.3187757 108.4479615  98.2174958  76.6836610 109.2028126  97.1320868
  76.2512257 108.6365722  97.4594773  74.8124690 102.6716563  80.3071881
  74.6300263 102.8888444  79.4812874  75.6750303 102.7855576  80.3630496
  74.9129279 102.7206461  80.1926368  74.4239122 114.5104485  87.7494869
  75.2628021 114.7427418  87.7968631  74.4550891 113.6408797  87.6801904
  74.5520839 114.4161432  87.7459514  75.0491825 114.9305361  92.0508175
  75.5890050 114.7876492  92.7211547  74.3661771 115.3302111  92.4192201
  75.0283979 114.9685032  92.2042596  80.4924409  99.6742974  83.3420905
  81.2210569  99.4958929  82.8959061  80.5819302 100.5161054  83.5528083
  80.6131071  99.7726852  83.3074423  84.4732710 110.6096361  87.2453199
  85.2290225 111.0427876  87.2842108  84.5795034 109.9601131  87.8187835
  84.6002880 110.5773845  87.3351225  87.5112881 114.4369638  87.9955602
  87.0748113 114.4406381  88.7514573  87.1775796 115.1175137  87.5635179
  87.3975501 114.5382094  88.0436434  82.0841954 116.4777971  99.3198752
  82.8682371 116.5908819  99.6854494  81.8838549 115.6519108  99.5157438
  82.1707980 116.3724691  99.4033138  70.4528970 111.1505651  92.2042596
  70.1867385 110.3344768  92.3633586  70.4667534 111.1958807  91.3338112
  70.4153692 111.0362556  92.0996078  87.4310364 101.4783466  90.2385030
  88.0736272 101.5481571  90.8246945  87.6833384 100.8112689  89.7364572
  87.5632496 101.3909815  90.2512309  74.3586717 105.9490736  78.8194354
  73.6444894 105.6628915  79.2316787  74.8430685 106.2887362  79.4600742
  74.3246080 105.9572385  78.9749989  75.2027576 104.6884030  94.8509604
  74.5099373 104.2181009  95.0970335  75.8187903 104.4622334  95.4251311
  75.1912106 104.5851161  94.9718756  82.2412348 118.3888073  92.9665208
  81.4427593 118.1487573  93.2239076  82.6898359 118.4402466  93.7132255
  82.1886959 118.3610465  93.1150132  90.6457227 111.1550558  86.8875239
  91.3073661 110.5941227  86.7871148  90.0048639 110.6602589  87.2127930
  90.6486094 110.9986967  86.9207579  81.5334035 114.4520690  79.1956162
  81.9485183 114.1205714  78.5040658  80.7025964 114.2189592  79.0676299
  81.4722043 114.3691946  79.0747010  70.8622383 111.9364431  89.4854340
  70.6797957 111.9111317  88.6326633  71.5972052 112.4063369  89.5243249
  70.9436447 112.0025793  89.3652259  86.9322058 112.1715941  86.6287228
  87.1677647 112.3161140  85.8014079  87.0811621 112.9358349  87.0218742
  86.9887861 112.3054995  86.5650832  73.9268135 108.6549434  95.9936449
  74.6508107 108.6402464  96.4801344  74.0284272 109.3644789  95.4958417
  74.0486344 108.7574137  95.9915236  88.7612514 111.0117607  84.4656832
  89.0920731 111.5445247  83.8596927  89.3345602 111.0656494  85.1218783
  88.8946193 111.0987176  84.4734613  81.3013085 112.1348518 100.8585396
  80.5086065 112.4492030 101.0438016  81.4162012 112.3499987 100.0206181
  81.2008495 112.2132355 100.7623731  83.9744403 108.8582509  85.1480412
  84.0691258 109.5971803  85.6020037  83.3503247 108.4299985  85.5814976
  83.8953434 108.9043830  85.2788559  82.2296877 112.0368722  95.7970693
  82.8035739 111.3995966  95.9519257  82.1511681 112.0372804  94.9280350
  82.3030112 111.9433833  95.6917104  70.8293294 108.8157931  89.6353407
  71.4066796 108.6794382  90.2745652  70.1307355 108.3593716  89.8898991
  70.8114315 108.7280198  89.7675697  84.2267425 110.7031249  78.3817364
  84.1447587 110.7733436  79.2472351  84.8647145 111.2660993  78.1901105
  84.3087262 110.7970220  78.4807313  77.5860596 110.4691987  87.8491890
  77.3279840 109.6363722  87.8223190  77.6409079 110.6949600  87.0084391
  77.5560374 110.3789758  87.7212027  82.6661646 102.5720438  87.9495983
  81.9617973 102.0829623  88.1079902  82.7146620 102.5842912  87.0784427
  82.5691698 102.5010086  87.8435323  76.5595308 108.0229750  88.3356785
  75.9844899 108.1821918  88.9720746  76.1830984 107.3865159  87.8725235
  76.4198120 107.9527563  88.3611343  80.2268597 106.4953099  93.1949163
  79.8383029 106.0707317  92.5401355  79.5623295 106.7435249  93.7026190
  80.0715525 106.4691820  93.1737031  89.8691866 106.2528104  85.9696993
  89.6128431 105.4408045  85.7794876  90.7121180 106.2605671  85.7427181
  89.9557891 106.1340101  85.9081811  66.3052127 107.6669824  86.3501226
  66.3912379 107.2901693  87.1314756  66.9327924 107.2930270  85.8721184
  66.4108678 107.5555307  86.3946703  84.0494958 100.1927728  90.7073148
  84.4305470  99.5105899  91.0941022  83.2458243  99.9037330  90.5248812
  83.9871420 100.0494776  90.7377203  81.3307535 110.7251703  81.3925970
  82.1448174 111.0166596  81.2808742  81.2666676 110.0711566  80.8184263
  81.4410274 110.6716898  81.2914808  87.5517025 113.4077700  95.8055546
  87.3155663 112.5765764  95.6867607  88.1960254 113.3563307  96.3910390
  87.6111696 113.2775388  95.8741440  77.2015443 114.1973221  86.5198282
  77.8389390 113.9584968  87.0650076  77.6270515 114.4010380  85.7851443
  77.3591610 114.1924231  86.4915440  71.8928086 116.4361557  90.4032586
  71.9332231 116.7076409  89.5752366  72.4522610 116.9603466  90.8190374
  71.9811432 116.5537313  90.3424474  77.8418258 109.4175511  80.8573172
  78.2263411 109.1983217  81.6089717  77.5929879 110.2438456  80.9874248
  77.8620331 109.5073657  80.9874248  78.0086799 102.6981926 100.5735756
  77.6940240 103.4681489 100.3105319  77.6876731 102.1352182  99.9887983
  77.9145718 102.7292195 100.4477106  88.5753446 113.1922148  91.8683840
  88.2699263 113.9250205  92.2297156  87.8559661 112.7860078  91.5876627
  88.4240788 113.2403881  91.8796978  79.5836915 114.6745644  88.1992069
  79.6575923 114.5120815  89.0533919  80.4006422 114.8635833  87.9552550
  79.7153274 114.6782386  88.2890094  94.2755238 109.8315149  91.1952185
  94.2079738 109.8511108  90.3254771  94.2610900 110.6745476  91.4207855
  94.2633994 109.9588884  91.1004662  73.3442672 115.0203506  85.2286512
  72.5180790 115.2665244  85.1020791  73.4054663 114.9415587  86.0948570
  73.2316839 115.0448455  85.3375457  75.5618696 101.0872447  86.1881952
  74.6941121 101.1595047  86.2539562  75.8493900 101.8894526  86.3769927
  75.4758444 101.2166594  86.2256719  84.6851584 101.2350307  94.5193274
  85.4305176 101.0460117  94.1056700  84.2688889 101.7608545  93.9607130
  84.7336559 101.2852452  94.3757847  78.1241501 117.6380387  82.9305542
  78.4139799 117.2469368  82.2064769  78.8544982 117.8197092  83.3710817
  78.2748385 117.6074200  82.8888349  92.0613855 108.6059535  89.4698779
  92.6121777 107.9727604  89.7095871  92.0457971 109.1374928  90.1614283
  92.1399052 108.5908483  89.6077637  78.7136246 112.4398133  94.0158673
  78.2147940 113.1513900  94.0943561  79.5236470 112.7598799  93.9776835
  78.7592353 112.5924981  94.0215241  76.0647417 119.6147769  85.9965692
  75.8447712 119.3245124  86.7892359  75.8441939 118.9562724  85.4683604
  75.9995011 119.4747477  86.0354600  74.9764364 111.7021086  88.2621393
  74.6877612 111.0758557  88.7967121  75.8447712 111.6441373  88.3286074
  75.0624616 111.6008630  88.3512348  85.7642261 106.8455869  88.5803375
  85.4207027 106.1246204  88.9310625  85.8635304 106.6369720  87.7381734
  85.7284304 106.7080072  88.5075055  78.2315372 120.9877159  84.7796384
  78.8839430 120.4553601  85.0087410  77.5340981 120.6345811  85.1664258
  78.2246090 120.8566682  84.8708552  75.1796637 113.3416337  84.1863758
  75.9342605 113.7229376  84.3999221  74.5867250 113.7927480  84.6410455
  75.2033351 113.4645164  84.2846637  86.2255291 113.3081573  84.1227363
  86.7913323 113.9674783  84.0385906  85.5783194 113.6531271  84.5943766
  86.2134047 113.4563514  84.1800120  77.6403304 105.2979177  99.3120971
  76.8303080 105.6036957  99.2010813  78.1177991 106.0184759  99.4273555
  77.5906783 105.4493778  99.3128042  76.4994864 114.5124898  89.5603874
  75.9775617 114.6525190  90.2455739  76.8868884 113.7535562  89.7505991
  76.4798565 114.4210422  89.6904950  73.4886048 104.5630707  83.6298829
  73.2010843 104.1931977  82.8930776  74.1756516 105.0325562  83.3682534
  73.5474945 104.5777676  83.4813904  82.6961869 116.2520357  83.5464443
  82.4548545 115.5188218  83.1391508  82.8763202 116.8007214  82.8930776
  82.6869493 116.2242748  83.3894666  77.9261189 111.5428917  84.9585365
  77.7303972 112.1503651  84.3645668  78.1495535 110.8496861  84.4777039
  77.9295830 111.5306442  84.8001446  76.3239719 108.4283655  85.0766233
  77.0462371 108.5924813  84.6170039  75.8447712 109.1493320  84.9705573
  76.3603450 108.5581884  84.9931847  84.2833227 104.7647454  90.4562918
  83.4444328 104.7908733  90.2201181  84.3537594 105.4118189  91.0368265
  84.1701620 104.8643580  90.5072035  73.9747336 110.8341727  94.1820373
  74.4868433 111.1125981  93.5329133  73.6883679 111.5731021  94.5483186
  74.0082199 110.9844081  94.1410251  82.7302505 101.6632831  85.1890534
  83.4328858 101.4640579  84.7110492  82.4646694 100.8908773  85.4959378
  82.7949137 101.5195797  85.1635976  88.1590751 109.9715440  87.7424160
  88.0724725 110.1270867  88.5958939  87.7041231 110.6153516  87.3683565
  88.0794007 110.0891196  87.8131267  71.0614242 105.3411919  84.4784110
  71.1630379 106.1438081  84.8065085  71.8570129 105.1399255  84.1807190
  71.1942148 105.4297818  84.4819465  77.4931061 102.9268116  94.2421415
  77.3014258 102.9423250  95.0920838  78.3429657 103.1231790  94.2188070
  77.5906783 102.9582467  94.3644710  71.8777974 105.4559097  92.2205231
  71.7363466 104.6043038  92.3449739  72.1618538 105.4987758  91.3967437
  71.8985821 105.3358847  92.1172855  82.0316567 107.2926188  86.3649719
  81.7851281 107.2121938  87.1986508  82.3601690 106.5079655  86.1712247
  82.0437810 107.1652453  86.4597243  85.9264616 114.0009547  90.1536501
  85.7878975 114.6990593  90.6585243  85.1464613 113.8458203  89.7972682
  85.7907842 114.0809714  90.1762775  84.2642701 110.3005922  96.4058882
  84.2590739 109.4285739  96.4101309  84.9703695 110.4994091  95.9328338
  84.3687705 110.2009796  96.3365918  77.9913594 110.0282906  95.7772703
  78.1356970 110.6084114  95.1415813  78.3389243 110.4059203  96.4822557
  78.0641055 110.1703610  95.7871698  80.1633511 109.2273075  93.5597834
  79.4156825 109.4204089  93.1546112  80.3175037 108.4018294  93.3221955
  80.0755939 109.1338186  93.4643240  77.0641349 118.2185678  92.6433729
  77.2130913 117.6588594  91.9907134  77.8441351 118.2977680  93.0266248
  77.2015443 118.1471243  92.6030679  87.4217988 113.3587801  80.9153000
  87.0424797 112.5724939  80.9082289  86.7584234 113.9074658  80.7724644
  87.2676463 113.3232625  80.8933797  79.5894650 118.3900321  93.9218220
  79.5138321 117.7209131  94.4769008  79.5184509 119.0918109  94.4358886
  79.5675257 118.3945228  94.0795068  80.4035288 103.1223625  94.4493238
  80.8607903 103.8547600  94.5766030  80.4791617 102.6990090  95.2080494
  80.4826258 103.1680863  94.5794314  72.6468280 103.3689445  95.5382682
  72.1110469 102.7569803  95.8543449  72.7086044 103.9437581  96.1916348
  72.5763912 103.3636373  95.6818108  84.8762614  96.3013500  88.3187081
  84.9946183  96.7589964  87.5854384  84.7024790  95.4958762  88.0323298
  84.8681785  96.2507273  88.1688014  80.2464897 116.9101320  84.7541826
  81.0114788 116.6410963  84.4324490  80.1442987 116.4251330  85.4711889
  80.3446392 116.7990884  84.8121654  78.2817666 105.1125729  91.2935062
  77.4913741 104.9317189  91.6152398  78.6778289 104.3352682  91.2765356
  78.2234543 104.9713190  91.3387610  82.7683557 113.9413503  76.7341776
  83.5356542 114.0013628  76.3247627  82.3214866 113.3693945  76.2498094
  82.8156984 113.8650079  76.6019486  83.6661353 112.7468159  89.0194508
  82.9906354 112.5153392  89.5207895  83.6753729 112.1389342  88.3936613
  83.5679857 112.6227085  89.0010660  80.7955497 107.5885988  95.7758561
  80.7314638 108.4495945  95.6478698  80.9352684 107.2717981  94.9754112
  80.8070967 107.6686155  95.6386774  85.6678087 115.6033292  81.2504686
  85.7497925 116.4100278  80.9266137  86.1527829 115.6229251  81.9745459
  85.7515245 115.7253954  81.3091584  79.4774591 110.2818128  89.9174764
  79.0536840 110.4822627  89.1813782  79.3019446 109.4346976  90.0299064
  79.3885471 110.1866909  89.8248454  78.9786284 121.7968641  92.3796221
  79.4682214 121.0979430  92.1971886  78.4070516 121.4992511  92.9672278
  78.9670814 121.6494864  92.4397262  74.7657036 110.7770179  85.3502736
  74.9221655 110.7116982  86.2058728  75.1057629 111.5518732  85.1381416
  74.8390270 110.8819377  85.4457330  81.3036180 110.1528063  84.2196099
  81.8451726 109.6498444  84.6834720  81.6182739 110.0993257  83.4085585
  81.4300577 110.0707484  84.1679912  79.4722630 115.5445414  81.5036127
  79.5415450 114.6859953  81.6429128  80.2511085 115.7617295  81.1755152
  79.5975480 115.4498278  81.4753285  82.4525450 105.0464367  94.2718400
  82.6667419 104.4075281  93.7181754  81.8359349 105.4910191  93.8426262
  82.3930779 105.0174511  94.1268831  83.8630117 117.9683115  85.7172621
  83.4709909 117.6649831  84.9995487  84.0183190 118.8052205  85.5277575
  83.8283707 118.0466952  85.5829118  71.3391297 107.9605130  85.6663503
  71.7190262 108.3789674  85.0023771  70.7646662 108.5418585  85.9732347
  71.3102622 108.1082988  85.6140244  84.6164538 106.6553432  95.2101707
  83.8041219 106.3479323  95.2914880  85.0754472 106.1752432  95.7744419
  84.5644922 106.5389925  95.3056301  84.0269792 114.5333104  85.6578651
  83.6684447 114.7047747  86.4342684  83.5408503 114.9946310  85.1006650
  83.9028489 114.6272075  85.6903920  81.8440178  98.1564303  89.2605743
  80.9733736  98.1303024  89.2139052  82.0980519  97.9841495  88.4431588
  81.7533738  98.1274447  89.1325879  78.8158158 110.2132270  78.1978886
  79.1050682 110.9897152  78.4722460  78.9029956 109.7021001  78.8993385
  78.8712414 110.2524188  78.3421384  81.7118045 108.0613504  99.9930409
  82.1817676 108.6855620 100.3798283  81.7579925 107.3930479 100.5523624
  81.7885921 108.0548184 100.1330481  78.8689319 100.1670531  90.7179213
  78.3527807  99.4750723  90.8430792  78.3083248 100.8341308  90.6641812
  78.7095832 100.1633789  90.7285279  80.9381552 100.7063491  92.5472066
  80.5513305 100.7312523  93.3285596  80.4514489 100.1405170  92.0946582
  80.8094061 100.6259242  92.5959969  85.1874532 115.4237000  96.6045852
  85.8254252 114.9297196  96.2708308  84.5448623 115.3514401  96.0198079
  85.1868758 115.3396009  96.4688207  86.9131532 107.2726146  91.1711768
  86.4859140 107.1852495  90.4159867  86.2757585 107.3803922  91.7566612
  86.7561139 107.2758806  91.1457209  80.6038694  97.5930477  94.8382326
  81.2331812  98.1290777  94.5603396  80.7724557  97.5007836  95.6895891
  80.7216488  97.6591839  94.9230854  80.4052609 102.3801671  97.1108737
  81.2326038 102.1086820  97.1667352  80.4260455 103.1762513  97.4672555
  80.5305459 102.4581426  97.1723920  85.2428788 116.1156809  93.2451209
  86.0321166 115.7645873  93.3653291  85.4172386 116.9293197  92.9827843
  85.3849070 116.1842666  93.2239077  74.9822099 109.5265534  90.2978998
  74.1410105 109.4269408  90.5057892  75.1912107 110.2961015  90.6493319
  74.8886791 109.6257578  90.3806313  72.4597666 107.1485071  88.1263749
  72.0654363 107.2228083  87.3513858  71.9037782 107.5343018  88.6772110
  72.3200478 107.2166846  88.0931408  84.0962612 100.1266365  87.8067627
  84.3012206 100.0588673  88.6524625  83.7689036 100.9325186  87.7388805
  84.0777860 100.2352306  87.9227283  78.7938763 107.4546933  89.5476595
  78.4901901 106.9002922  90.1487003  78.0918184 107.6339143  89.0604630
  78.6454973 107.3991716  89.5646301  77.8504861 104.7647453  84.1121297
  78.1264595 104.0466366  83.6998865  78.4503530 105.3632373  83.9042403
  77.9798125 104.7467824  84.0202058  76.8557114 114.6696654  94.2548693
  76.7477469 114.6798716  95.1210751  77.0652896 115.4951435  94.0653647
  76.8707225 114.7937729  94.3552785  87.3496300 100.6798130  87.2870393
  86.7370614 101.1668532  87.6724125  87.4460475 100.0041620  87.8308044
  87.2734198 100.6516438  87.4249251  81.3515381 102.4360971  82.3867892
  81.8059128 102.6071531  83.1115737  81.8255427 101.8229081  81.9865668
  81.4883701 102.3711856  82.4341654  74.8730906 111.9209297  91.7170631
  74.2818840 112.5618795  91.6873646  75.6351930 112.3446914  91.6901930
  74.8979167 112.0785135  91.7085778  75.2691529 103.0811294  92.3838648
  75.7293011 103.1550224  93.1213772  75.3147636 103.8792548  92.0338470
  75.3442085 103.2105441  92.4411405  76.9174879 103.7477989  96.9510675
  76.5260444 103.1011336  97.3866453  77.0860742 104.3389424  97.5704931
  76.8845789 103.7392257  97.1073381  90.9921328 111.7515066  92.7147909
  91.0504452 112.2001715  93.4607885  90.3587796 112.1613879  92.2777989
  90.9072623 111.8788801  92.7600457  84.6320423 117.3718608  89.1502655
  84.4340111 117.8609423  88.4558867  84.0108134 117.5759850  89.7286789
  84.5107987 117.4735146  89.1325878  78.6928401 109.1403505  83.4912899
  79.4370446 109.5277781  83.7295849  78.8389097 108.2960930  83.6553387
  78.8238986 109.0733978  83.5506869  80.6107976 100.9353764  88.5244761
  79.7644022 101.1076572  88.3986111  80.6079109 100.1303108  88.8610589
  80.4855126 100.8414793  88.5555888  81.6806277 104.7128978  89.3906819
  81.2066231 104.1870740  89.9012130  82.0524413 104.1658451  88.8221680
  81.6656166 104.5544975  89.3821966  72.0579307 106.7100485  94.7590365
  72.9204920 106.6096194  94.6727694  71.7271090 106.1295194  94.1975937
  72.1364503 106.6092112  94.6635770  87.9443007 109.7731354  90.8013599
  87.7041230 108.9337769  90.8056026  88.4235015 109.8531521  91.5254373
  87.9795191 109.6612754  90.9088402  83.6089777 105.6065533  82.4532573
  83.0812795 105.6894277  81.7638281  84.0685485 106.3483404  82.4497217
  83.5991627 105.7286195  82.3507268  89.9448194 106.5532811  88.7542858
  89.7057964 106.5128645  87.9163643  90.1082096 107.4003963  88.8808580
  89.9338498 106.6724896  88.6496340  86.5494225 110.9382760  94.6847904
  87.2728423 110.4855287  94.5058923  86.2844187 111.2187426  93.9020231
  86.6175498 110.9133729  94.5426619  75.4181093 105.5342934  91.4200783
  74.7934163 105.5461326  90.8126735  75.0826688 106.0103109  92.0692023
  75.2766585 105.6061451  91.4257351  75.6022842 103.8768052  77.4773468
  75.2535646 104.5287778  77.9405017  75.1219287 103.8625166  76.7497339
  75.4793086 103.9711106  77.4384559  72.1306769 113.5943394  92.8604547
  71.6006693 112.9035833  92.9099522  72.4031862 113.5853579  92.0317256
  72.0931491 113.4910526  92.7451963  83.1626859 114.1769096  81.5842230
  83.8861058 114.6427209  81.4406803  82.7227450 114.2442706  80.8339827
  83.2042551 114.2552933  81.4527011  82.3313014 111.0366639  92.8342919
  81.7170007 110.4924689  93.1291554  82.8480299 110.5230875  92.3548735
  82.3168677 110.8803048  92.8067147  81.5709311 112.1070909  90.5687217
  81.1436919 111.4820627  90.1352653  81.5634256 111.8245831  91.3946224
  81.5068452 111.9723689  90.6267045  74.6871838 107.1436082  93.6375651
  74.8465325 106.3879406  94.0427373  74.5064732 107.6927021  94.2916389
  74.6837197 107.1129896  93.7938357  82.6292141  99.3097317  94.1926441
  82.1332703  99.5060992  93.5018007  83.3861203  99.7089986  94.0215242
  82.6678966  99.3975051  94.0646577  79.8995021 102.9839663  90.7829751
  79.9237508 102.4499776  90.0942531  80.1506495 102.4756972  91.4455342
  79.9404940 102.8300567  90.7794396  67.4102611 110.2671158  90.2172895
  67.3046060 110.2218003  89.3524979  66.6602831 110.6124939  90.4987180
  67.2838214 110.3112066  90.1310225  76.1796343 101.7110482  90.1635496
  76.2194715 102.2119688  90.8770203  75.3546008 101.8020875  89.8941419
  76.0635869 101.7992298  90.2286034  78.3625956 111.2771221  98.2655790
  77.5121587 111.4142936  98.4013435  78.5254084 110.5435000  98.7103492
  78.2609820 111.1885323  98.3511389  77.6010707 108.2270991  92.4609395
  76.7702636 108.3944809  92.2544643  77.5462224 107.8506942  93.2458280
  77.4700121 108.1960723  92.5457923  75.4094490 101.7179884  98.0965805
  76.0347193 101.1742017  98.3695238  74.9544970 101.2374802  97.5273596
  75.4342750 101.5669366  98.0527399  75.9746750 106.5026583  82.9899512
  76.1149711 106.9999047  83.6928154  76.4729283 105.8012877  83.1313726
  76.0687831 106.4728562  83.1151091  76.0046973 107.3693694  80.3192089
  76.6392052 107.9654119  80.2541551  76.0872584 107.0697152  81.1337959
  76.1103524 107.4134602  80.4295176  88.9829539 109.9009171  93.1878453
  89.5747379 110.5406422  93.2196651  89.4188533 109.2032208  93.4770520
  89.1347970 109.8927522  93.2359286  77.5825956 103.3007669  80.2937531
  77.9041797 102.8210752  79.6396793  77.8452899 104.1107315  80.1028343
  77.6691981 103.3497567  80.1693023  80.8122928 114.3226544  93.8136347
  80.3048020 114.8762391  94.2576978  80.5149575 114.3834834  92.9955122
  80.6927813 114.4132855  93.7584804  82.9785111 102.6879863  92.6561010
  83.4040182 102.2352390  92.0444537  82.3642104 102.1339934  92.9325798
  82.9513756 102.5393840  92.6066035  72.5099961 109.5661535  83.5881635
  73.0192190 110.1626042  83.9692941  72.9834233 109.2987508  82.9058055
  72.6543336 109.6147350  83.5436158  83.4230709 118.2389801  81.7440291
  82.7060018 118.0650664  81.2787528  84.0737446 118.0042374  81.2115777
  83.4132559 118.1785594  81.5969509  81.4179333  99.1594963  86.0651587
  80.7747651  99.0092609  86.6336726  81.0778740  98.9137308  85.3000692
  81.2724411  99.1007086  86.0354602  86.0078680 107.1154390  85.4881596
  85.3369870 107.6584092  85.3594661  86.7018430 107.5849245  85.2463291
  86.0107547 107.2652661  85.4337124  80.0565414 119.2551102  90.7193354
  79.8331068 118.4969931  91.0877380  79.5675257 119.2849123  89.9973794
  79.9508863 119.1473326  90.6670095  86.1706807 103.5710274  88.3971969
  86.5234417 103.1439996  89.0717768  85.3121609 103.4861117  88.5273045
  86.0956252 103.4955014  88.5166979  74.8690492 106.2017793  86.4554816
  74.1502482 106.6181926  86.7227679  75.2402855 106.7672032  85.9046454
  74.8182424 106.3467075  86.4137623  84.1690073 106.8345642  92.3456811
  84.1488001 106.6528937  93.1991590  84.2169274 107.7057661  92.3216395
  84.1724714 106.9362180  92.4680106  82.1136403 113.4232834  98.2705288
  82.0732258 112.7782511  97.6850444  82.9259721 113.3669452  98.5830700
  82.2279557 113.3191801  98.2302237  78.7043871 119.4751560  88.1730439
  78.2904269 118.8125690  87.7834280  79.3891245 119.6229419  87.6526133
  78.7442242 119.3992218  88.0386936  82.0709165 118.6341645  88.9254055
  81.6725448 118.7443916  88.1574876  81.4560384 118.8423712  89.5080615
  81.9208054 118.6815213  88.8985355  80.6437067 105.2415793  81.7928195
  80.0501906 105.5632790  81.2412762  80.6812344 104.3956889  81.5849301
  80.5611456 105.1640121  81.6810966  87.6030867  98.6928685  89.3256282
  87.0961732  97.9857825  89.2577459  88.3998301  98.3621874  89.4557358
  87.6458107  98.5401837  89.3355276  83.5194883 105.1995298  85.2229945
  83.2908576 105.2227999  84.3808303  83.7792960 104.3752765  85.3424956
  83.5241071 105.0811378  85.1155143  77.8014112 107.0529771  94.8255045
  77.2893015 106.4450954  95.1840077  77.6293608 107.7686363  95.2929021
  77.7003749 107.0693070  94.9471269  72.6479826 105.4967346  97.4757407
  72.4782417 106.1568721  96.9305614  72.2045776 105.7073907  98.1969896
  72.5579160 105.6253328  97.5019037  76.5739646 103.7371844  86.5184141
  77.0497012 104.0988924  85.8834322  76.0728245 104.3928312  86.7984284
  76.5705005 103.8866033  86.4660882  89.8051007 113.2093612  82.3097146
  90.1884613 113.9584968  82.5395243  89.0095121 113.4559432  82.0509135
  89.7444790 113.3563306  82.3054719  81.6783182 104.9754015  97.2657301
  82.2354612 104.7467825  96.6335766  81.3544247 105.7359681  96.9892513
  81.7129592 105.0537852  97.1313798  69.5481891 108.4014212  92.7345897
  69.0008610 107.7314857  92.8526765  70.3374269 108.0344059  92.7989364
  69.5834075 108.2479198  92.7614598  79.3966299 108.0621669  98.2309308
  80.1477626 108.3773345  98.5448862  79.5888876 107.8600840  97.4043230
  79.5357714 108.0789050  98.1552704  78.6166299 105.8813044  79.8857525
  78.9965264 105.8992673  79.1008640  77.8758895 106.3267033  79.7648372
  78.5635137 105.9494818  79.7521093  86.2451590 104.1895235  85.4733104
  86.2445816 104.0343891  86.3317380  86.0407770 105.0358222  85.4174489
  86.2151367 104.2915856  85.5921043  68.3068860 107.6135019  89.8891920
  68.1290622 107.1611628  90.6146836  68.0187883 108.4161181  90.0730398
  68.2381814 107.6657577  90.0235423  83.9692442 108.8692737  89.1269310
  84.4646107 108.1515732  89.0873331  83.1592217 108.5663534  89.0123797
  83.9236335 108.7190383  89.1043036  79.4151053 112.7190550  81.2766315
  78.6062376 112.3957224  81.2299624  79.9225962 112.0123772  81.2094564
  79.3700720 112.5671866  81.2596609  70.0441330 110.1462743  87.0013679
  69.1786850 110.1348434  86.8896450  70.1440146 109.9592966  87.8484818
  69.9315497 110.1168804  87.1102624  86.0344260 111.6196424  91.8146439
  86.4599332 111.0970846  91.2616864  85.6701180 112.2177262  91.2935062
  86.0430863 111.6306651  91.6555449  75.6698340 119.9160642  90.5743785
  75.9844899 120.7297030  90.5821566  76.0791754 119.5310860  91.2425944
  75.7766438 119.9789344  90.6747876  82.6222860 115.3330688  88.1447597
  83.0934038 116.0470951  88.3137582  82.9583038 114.7329439  88.6807466
  82.7417975 115.3502153  88.2479973  79.5392355 100.1058159  95.1005691
  79.6720260  99.3089152  95.4286667  79.9237508 100.6324562  95.6803967
  79.6148684 100.0658076  95.2349194  83.2596806 115.1248623  94.9075289
  82.7117752 114.5006506  94.6395355  83.7209835 115.3142895  94.1919369
  83.2464016 115.0607673  94.7625720  82.6124710  97.0288485  91.6986785
  81.8070674  96.9186215  92.0154623  82.4831445  97.1300941  90.8416651
  82.4744843  97.0272155  91.6194825  86.0690671 103.1933977  92.2926482
  85.4853659 103.6943184  91.8804049  86.3894965 102.6863533  91.6590805
  86.0303846 103.1925812  92.1384989  78.6085470 102.1074572  82.5685156
  79.4301164 102.2772885  82.3266851  78.1455121 102.2621833  81.8451454
  78.6616632 102.1556305  82.4256801  77.1980802 100.1017334  93.3483585
  77.7425215  99.7608461  93.9387927  77.2517737 100.9602796  93.4904870
  77.2869921 100.1772593  93.4565459  73.0111360 113.8633750  90.2222393
  73.6156218 113.8229584  89.5936214  72.8038673 114.7104902  90.2526449
  73.0700258 113.9821753  90.1338510  82.8255133 116.1299695  91.4384631
  83.6453506 115.9862661  91.7000926  82.5449210 116.7545894  91.9801068
  82.9051876 116.2010047  91.5572570  68.2462643 112.8468368  90.0921316
  68.1486921 112.0364639  90.4011373  69.0291512 112.8260161  89.7067584
  68.3478779 112.7235458  90.0808179  99.2968783 123.7864547  84.4027507
  99.2662787 124.6409184  84.5745776  99.8950132 123.4859840  84.9613650
  99.3805941 123.8681044  84.5102309  92.4968468 122.8740198  89.1580437
  91.6406363 123.0348696  89.2089554  92.5436121 122.0032262  89.1785498
  92.3767579 122.7691000  89.1686503  86.8809607 132.4102916  84.9217669
  86.1292507 132.0318454  84.6933714  87.3295619 132.4421350  84.1736479
  86.8359274 132.3588523  84.7775171  88.4594364 132.4221308  87.1880441
  88.5604727 131.6121662  87.4977569  87.8636109 132.3278254  86.5580120
  88.3866902 132.2886336  87.1406680  97.1185357 126.3616849  82.6745817
  97.0024883 127.1124535  83.1037955  97.9141244 126.1040802  82.9241904
  97.2189947 126.4351696  82.7749908  81.6559408 128.4441595  86.8132775
  81.4209592 127.6109247  86.7065044  81.7945049 128.7246260  85.9993976
  81.6415070 128.3625098  86.6775130  83.9549495 120.6127325  89.7117083
  83.3354527 120.0219972  89.5427097  83.8533359 121.2038760  89.0781406
  83.8487171 120.6131408  89.5922072  89.0015683 130.3510872  83.9615159
  89.3231524 130.8916079  83.3576467  89.6487779 129.7807643  84.0937449
  89.1441738 130.3470047  83.8922194  91.0517391 122.3526867  84.0449546
  91.7497556 122.5314995  84.5371009  91.3669724 121.8297206  83.4219935
  91.2012728 122.3020639  84.0251556  83.6818628 124.1579607  91.9560652
  83.5577325 124.7442052  92.5910471  84.3336913 123.6639803  92.2572927
  83.7592278 124.1718411  92.0946581  91.2405326 128.7397312  84.0329337
  91.6798962 128.1314413  84.4784110  91.0909989 128.3604685  83.2614802
  91.2826792 128.5935783  83.9848505  89.2244255 117.7219264  88.1270820
  88.8947585 118.1730407  87.4574519  88.5489256 117.6435427  88.6743827
  89.0754691 117.7770399  88.1094044  94.8414663 127.0924493  80.9860107
  94.7565958 127.9485460  81.1309675  95.3299046 126.8168817  81.6542266
  94.9003560 127.1781815  81.1062188  96.4320662 113.7104787  86.3720431
  96.1174103 114.4008265  86.8040853  95.9147604 113.6549569  85.6705932
  96.3085133 113.8039675  86.3317380  95.7733096 123.7109288  82.4857842
  95.2444568 123.9268921  83.1455148  96.2958116 124.4045426  82.4058811
  95.7721549 123.8452424  82.5713441  87.6632704 127.6072504  81.2865310
  87.0789919 128.1122536  81.6931174  87.2602799 127.3814891  80.5461902
  87.5172008 127.6480753  81.2370335  83.2176733 133.3227265  88.0888981
  82.7344311 134.0477755  88.0648565  84.0300051 133.6203395  88.1999139
  83.2667480 133.4729619  88.1016260  92.1209918 123.8538156  79.7634230
  92.3605922 124.0616140  78.9509573  92.4425759 123.0495665  79.8723175
  92.2047076 123.7652258  79.6594783  87.4300209 115.7831552  83.6093768
  88.1846177 116.1509869  83.3710818  87.2527743 116.1571106  84.3772948
  87.5154687 115.8929740  83.6878657  86.0720930 133.8383441  88.2409261
  86.7741509 133.3235430  88.2982018  85.9918413 134.1657593  89.0456136
  86.1644690 133.8097668  88.3682053  85.7857273 118.1901871  80.3071881
  85.6032847 118.4073752  79.4812874  86.6482886 118.3040884  80.3630496
  85.8861863 118.2391769  80.1926368  85.3971705 130.0289793  87.7494869
  86.2360605 130.2612726  87.7968631  85.4283474 129.1594105  87.6801904
  85.5253423 129.9346740  87.7459514  91.4656992 115.1928282  83.3420905
  92.1943153 115.0144237  82.8959061  91.5551885 116.0346362  83.5528083
  91.5863655 115.2912160  83.3074423  95.4465293 126.1281669  87.2453199
  96.2022808 126.5613183  87.2842108  95.5527618 125.4786439  87.8187835
  95.5735464 126.0959153  87.3351225  81.4261553 126.6690959  92.2042596
  81.1599969 125.8530076  92.3633586  81.4400117 126.7144115  91.3338112
  81.3886276 126.5547864  92.0996078  98.4042947 116.9968774  90.2385030
  99.0468856 117.0666879  90.8246945  98.6565968 116.3297997  89.7364572
  98.5365079 116.9095123  90.2512309  85.3319300 121.4676044  78.8194354
  84.6177477 121.1814223  79.2316787  85.8163269 121.8072670  79.4600742
  85.2978664 121.4757693  78.9749989  86.1760160 120.2069338  94.8509604
  85.4831956 119.7366317  95.0970335  86.7920487 119.9807642  95.4251311
  86.1644690 120.1036469  94.9718756  92.5066618 129.9705998  79.1956162
  92.9217767 129.6391022  78.5040658  91.6758548 129.7374900  79.0676299
  92.4454627 129.8877254  79.0747010  81.8354967 127.4549739  89.4854340
  81.6530540 127.4296625  88.6326633  82.5704636 127.9248677  89.5243249
  81.9169031 127.5211101  89.3652259  94.9476987 124.3767817  85.1480412
  95.0423841 125.1157111  85.6020037  94.3235831 123.9485293  85.5814976
  94.8686017 124.4229138  85.2788559  81.8025877 124.3343239  89.6353407
  82.3799380 124.1979690  90.2745652  81.1039939 123.8779024  89.8898991
  81.7846899 124.2465506  89.7675697  95.2000008 126.2216557  78.3817364
  95.1180171 126.2918744  79.2472351  95.8379729 126.7846301  78.1901105
  95.2819846 126.3155528  78.4807313  88.5593180 125.9877295  87.8491890
  88.3012424 125.1549030  87.8223190  88.6141662 126.2134908  87.0084391
  88.5292957 125.8975066  87.7212027  93.6394230 118.0905746  87.9495983
  92.9350556 117.6014931  88.1079902  93.6879204 118.1028220  87.0784427
  93.5424281 118.0195394  87.8435323  87.5327892 123.5415058  88.3356785
  86.9577483 123.7007226  88.9720746  87.1563568 122.9050467  87.8725235
  87.3930704 123.4712870  88.3611343  91.2001180 122.0138407  93.1949163
  90.8115613 121.5892625  92.5401355  90.5355879 122.2620556  93.7026190
  91.0448108 121.9877128  93.1737031 100.8424449 121.7713411  85.9696993
 100.5861014 120.9593353  85.7794876 101.6853763 121.7790979  85.7427181
 100.9290475 121.6525409  85.9081811  77.2784711 123.1855132  86.3501226
  77.3644962 122.8087001  87.1314756  77.9060508 122.8115578  85.8721184
  77.3841262 123.0740614  86.3946703  95.0227542 115.7113036  90.7073148
  95.4038054 115.0291207  91.0941022  94.2190826 115.4222638  90.5248812
  94.9604004 115.5680084  90.7377203  92.3040119 126.2437011  81.3925970
  93.1180757 126.5351904  81.2808742  92.2399260 125.5896874  80.8184263
  92.4142858 126.1902206  81.2914808  88.1748027 129.7158529  86.5198282
  88.8121974 129.4770276  87.0650076  88.6003098 129.9195688  85.7851443
  88.3324193 129.7109539  86.4915440  82.8660669 131.9546865  90.4032586
  82.9064814 132.2261716  89.5752366  83.4255193 132.4788773  90.8190374
  82.9544015 132.0722620  90.3424474  88.8150842 124.9360819  80.8573172
  89.1995995 124.7168525  81.6089717  88.5662462 125.7623764  80.9874248
  88.8352914 125.0258965  80.9874248  90.5569499 130.1930951  88.1992069
  90.6308507 130.0306123  89.0533919  91.3739005 130.3821141  87.9552550
  90.6885857 130.1967694  88.2890094  84.3175255 130.5388814  85.2286512
  83.4913373 130.7850551  85.1020791  84.3787247 130.4600895  86.0948570
  84.2049422 130.5633763  85.3375457  86.5351279 116.6057755  86.1881952
  85.6673705 116.6780355  86.2539562  86.8226484 117.4079834  86.3769927
  86.4491027 116.7351902  86.2256719  95.6584168 116.7535615  94.5193274
  96.4037760 116.5645425  94.1056700  95.2421473 117.2793853  93.9607130
  95.7069142 116.8037760  94.3757847  85.9496947 127.2206393  88.2621393
  85.6610196 126.5943865  88.7967121  86.8180295 127.1626681  88.3286074
  86.0357199 127.1193938  88.3512348  96.7374845 122.3641177  88.5803375
  96.3939611 121.6431512  88.9310625  96.8367888 122.1555028  87.7381734
  96.7016888 122.2265380  88.5075055  86.1529221 128.8601645  84.1863758
  86.9075189 129.2414684  84.3999221  85.5599833 129.3112788  84.6410455
  86.1765934 128.9830472  84.2846637  87.4727447 130.0310206  89.5603874
  86.9508201 130.1710498  90.2455739  87.8601468 129.2720870  89.7505991
  87.4531148 129.9395730  89.6904950  84.4618631 120.0816015  83.6298829
  84.1743427 119.7117285  82.8930776  85.1489100 120.5510870  83.3682534
  84.5207529 120.0962984  83.4813904  88.8993773 127.0614225  84.9585365
  88.7036556 127.6688959  84.3645668  89.1228118 126.3682169  84.4777039
  88.9028414 127.0491750  84.8001446  87.2972303 123.9468963  85.0766233
  88.0194955 124.1110121  84.6170039  86.8180296 124.6678628  84.9705573
  87.3336034 124.0767192  84.9931847  95.2565810 120.2832762  90.4562918
  94.4176911 120.3094040  90.2201181  95.3270178 120.9303497  91.0368265
  95.1434204 120.3828887  90.5072035  93.7035089 117.1818139  85.1890534
  94.4061442 116.9825887  84.7110492  93.4379277 116.4094081  85.4959378
  93.7681721 117.0381105  85.1635976  99.1323334 125.4900748  87.7424160
  99.0457309 125.6456174  88.5958939  98.6773814 126.1338824  87.3683565
  99.0526591 125.6076503  87.8131267  82.0346826 120.8597227  84.4784110
  82.1362962 121.6623388  84.8065085  82.8302713 120.6584563  84.1807190
  82.1674732 120.9483126  84.4819465  88.4663645 118.4453424  94.2421415
  88.2746842 118.4608558  95.0920838  89.3162241 118.6417098  94.2188070
  88.5639367 118.4767775  94.3644710  82.8510558 120.9744405  92.2205231
  82.7096050 120.1228346  92.3449739  83.1351121 121.0173066  91.3967437
  82.8718404 120.8544155  92.1172855  93.0049150 122.8111495  86.3649719
  92.7583865 122.7307246  87.1986508  93.3334273 122.0264963  86.1712247
  93.0170394 122.6837761  86.4597243  91.3767872 118.6408933  94.4493238
  91.8340486 119.3732907  94.5766030  91.4524201 118.2175398  95.2080494
  91.4558842 118.6866171  94.5794314  83.6200863 118.8874753  95.5382682
  83.0843053 118.2755111  95.8543449  83.6818628 119.4622889  96.1916348
  83.5496496 118.8821681  95.6818108  95.8495198 111.8198808  88.3187081
  95.9678766 112.2775272  87.5854384  95.6757374 111.0144070  88.0323298
  95.8414369 111.7692580  88.1688014  89.2550250 120.6311037  91.2935062
  88.4646325 120.4502497  91.6152398  89.6510873 119.8537990  91.2765356
  89.1967126 120.4898498  91.3387610  93.7416141 129.4598811  76.7341776
  94.5089126 129.5198936  76.3247627  93.2947450 128.8879253  76.2498094
  93.7889568 129.3835387  76.6019486  94.6393936 128.2653467  89.0194508
  93.9638938 128.0338699  89.5207895  94.6486312 127.6574650  88.3936613
  94.5412441 128.1412392  89.0010660  90.4507174 125.8003436  89.9174764
  90.0269423 126.0007935  89.1813782  90.2752029 124.9532284  90.0299064
  90.3618055 125.7052217  89.8248454  85.7389619 126.2955487  85.3502736
  85.8954238 126.2302290  86.2058728  86.0790212 127.0704040  85.1381416
  85.8122854 126.4004685  85.4457330  92.2768764 125.6713371  84.2196099
  92.8184309 125.1683752  84.6834720  92.5915323 125.6178565  83.4085585
  92.4033161 125.5892791  84.1679912  90.4455213 131.0630722  81.5036127
  90.5148034 130.2045261  81.6429128  91.2243669 131.2802603  81.1755152
  90.5708063 130.9683586  81.4753285  82.3123881 123.4790437  85.6663503
  82.6922845 123.8974982  85.0023771  81.7379245 124.0603893  85.9732347
  82.2835205 123.6268296  85.6140244  92.8172762 113.6749611  89.2605743
  91.9466320 113.6488332  89.2139052  93.0713103 113.5026803  88.4431588
  92.7266322 113.6459754  89.1325879  89.7890741 125.7317578  78.1978886
  90.0783266 126.5082460  78.4722460  89.8762540 125.2206309  78.8993385
  89.8444997 125.7709496  78.3421384  89.8421902 115.6855839  90.7179213
  89.3260391 114.9936031  90.8430792  89.2815831 116.3526616  90.6641812
  89.6828415 115.6819097  90.7285279  91.9114136 116.2248799  92.5472066
  91.5245889 116.2497831  93.3285596  91.4247073 115.6590478  92.0946582
  91.7826645 116.1444550  92.5959969  91.5771277 113.1115785  94.8382326
  92.2064395 113.6476085  94.5603396  91.7457140 113.0193144  95.6895891
  91.6949072 113.1777147  94.9230854  85.9554682 125.0450842  90.2978998
  85.1142689 124.9454716  90.5057892  86.1644690 125.8146322  90.6493319
  85.8619375 125.1442886  90.3806313  83.4330249 122.6670379  88.1263749
  83.0386947 122.7413391  87.3513858  82.8770366 123.0528326  88.6772110
  83.2933061 122.7352154  88.0931408  95.0695196 115.6451673  87.8067627
  95.2744789 115.5773981  88.6524625  94.7421620 116.4510494  87.7388805
  95.0510444 115.7537614  87.9227283  89.7671347 122.9732241  89.5476595
  89.4634485 122.4188230  90.1487003  89.0650768 123.1524451  89.0604630
  89.6187557 122.9177024  89.5646301  88.8237444 120.2832761  84.1121297
  89.0997178 119.5651674  83.6998865  89.4236113 120.8817681  83.9042403
  88.9530709 120.2653132  84.0202058  98.3228884 116.1983437  87.2870393
  97.7103197 116.6853840  87.6724125  98.4193058 115.5226928  87.8308044
  98.2466781 116.1701746  87.4249251  92.3247965 117.9546279  82.3867892
  92.7791711 118.1256839  83.1115737  92.7988010 117.3414389  81.9865668
  92.4616285 117.8897164  82.4341654  85.8463490 127.4394605  91.7170631
  85.2551423 128.0804103  91.6873646  86.6084514 127.8632222  91.6901930
  85.8711751 127.5970443  91.7085778  86.2424113 118.5996602  92.3838648
  86.7025594 118.6735532  93.1213772  86.2880220 119.3977856  92.0338470
  86.3174668 118.7290749  92.4411405  89.6660985 124.6588813  83.4912899
  90.4103030 125.0463089  83.7295849  89.8121681 123.8146238  83.6553387
  89.7971570 124.5919286  83.5506869  91.5840560 116.4539072  88.5244761
  90.7376605 116.6261880  88.3986111  91.5811693 115.6488416  88.8610589
  91.4587710 116.3600101  88.5555888  92.6538860 120.2314286  89.3906819
  92.1798815 119.7056048  89.9012130  93.0256996 119.6843759  88.8221680
  92.6388749 120.0730283  89.3821966  83.0311891 122.2285793  94.7590365
  83.8937504 122.1281502  94.6727694  82.7003674 121.6480502  94.1975937
  83.1097087 122.1277420  94.6635770  94.5822360 121.1250841  82.4532573
  94.0545379 121.2079585  81.7638281  95.0418068 121.8668712  82.4497217
  94.5724211 121.2471503  82.3507268 100.9180778 122.0718119  88.7542858
 100.6790548 122.0313953  87.9163643 101.0814679 122.9189271  88.8808580
 100.9071082 122.1910204  88.6496340  86.3913677 121.0528242  91.4200783
  85.7666747 121.0646634  90.8126735  86.0559271 121.5288417  92.0692023
  86.2499168 121.1246759  91.4257351  86.5755425 119.3953360  77.4773468
  86.2268230 120.0473086  77.9405017  86.0951871 119.3810473  76.7497339
  86.4525669 119.4896414  77.4384559  83.1039352 129.1128702  92.8604547
  82.5739277 128.4221141  92.9099522  83.3764445 129.1038887  92.0317256
  83.0664074 129.0095834  92.7451963  85.6604422 122.6621390  93.6375651
  85.8197909 121.9064714  94.0427373  85.4797316 123.2112329  94.2916389
  85.6569781 122.6315203  93.7938357  93.6024725 114.8282625  94.1926441
  93.1065286 115.0246300  93.5018007  94.3593787 115.2275294  94.0215242
  93.6411550 114.9160359  94.0646577  90.8727605 118.5024971  90.7829751
  90.8970092 117.9685084  90.0942531  91.1239078 117.9942280  91.4455342
  90.9137523 118.3485875  90.7794396  78.3835194 125.7856466  90.2172895
  78.2778643 125.7403311  89.3524979  77.6335414 126.1310247  90.4987180
  78.2570797 125.8297374  90.1310225  87.1528927 117.2295789  90.1635496
  87.1927298 117.7304996  90.8770203  86.3278591 117.3206183  89.8941419
  87.0368453 117.3177606  90.2286034  88.5743290 123.7456299  92.4609395
  87.7435220 123.9130117  92.2544643  88.5194807 123.3692250  93.2458280
  88.4432705 123.7146031  92.5457923  86.3827073 117.2365192  98.0965805
  87.0079777 116.6927325  98.3695238  85.9277553 116.7560110  97.5273596
  86.4075334 117.0854674  98.0527399  86.9479334 122.0211891  82.9899512
  87.0882295 122.5184355  83.6928154  87.4461867 121.3198185  83.1313726
  87.0420415 121.9913870  83.1151091  86.9779556 122.8879002  80.3192089
  87.6124636 123.4839427  80.2541551  87.0605167 122.5882459  81.1337959
  87.0836107 122.9319910  80.4295176  88.5558539 118.8192977  80.2937531
  88.8774380 118.3396060  79.6396793  88.8185483 119.6292623  80.1028343
  88.6424565 118.8682875  80.1693023  93.9517694 118.2065171  92.6561010
  94.3772766 117.7537698  92.0444537  93.3374687 117.6525242  92.9325798
  93.9246340 118.0579147  92.6066035  83.4832544 125.0846843  83.5881635
  83.9924774 125.6811350  83.9692941  83.9566817 124.8172816  82.9058055
  83.6275920 125.1332658  83.5436158  92.3911917 114.6780271  86.0651587
  91.7480235 114.5277917  86.6336726  92.0511324 114.4322616  85.3000692
  92.2456994 114.6192393  86.0354602  96.9811263 122.6339698  85.4881596
  96.3102453 123.1769400  85.3594661  97.6751014 123.1034553  85.2463291
  96.9840131 122.7837969  85.4337124  97.1439391 119.0895581  88.3971969
  97.4967001 118.6625304  89.0717768  96.2854192 119.0046425  88.5273045
  97.0688836 119.0140322  88.5166979  85.8423076 121.7203101  86.4554816
  85.1235065 122.1367234  86.7227679  86.2135438 122.2857340  85.9046454
  85.7915008 121.8652383  86.4137623  91.6169650 120.7601101  81.7928195
  91.0234490 121.0818098  81.2412762  91.6544928 119.9142196  81.5849301
  91.5344039 120.6825429  81.6810966  98.5763451 114.2113993  89.3256282
  98.0694316 113.5043133  89.2577459  99.3730885 113.8807182  89.4557358
  98.6190690 114.0587145  89.3355276  94.4927467 120.7180606  85.2229945
  94.2641160 120.7413307  84.3808303  94.7525543 119.8938073  85.3424956
  94.4973655 120.5996685  85.1155143  87.5472229 119.2557152  86.5184141
  88.0229596 119.6174232  85.8834322  87.0460829 119.9113619  86.7984284
  87.5437588 119.4051341  86.4660882  80.5214475 123.9199519  92.7345897
  79.9741194 123.2500165  92.8526765  81.3106853 123.5529367  92.7989364
  80.5566658 123.7664506  92.7614598  89.5898883 121.3998352  79.8857525
  89.9697847 121.4177981  79.1008640  88.8491479 121.8452340  79.7648372
  89.5367720 121.4680126  79.7521093  97.2184173 119.7080543  85.4733104
  97.2178400 119.5529199  86.3317380  97.0140353 120.5543530  85.4174489
  97.1883951 119.8101164  85.5921043  79.2801444 123.1320327  89.8891920
  79.1023205 122.6796936  90.6146836  78.9920466 123.9346489  90.0730398
  79.2114397 123.1842885  90.0235423  94.9425025 124.3878045  89.1269310
  95.4378690 123.6701040  89.0873331  94.1324801 124.0848842  89.0123797
  94.8968918 124.2375691  89.1043036  90.3883637 128.2375858  81.2766315
  89.5794959 127.9142531  81.2299624  90.8958546 127.5309080  81.2094564
  90.3433303 128.0857174  81.2596609  81.0173914 125.6648051  87.0013679
  80.1519433 125.6533741  86.8896450  81.1172730 125.4778274  87.8484818
  80.9048081 125.6354112  87.1102624  90.5124938 115.6243467  95.1005691
  90.6452844 114.8274460  95.4286667  90.8970091 116.1509870  95.6803967
  90.5881267 115.5843384  95.2349194  93.5857294 112.5473793  91.6986785
  92.7803257 112.4371523  92.0154623  93.4564029 112.6486249  90.8416651
  93.4477426 112.5457463  91.6194825  97.0423254 118.7119285  92.2926482
  96.4586243 119.2128492  91.8804049  97.3627548 118.2048841  91.6590805
  97.0036429 118.7111120  92.1384989  89.5818053 117.6259880  82.5685156
  90.4033748 117.7958193  82.3266851  89.1187704 117.7807141  81.8451454
  89.6349216 117.6741613  82.4256801  88.1713385 115.6202642  93.3483585
  88.7157798 115.2793769  93.9387927  88.2250321 116.4788104  93.4904870
  88.2602505 115.6957901  93.4565459  83.9843944 129.3819058  90.2222393
  84.5888801 129.3414892  89.5936214  83.7771256 130.2290210  90.2526449
  84.0432841 129.5007061  90.1338510  79.2195226 128.3653676  90.0921316
  79.1219504 127.5549947  90.4011373  80.0024096 128.3445469  89.7067584
  79.3211363 128.2420766  90.0808179  33.1524105   7.6130831  71.3367554
  33.1218110   8.4675467  71.5085823  33.7505454   7.3126123  71.8953697
  33.2361263   7.6947327  71.4442356  26.3523790   6.7006482  76.0920484
  25.4961686   6.8614980  76.1429601  26.3991444   5.8298546  76.1125545
  26.2322902   6.5957284  76.1026550  20.7364930  16.2369200  71.8557716
  19.9847829  15.8584738  71.6273761  21.1850942  16.2687633  71.1076526
  20.6914597  16.1854807  71.7115218  29.6617507  12.9693007  85.6980940
  30.3684274  12.4745038  85.8267875  29.8505442  13.4102089  84.9683598
  29.7945412  12.9611358  85.6089986  26.1889890  16.6594569  67.2843263
  25.8541258  17.3371491  66.8487485  26.7016760  16.2699880  66.6960134
  26.2155471  16.7019147  67.1330054  25.7294181  18.6108838  73.2254374
  26.1133560  19.1795736  72.6859150  25.6653322  17.8858348  72.7460190
  25.7767608  18.5884301  73.0748237  29.1975611   8.7598526  78.7352136
  29.7431571   9.4383612  78.7946105  29.1392488   8.6185986  77.8753717
  29.2691526   8.8390527  78.6164196  22.3149686  16.2487592  74.1220488
  22.4160049  15.4387946  74.4317616  21.7191431  16.1544538  73.4920167
  22.2422225  16.1152620  74.0746727  30.9740680  10.1883133  69.6085864
  30.8580206  10.9390819  70.0378002  31.7696567   9.9307086  69.8581951
  31.0745269  10.2617980  69.7089955  22.1550426  21.1665181  75.5235344
  22.7987881  21.6078345  75.9131503  22.4806681  20.3618607  75.4365603
  22.2982254  21.1130376  75.5680821  15.5114730  12.2707878  73.7472822
  15.2764915  11.4375531  73.6405091  15.6500371  12.5512544  72.9334023
  15.4970393  12.1891382  73.6115177  22.8571005  14.1777156  70.8955206
  23.1786846  14.7182363  70.2916514  23.5043102  13.6073927  71.0277496
  22.9997061  14.1736331  70.8262241  24.9072713   6.1793151  70.9789593
  25.6052878   6.3581278  71.4711056  25.2225046   5.6563490  70.3559982
  25.0568051   6.1286923  70.9591603  17.5373951   7.9845891  78.8900699
  17.4132648   8.5708336  79.5250517  18.1892235   7.4906086  79.1912973
  17.6147600   7.9984695  79.0286628  25.0960649  12.5663596  70.9669384
  25.5354284  11.9580696  71.4124157  24.9465312  12.1870969  70.1954849
  25.1382115  12.4202067  70.9188551  22.5632292  11.1607608  78.1688210
  23.2081294  10.6680051  77.8499158  22.8034069  11.3032394  78.9954288
  22.6942877  11.1085050  78.2437743  25.1018383  14.0062513  77.8195102
  25.3841626  13.2113919  77.5981858  25.8304544  14.4843101  77.8400163
  25.2507947  13.9597110  77.7898117  28.6969985  10.9190777  67.9200153
  28.6121281  11.7751744  68.0649722  29.1854369  10.6435101  68.5882312
  28.7558883  11.0048098  68.0402235  29.6288419   7.5375571  69.4197888
  29.0999890   7.7535205  70.0795195  30.1513439   8.2311710  69.3398858
  29.6276872   7.6718708  69.5053488  35.0836472  13.1121876  74.7930933
  34.2534175  13.3232519  74.9564349  35.0345724  12.2858930  74.5173217
  34.9543207  13.0211482  74.7768298  21.5188026  11.4338788  68.2205356
  20.9345242  11.9388819  68.6271220  21.1158122  11.2081175  67.4801948
  21.3727330  11.4747036  68.1710382  17.0732055  17.1493549  75.0229028
  16.5899633  17.8744039  74.9988612  17.8855373  17.4469679  75.1339186
  17.1222803  17.2995903  75.0356307  23.1446209  15.9425730  77.6278842
  22.6273151  15.5833145  77.0240151  23.8420600  15.4187904  77.6384909
  23.1711790  15.8123418  77.5409101  26.8009801  16.3920544  83.5895015
  26.8893147  16.2046684  84.4373226  27.2299514  15.7457973  83.1899862
  26.8771903  16.2683551  83.6566767  24.3680261  15.6751704  82.5712678
  23.8051096  15.2624314  83.0952339  25.1301284  15.6004609  82.9905821
  24.3974709  15.6029104  82.7105678  25.9765241   7.6804440  66.6974277
  26.2161245   7.8882424  65.8849620  26.2981082   6.8761949  66.8063222
  26.0602399   7.5918541  66.5934830  19.9276252  17.6649725  75.1749308
  20.6296832  17.1501714  75.2322064  19.8473735  17.9923876  75.9796183
  20.0200013  17.6363951  75.3022100  34.5790430   5.7592276  78.5881354
  33.7418851   5.8294463  78.8228949  34.5478661   5.7616771  77.7155657
  34.4508712   5.7702503  78.4940902  20.9755159   7.9025312  84.3029723
  21.1475663   7.7931206  85.1515004  21.5124516   8.5479717  84.0660915
  21.0800163   7.9817314  84.3934820  19.2527028  13.8556077  74.6834916
  20.0915927  14.0879010  74.7308677  19.2838797  12.9860388  74.6141951
  19.3808745  13.7613023  74.6799561  19.8779731  14.2756952  78.9848221
  20.4177956  14.1328083  79.6551594  19.1949677  14.6753703  79.3532248
  19.8571885  14.3136623  79.1382643  29.3020616   9.9547953  74.1793246
  30.0578131  10.3879467  74.2182154  29.4082940   9.3052722  74.7527882
  29.4290786   9.9225437  74.2691271  32.3400787  13.7821230  74.9295649
  31.9036019  13.7857972  75.6854620  32.0063702  14.4626729  74.4975226
  32.2263407  13.8833686  74.9776481  26.9129860  15.8229563  86.2538799
  27.6970277  15.9360411  86.6194541  26.7126455  14.9970700  86.4497485
  26.9995886  15.7176282  86.3373185  15.2816876  10.4957243  79.1382643
  15.0155291   9.6796360  79.2973633  15.2955440  10.5410398  78.2678158
  15.2441598  10.3814148  79.0336125  32.2598270   0.8235058  77.1725077
  32.9024178   0.8933162  77.7586992  32.5121290   0.1564281  76.6704619
  32.3920402   0.7361406  77.1852356  27.0700254  17.7339665  79.9005255
  26.2715499  17.4939165  80.1579123  27.5186265  17.7854058  80.6472302
  27.0174865  17.7062056  80.0490179  35.4745133  10.5002150  73.8215286
  36.1361567   9.9392818  73.7211194  34.8336545  10.0054181  74.1467977
  35.4774000  10.3438559  73.8547626  26.3621941  13.7972281  66.1296209
  26.7773089  13.4657305  65.4380705  25.5313870  13.5641184  66.0016346
  26.3009949  13.7143537  66.0087057  15.6910289  11.2816022  76.4194387
  15.5085863  11.2562908  75.5666679  16.4259958  11.7514960  76.4583296
  15.7724353  11.3477385  76.2992306  31.7609964  11.5167532  73.5627275
  31.9965553  11.6612731  72.7354125  31.9099527  12.2809940  73.9558788
  31.8175767  11.6506587  73.4990879  18.7556041   8.0001025  82.9276496
  19.4796013   7.9854056  83.4141391  18.8572178   8.7096380  82.4298464
  18.8774250   8.1025728  82.9255283  33.5900420  10.3569198  71.3996879
  33.9208638  10.8896838  70.7936973  34.1633509  10.4108086  72.0558830
  33.7234100  10.4438767  71.4074660  26.1300991  11.4800110  87.7925443
  25.3373971  11.7943622  87.9778063  26.2449918  11.6951578  86.9546227
  26.0296401  11.5583946  87.6963778  28.8032310   8.2034101  72.0820459
  28.8979164   8.9423395  72.5360084  28.1791153   7.7751576  72.5155023
  28.7241340   8.2495422  72.2128606  27.0584783  11.3820314  82.7310740
  27.6323645  10.7447558  82.8859303  26.9799587  11.3824396  81.8620397
  27.1318018  11.2885425  82.6257150  29.0555331  10.0482841  65.3157411
  28.9735493  10.1185028  66.1812398  29.6935051  10.6112585  65.1241151
  29.1375168  10.1421812  65.4147360  22.4148502   9.8143579  74.7831937
  22.1567746   8.9815314  74.7563236  22.4696985  10.0401192  73.9424437
  22.3848280   9.7241350  74.6552074  27.4949552   1.9172029  74.8836030
  26.7905879   1.4281215  75.0419949  27.5434526   1.9294504  74.0124474
  27.3979604   1.8461677  74.7775369  21.3883214   7.3681341  75.2696832
  20.8132805   7.5273510  75.9060793  21.0118890   6.7316750  74.8065282
  21.2486027   7.2979154  75.2951390  25.0556503   5.8404690  80.1289210
  24.6670936   5.4158908  79.4741401  24.3911201   6.0886840  80.6366237
  24.9003431   5.8143412  80.1077078  34.6979772   5.5979695  72.9037040
  34.4416337   4.7859637  72.7134923  35.5409086   5.6057262  72.6767228
  34.7845797   5.4791693  72.8421857  26.1595441  10.0703295  68.3266017
  26.9736080  10.3618188  68.2148788  26.0954582   9.4163157  67.7524310
  26.2698180  10.0168490  68.2254854  32.3804931  12.7529291  82.7395593
  32.1443569  11.9217356  82.6207653  33.0248160  12.7014898  83.3250437
  32.4399602  12.6226979  82.8081486  22.0303349  13.5424812  73.4538329
  22.6677296  13.3036560  73.9990123  22.4558421  13.7461971  72.7191490
  22.1879516  13.5375823  73.4255487  16.7215992  15.7813149  77.3372633
  16.7620137  16.0528000  76.5092413  17.2810516  16.3055057  77.7530421
  16.8099338  15.8988904  77.2764521  22.6706164   8.7627102  67.7913219
  23.0551317   8.5434809  68.5429764  22.4217785   9.5890048  67.9214295
  22.6908237   8.8525248  67.9214295  33.4041352  12.5373740  78.8023887
  33.0987169  13.2701797  79.1637203  32.6847568  12.1311669  78.5216673
  33.2528694  12.5855473  78.8137024  24.4124821  14.0197235  75.1332115
  24.4863830  13.8572407  75.9873965  25.2294328  14.2087425  74.8892597
  24.5441180  14.0233977  75.2230141  39.1043144   9.1766741  78.1292232
  39.0367644   9.1962700  77.2594818  39.0898806  10.0197068  78.3547902
  39.0921900   9.3040475  78.0344708  18.1730578  14.3655098  72.1626559
  17.3468696  14.6116835  72.0360838  18.2342569  14.2867179  73.0288617
  18.0604745  14.3900047  72.2715503  29.5139490   0.5801898  81.4533321
  30.2593082   0.3911709  81.0396746  29.0976795   1.1060136  80.8947177
  29.5624465   0.6304044  81.3097894  22.9529407  16.9831978  69.8645589
  23.2427705  16.5920959  69.1404815  23.6832888  17.1648683  70.3050864
  23.1036291  16.9525792  69.8228396  36.8901761   7.9511127  76.4038826
  37.4409683   7.3179196  76.6435918  36.8745877   8.4826520  77.0954330
  36.9686958   7.9360075  76.5417684  23.5424152  11.7849724  80.9498719
  23.0435846  12.4965492  81.0283608  24.3524376  12.1050391  80.9116882
  23.5880259  11.9376573  80.9555288  20.8935323  18.9599361  72.9305739
  20.6735618  18.6696715  73.7232406  20.6729845  18.3014316  72.4023651
  20.8282917  18.8199069  72.9694647  19.8052270  11.0472677  75.1961440
  19.5165518  10.4210148  75.7307168  20.6735618  10.9892964  75.2626121
  19.8912522  10.9460221  75.2852395  30.5930168   6.1907460  75.5143422
  30.2494933   5.4697796  75.8650672  30.6923210   5.9821312  74.6721780
  30.5572210   6.0531664  75.4415102  23.0603278  20.3328750  71.7136431
  23.7127336  19.8005193  71.9427457  22.3628887  19.9797403  72.1004305
  23.0533996  20.2018273  71.8048599  20.0084543  12.6867928  71.1203805
  20.7630511  13.0680967  71.3339268  19.4155156  13.1379072  71.5750502
  20.0321257  12.8096755  71.2186684  31.0543197  12.6533165  71.0567410
  31.6201229  13.3126374  70.9725953  30.4071100  12.9982863  71.5283812
  31.0421953  12.8015106  71.1140167  22.4691210   4.6430768  86.2461018
  21.6590986   4.9488548  86.1350860  22.9465897   5.3636351  86.3613602
  22.4194689   4.7945370  86.2468089  21.3282770  13.8576489  76.4943921
  20.8063523  13.9976781  77.1795785  21.7156790  13.0987154  76.6846038
  21.3086471  13.7662013  76.6244997  27.5249775  15.5971949  70.4804489
  27.2836451  14.8639809  70.0731554  27.7051108  16.1458806  69.8270823
  27.5157399  15.5694340  70.3234712  22.7549095  10.8880509  71.8925412
  22.5591878  11.4955243  71.2985715  22.9783441  10.1948453  71.4117086
  22.7583736  10.8758034  71.7341493  21.1527625   7.7735246  72.0106280
  21.8750277   7.9376405  71.5510086  20.6735618   8.4944911  71.9045620
  21.1891356   7.9033476  71.9271894  29.1121133   4.1099045  77.3902965
  28.2732234   4.1360324  77.1541228  29.1825500   4.7569781  77.9708312
  28.9989526   4.2095171  77.4412082  18.8035242  10.1793319  81.1160420
  19.3156339  10.4577572  80.4669180  18.5171585  10.9182613  81.4823233
  18.8370105  10.3295673  81.0750298  27.5590411   1.0084422  72.1230581
  28.2616764   0.8092171  71.6450539  27.2934600   0.2360365  72.4299424
  27.6237044   0.8647388  72.0976023  32.9878657   9.3167032  74.6764207
  32.9012631   9.4722458  75.5298986  32.5329137   9.9605108  74.3023612
  32.9081913   9.4342787  74.7471314  26.8604473   6.6377779  73.2989766
  26.6139187   6.5573530  74.1326555  27.1889596   5.8531247  73.1052294
  26.8725716   6.5104044  73.3937289  30.7552522  13.3461138  77.0876548
  30.6166881  14.0442184  77.5925290  29.9752520  13.1909795  76.7312729
  30.6195749  13.4261305  77.1102822  29.0930607   9.6457514  83.3398929
  29.0878645   8.7737330  83.3441356  29.7991601   9.8445683  82.8668385
  29.1975611   9.5461388  83.2705965  22.8201500   9.3734498  82.7112749
  22.9644876   9.9535706  82.0755859  23.1677149   9.7510794  83.4162604
  22.8928961   9.5155202  82.7211744  24.9921417   8.5724666  80.4937881
  24.2444732   8.7655680  80.0886159  25.1462943   7.7469886  80.2562002
  24.9043845   8.4789777  80.3983287  21.8929255  17.5637269  79.5773776
  22.0418819  17.0040185  78.9247181  22.6729257  17.6429271  79.9606295
  22.0303349  17.4922835  79.5370725  32.2505895  12.7039392  67.8493047
  31.8712703  11.9176530  67.8422336  31.5872140  13.2526249  67.7064691
  32.0964369  12.6684216  67.8273844  24.4182556  17.7351912  80.8558267
  24.3426227  17.0660723  81.4109055  24.3472415  18.4369701  81.3698933
  24.3963163  17.7396820  81.0135115  25.2323195   2.4675217  81.3833285
  25.6895809   3.1999191  81.5106077  25.3079523   2.0441682  82.1420541
  25.3114164   2.5132455  81.5134361  25.0752803  16.2552911  71.6881873
  25.8402694  15.9862555  71.3664537  24.9730893  15.7702922  72.4051936
  25.1734298  16.1442476  71.7461701  23.1105572   4.4577321  78.2275109
  22.3201647   4.2768781  78.5492445  23.5066195   3.6804273  78.2105403
  23.0522449   4.3164782  78.2727657  27.5971463  13.2865095  63.6681822
  28.3644448  13.3465220  63.2587674  27.1502772  12.7145536  63.1838141
  27.6444890  13.2101671  63.5359533  28.4949259  12.0919751  75.9534555
  27.8194261  11.8604983  76.4547942  28.5041635  11.4840934  75.3276660
  28.3967763  11.9678676  75.9350707  25.6243403   6.9337580  82.7098608
  25.5602544   7.7947536  82.5818744  25.7640590   6.6169573  81.9094159
  25.6358873   7.0137746  82.5726821  30.4965993  14.9484883  68.1844733
  30.5785831  15.7551869  67.8606183  30.9815735  14.9680842  68.9085506
  30.5803151  15.0705546  68.2431631  24.3062497   9.6269719  76.8514811
  23.8824746   9.8274218  76.1153829  24.1307352   8.7798567  76.9639110
  24.2173377   9.5318501  76.7588501  23.8074190  21.1420232  79.3136268
  24.2970120  20.4431021  79.1311932  23.2358422  20.8444102  79.9012325
  23.7958720  20.9946456  79.3737309  19.5944942  10.1221771  72.2842783
  19.7509561  10.0568573  73.1398775  19.9345535  10.8970323  72.0721463
  19.6678176  10.2270969  72.3797377  26.1324086   9.4979654  71.1536146
  26.6739632   8.9950035  71.6174767  26.4470645   9.4444849  70.3425632
  26.2588483   9.4159075  71.1019958  30.0041194  13.7082302  88.2663058
  30.8176059  13.4367450  88.4268191  29.8436160  13.4089841  87.4623254
  30.1011142  13.6237228  88.1708464  24.3010536  14.8897006  68.4376174
  24.3703356  14.0311544  68.5769175  25.0798991  15.1068887  68.1095199
  24.4263386  14.7949870  68.4093332  27.2813356   4.3915959  81.2058447
  27.4955325   3.7526873  80.6521801  26.6647255   4.8361783  80.7766309
  27.2218685   4.3626102  81.0608878  28.6918023  17.3134707  72.6512668
  28.2997815  17.0101422  71.9335534  28.8471096  18.1503797  72.4617621
  28.6571613  17.3918544  72.5169165  29.4452444   6.0005024  82.1441754
  28.6329125   5.6930914  82.2254927  29.9042378   5.5204024  82.7084466
  29.3932828   5.8841516  82.2396348  28.8557698  13.8784696  72.5918698
  28.4972353  14.0499339  73.3682731  28.3696409  14.3397901  72.0346697
  28.7316395  13.9723667  72.6243967  23.6446064   9.5583861  65.1318933
  23.9338588  10.3348744  65.4062507  23.7317862   9.0472593  65.8333432
  23.7000320   9.5975780  65.2761430  26.5405951   7.4065095  86.9270456
  27.0105582   8.0307212  87.3138330  26.5867831   6.7382071  87.4863671
  26.6173827   7.3999776  87.0670528  30.0162438  14.7688592  83.5385899
  30.6542158  14.2748787  83.2048355  29.3736529  14.6965992  82.9538126
  30.0156664  14.6847600  83.4028254  31.7419438   6.6177738  78.1051815
  31.3147046   6.5304086  77.3499914  31.1045491   6.7255513  78.6906659
  31.5849045   6.6210398  78.0797256  25.2340515   1.7253263  84.0448784
  26.0613944   1.4538412  84.1007398  25.2548361   2.5214105  84.4012602
  25.3593365   1.8033017  84.1063967  30.0716694  15.4608400  80.1791256
  30.8609072  15.1097465  80.2993337  30.2460292  16.2744788  79.9167890
  30.2136976  15.5294257  80.1579124  19.8110005   8.8717126  77.2319045
  18.9698011   8.7721000  77.4397939  20.0200013   9.6412606  77.5833365
  19.7174697   8.9709169  77.3146360  28.9250518  -0.5282043  74.7407674
  29.1300112  -0.5959735  75.5864671  28.5976942   0.2776778  74.6728852
  28.9065766  -0.4196103  74.8567329  23.6226669   6.7998525  76.4816642
  23.3189807   6.2454513  77.0827050  22.9206090   6.9790735  75.9944676
  23.4742879   6.7443307  76.4986348  22.6792767   4.1099045  71.0461344
  22.9552501   3.3917957  70.6338912  23.2791436   4.7083965  70.8382450
  22.8086031   4.0919416  70.9542105  21.6845020  14.0148246  81.1888740
  21.5765375  14.0250308  82.0550798  21.8940802  14.8403026  80.9993694
  21.6995132  14.1389321  81.2892832  32.1784206   0.0249721  74.2210440
  31.5658520   0.5120123  74.6064172  32.2748381  -0.6506788  74.7648091
  32.1022104  -0.0031970  74.3589298  26.1803287   1.7812562  69.3207939
  26.6347034   1.9523123  70.0455784  26.6543333   1.1680673  68.9205715
  26.3171607   1.7163447  69.3681701  19.7018812  11.2660888  78.6510678
  19.1106746  11.9070386  78.6213693  20.4639836  11.6898505  78.6241977
  19.7267073  11.4236727  78.6425825  35.8209234  11.0966658  79.6487956
  35.8792358  11.5453307  80.3947932  35.1875702  11.5065471  79.2118036
  35.7360529  11.2240392  79.6940504  29.4608329  16.7170200  76.0842702
  29.2628017  17.2061014  75.3898913  28.8396040  16.9211441  76.6626835
  29.3395893  16.8186738  76.0665925  23.5216307   8.4855097  70.4252946
  24.2658352   8.8729373  70.6635896  23.6677003   7.6412522  70.5893434
  23.6526892   8.4185569  70.4846916  26.5094183   4.0580570  76.3246866
  26.0354137   3.5322332  76.8352177  26.8812319   3.5110043  75.7561727
  26.4944072   3.8996566  76.3162013  32.7730914   9.1182946  77.7353646
  32.5329136   8.2789361  77.7396073  33.2522921   9.1983112  78.4594420
  32.8083097   9.0064345  77.8428448  28.4377683   4.9517124  69.3872619
  27.9100701   5.0345868  68.6978328  28.8973391   5.6934996  69.3837264
  28.4279533   5.0737787  69.2847315  34.7736101   5.8984403  75.6882905
  34.5345870   5.8580237  74.8503690  34.9370002   6.7455555  75.8148626
  34.7626404   6.0176488  75.5836387  31.3782131  10.2834352  81.6187950
  32.1016330   9.8306878  81.4398970  31.1132093  10.5639018  80.8360278
  31.4463404  10.2585321  81.4766666  16.9594675  12.9394986  79.7944594
  16.4294599  12.2487425  79.8439569  17.2319768  12.9305171  78.9657302
  16.9219397  12.8362117  79.6792010  27.9914765  13.5220688  68.5182276
  28.7148964  13.9878801  68.3746850  27.5515356  13.5894298  67.7679873
  28.0330457  13.6004525  68.3867058  27.1600920  10.3818230  79.7682965
  26.5457913   9.8376281  80.0631601  27.6768205   9.8682467  79.2888782
  27.1456583  10.2254639  79.7407194  26.3997217  11.4522500  77.5027264
  25.9724825  10.8272219  77.0692700  26.3922162  11.1697422  78.3286271
  26.3356359  11.3175281  77.5607092  19.5159744   6.4887673  80.5715698
  19.6753231   5.7330997  80.9767420  19.3352638   7.0378613  81.2256436
  19.5125103   6.4581487  80.7278404  24.7282927   2.3291255  77.7169798
  24.7525414   1.7951367  77.0282578  24.9794401   1.8208564  78.3795389
  24.7692846   2.1752159  77.7134443  23.1913862  10.6222813  85.1995837
  22.3409493  10.7594527  85.3353482  23.3541990   9.8886591  85.6443539
  23.0897726  10.5336914  85.2851436  22.4298613   7.5722583  79.3949441
  21.5990542   7.7396401  79.1884690  22.3750130   7.1958534  80.1798327
  22.2988028   7.5412314  79.4797970  20.8034656   5.8478174  69.9239559
  20.9437618   6.3450639  70.6268200  21.3017189   5.1464469  70.0653773
  20.8975737   5.8180153  70.0491138  20.8334879   6.7145285  67.2532136
  21.4679958   7.3105711  67.1881598  20.9160490   6.4148743  68.0678006
  20.9391430   6.7586194  67.3635223  33.8117445   9.2460763  80.1218500
  34.4035285   9.8858014  80.1536698  34.2476439   8.5483800  80.4110567
  33.9635876   9.2379113  80.1699333  25.6410834  13.6678135  80.7476394
  25.1335926  14.2213982  81.1917025  25.3437481  13.7286425  79.9295169
  25.5215719  13.7584446  80.6924851  27.8073017   2.0331455  79.5901057
  28.2328088   1.5803981  78.9784583  27.1930010   1.4791526  79.8665845
  27.7801662   1.8845431  79.5406082  17.3387867   8.9113126  70.5221682
  17.8480096   9.5077634  70.9032988  17.8122139   8.6439100  69.8398102
  17.4831242   8.9598942  70.4776205  28.2518615  17.5841393  68.6780338
  27.5347924  17.4102255  68.2127575  28.9025352  17.3493965  68.1455824
  28.2420465  17.5237185  68.5309555  30.8366586   6.4605981  72.4221643
  30.1657776   7.0035684  72.2934708  31.5306336   6.9300837  72.1803337
  30.8395454   6.6104253  72.3677170  24.8853320  18.6002693  77.6533401
  24.6618974  17.8421523  78.0217427  24.3963163  18.6300715  76.9313841
  24.7796769  18.4924918  77.6010142  30.9994713   2.9161865  75.3312016
  31.3522324   2.4891588  76.0057815  30.1409515   2.8312709  75.4613092
  30.9244158   2.8406606  75.4507026  19.6978398   5.5469385  73.3894862
  18.9790388   5.9633517  73.6567726  20.0690761   6.1123624  72.8386501
  19.6470330   5.6918666  73.3477669  28.9977979   6.1797234  79.2796858
  28.9775907   5.9980529  80.1331637  29.0457180   7.0509252  79.2556442
  29.0012620   6.2813772  79.4020153  26.9424309  12.7684426  85.2045335
  26.9020164  12.1234103  84.6190491  27.7547627  12.7121043  85.5170747
  27.0567463  12.6643393  85.1642284  23.5331777  18.8203152  75.1070486
  23.1192175  18.1577282  74.7174327  24.2179151  18.9681010  74.5866180
  23.5730148  18.7443810  74.9726983  26.8997071  17.9793237  75.8594102
  26.5013354  18.0895507  75.0914922  26.2848290  18.1875303  76.4420662
  26.7495960  18.0266805  75.8325401  25.4724973   4.5867385  68.7268242
  24.8789812   4.9084381  68.1752809  25.5100251   3.7408480  68.5189348
  25.3899362   4.5091713  68.6151013  32.4318774  -1.9619723  76.2596328
  31.9249638  -2.6690584  76.1917506  33.2286207  -2.2926534  76.3897405
  32.4746013  -2.1146572  76.2695323  28.3482789   4.5446889  72.1569992
  28.1196482   4.5679591  71.3148350  28.6080866   3.7204356  72.2765003
  28.3528977   4.4262969  72.0495190  22.6302018   6.3981362  81.7595092
  22.1180921   5.7902545  82.1180124  22.4581514   7.1137955  82.2269068
  22.5291655   6.4144662  81.8811316  34.6338913  12.5545204  69.2437193
  35.0172519  13.3036560  69.4735290  33.8383027  12.8011023  68.9849182
  34.5732696  12.7014897  69.2394766  26.5071088   4.3205607  84.1997348
  27.0642518   4.0919416  83.5675813  26.1832153   5.0811272  83.9232560
  26.5417498   4.3989444  84.0653845  24.2254205   7.4073260  85.1649355
  24.9765532   7.7224937  85.4788909  24.4176782   7.2052431  84.3383277
  24.3645620   7.4240642  85.0892751  23.4454205   5.2264635  66.8197572
  23.8253170   5.2444264  66.0348686  22.7046801   5.6718624  66.6988419
  23.3923043   5.2946410  66.6861140  31.0739496   3.5346826  72.4073150
  31.0733722   3.3795483  73.2657427  30.8695676   4.3809814  72.3514536
  31.0439273   3.6367447  72.5261090  28.7980348   8.2144328  76.0609357
  29.2934013   7.4967323  76.0213378  27.9880123   7.9115126  75.9463844
  28.7524241   8.0641975  76.0383083  24.2438959  12.0642142  68.2106362
  23.4350282  11.7408815  68.1639671  24.7513868  11.3575364  68.1434610
  24.1988626  11.9123458  68.1936656  14.8729236   9.4914335  73.9353726
  14.0074756   9.4800025  73.8236497  14.9728052   9.3044558  74.7824865
  14.7603403   9.4620396  74.0442670  30.8632167  10.9648016  78.7486486
  31.2887238  10.4422438  78.1956911  30.4989086  11.5628853  78.2275109
  30.8718769  10.9758243  78.5895496  20.4986246  19.2612233  77.5083832
  20.8132805  20.0748622  77.5161613  20.9079660  18.8762452  78.1765991
  20.6054344  19.3240936  77.6087923  27.4510766  14.6782280  75.0787643
  27.9221944  15.3922543  75.2477629  27.7870944  14.0781030  75.6147513
  27.5705881  14.6953744  75.1820019  29.5387751  16.2883593  87.2579716
  29.6484716  15.4992154  87.6136463  29.8678647  16.1989530  86.4554054
  29.6040156  16.1589446  87.1922106  28.0884712  14.4700214  81.8415336
  27.5405658  13.8458098  81.5735401  28.5497741  14.6594486  81.1259416
  28.0751922  14.4059264  81.6965767  30.8978577   2.5385569  79.2266528
  30.3141565   3.0394775  78.8144096  31.2182871   2.0315125  78.5930852
  30.8591752   2.5377404  79.0725036  17.8399266  13.2085342  77.1562440
  18.4444124  13.1681176  76.5276261  17.6326579  14.0556494  77.1866496
  17.8988164  13.3273344  77.0678556  27.6543039  15.4751287  78.3724677
  28.4741412  15.3314253  78.6340973  27.3737116  16.0997486  78.9141115
  27.7339782  15.5461639  78.4912617  13.0750549  12.1919959  77.0261363
  12.9774827  11.3816231  77.3351420  13.8579418  12.1711753  76.6407631
  13.1766685  12.0687049  77.0148226  44.1256689  23.1316139  71.3367554
  44.0950693  23.9860775  71.5085823  44.7238038  22.8311431  71.8953697
  44.2093847  23.2132635  71.4442356  37.3256374  22.2191790  76.0920484
  36.4694269  22.3800288  76.1429601  37.3724028  21.3483854  76.1125545
  37.2055485  22.1142591  76.1026550  31.7097514  31.7554507  71.8557716
  30.9580413  31.3770046  71.6273761  32.1583525  31.7872941  71.1076526
  31.6647180  31.7040115  71.7115218  40.6350090  28.4878315  85.6980940
  41.3416858  27.9930346  85.8267875  40.8238026  28.9287397  84.9683598
  40.7677996  28.4796666  85.6089986  37.1622473  32.1779877  67.2843263
  36.8273842  32.8556799  66.8487485  37.6749344  31.7885188  66.6960134
  37.1888055  32.2204455  67.1330054  36.7026765  34.1294146  73.2254374
  37.0866144  34.6981044  72.6859150  36.6385906  33.4043656  72.7460190
  36.7500192  34.1069609  73.0748237  40.1708195  24.2783834  78.7352136
  40.7164155  24.9568920  78.7946105  40.1125071  24.1371294  77.8753717
  40.2424109  24.3575835  78.6164196  33.2882270  31.7672900  74.1220488
  33.3892633  30.9573254  74.4317616  32.6924015  31.6729846  73.4920167
  33.2154808  31.6337928  74.0746727  41.9473263  25.7068441  69.6085864
  41.8312789  26.4576127  70.0378002  42.7429150  25.4492394  69.8581951
  42.0477853  25.7803288  69.7089955  33.1283009  36.6850489  75.5235344
  33.7720465  37.1263653  75.9131503  33.4539265  35.8803915  75.4365603
  33.2714838  36.6315684  75.5680821  26.4847314  27.7893186  73.7472822
  26.2497498  26.9560839  73.6405091  26.6232955  28.0697852  72.9334023
  26.4702976  27.7076690  73.6115177  28.7837401  19.9578917  76.6457130
  28.1642433  19.3671564  76.4767144  28.6821265  20.5490352  76.0121453
  28.6775077  19.9582999  76.5262119  33.8303589  29.6962464  70.8955206
  34.1519430  30.2367671  70.2916514  34.4775686  29.1259235  71.0277496
  33.9729644  29.6921639  70.8262241  35.8805297  21.6978459  70.9789593
  36.5785462  21.8766586  71.4711056  36.1957630  21.1748798  70.3559982
  36.0300634  21.6472231  70.9591603  28.5106534  23.5031198  78.8900699
  28.3865231  24.0893644  79.5250517  29.1624819  23.0091394  79.1912973
  28.5880184  23.5170003  79.0286628  36.0693232  28.0848904  70.9669384
  36.5086868  27.4766004  71.4124157  35.9197895  27.7056277  70.1954849
  36.1114698  27.9387375  70.9188551  33.5364875  26.6792915  78.1688210
  34.1813878  26.1865359  77.8499158  33.7766652  26.8217702  78.9954288
  33.6675461  26.6270358  78.2437743  36.0750967  29.5247821  77.8195102
  36.3574210  28.7299227  77.5981858  36.8037127  30.0028409  77.8400163
  36.2240531  29.4782418  77.7898117  34.0532161  17.0670855  75.0610867
  33.7235491  17.5181999  74.3914566  33.3777162  16.9887019  75.6083874
  33.9042597  17.1221990  75.0434091  39.6702569  26.4376085  67.9200153
  39.5853864  27.2937052  68.0649722  40.1586952  26.1620409  68.5882312
  39.7291466  26.5233406  68.0402235  41.2608568  13.0556378  73.3060478
  40.9462009  13.7459857  73.7380900  40.7435510  13.0001160  72.6045979
  41.1373039  13.1491267  73.2657427  40.6021002  23.0560879  69.4197888
  40.0732474  23.2720513  70.0795195  41.1246022  23.7497018  69.3398858
  40.6009455  23.1904016  69.5053488  46.0569055  28.6307183  74.7930933
  45.2266758  28.8417827  74.9564349  46.0078307  27.8044238  74.5173217
  45.9275791  28.5396790  74.7768298  32.4920610  26.9524096  68.2205356
  31.9077825  27.4574127  68.6271220  32.0890705  26.7266483  67.4801948
  32.3459914  26.9932344  68.1710382  28.0464639  32.6678857  75.0229028
  27.5632217  33.3929347  74.9988612  28.8587957  32.9654987  75.1339186
  28.0955386  32.8181211  75.0356307  34.1178793  31.4611038  77.6278842
  33.6005734  31.1018453  77.0240151  34.8153184  30.9373212  77.6384909
  34.1444374  31.3308726  77.5409101  37.7742385  31.9105852  83.5895015
  37.8625731  31.7231992  84.4373226  38.2032097  31.2643281  83.1899862
  37.8504487  31.7868859  83.6566767  35.3412844  31.1937012  82.5712678
  34.7783679  30.7809622  83.0952339  36.1033868  31.1189917  82.9905821
  35.3707293  31.1214412  82.7105678  36.9497824  23.1989748  66.6974277
  37.1893828  23.4067732  65.8849620  37.2713665  22.3947257  66.8063222
  37.0334982  23.1103849  66.5934830  32.2588115  15.1283144  70.5433815
  33.0134083  15.4961461  70.3050865  32.0815649  15.5022698  71.3112995
  32.3442593  15.2381332  70.6218704  30.9008836  33.1835033  75.1749308
  31.6029415  32.6687022  75.2322064  30.8206319  33.5109184  75.9796183
  30.9932596  33.1549259  75.3022100  45.5523013  21.2777584  78.5881354
  44.7151434  21.3479771  78.8228949  45.5211244  21.2802079  77.7155657
  45.4241296  21.2887811  78.4940902  31.9487742  23.4210620  84.3029723
  32.1208246  23.3116514  85.1515004  32.4857100  24.0665025  84.0660915
  32.0532746  23.5002621  84.3934820  30.6145179  17.5353463  67.2411928
  30.4320753  17.7525343  66.4152921  31.4770792  17.6492475  67.2970542
  30.7149769  17.5843361  67.1266415  30.2259611  29.3741385  74.6834916
  31.0648511  29.6064318  74.7308677  30.2571380  28.5045696  74.6141951
  30.3541329  29.2798331  74.6799561  30.8512314  29.7942260  78.9848221
  31.3910539  29.6513391  79.6551594  30.1682261  30.1939011  79.3532248
  30.8304468  29.8321931  79.1382643  36.2944899  14.5379873  70.2760952
  37.0231059  14.3595828  69.8299108  36.3839791  15.3797953  70.4868130
  36.4151561  14.6363752  70.2414469  40.2753199  25.4733261  74.1793246
  41.0310714  25.9064775  74.2182154  40.3815524  24.8238030  74.7527882
  40.4023370  25.4410745  74.2691271  43.3133370  29.3006538  74.9295649
  42.8768602  29.3043280  75.6854620  42.9796286  29.9812037  74.4975226
  43.1995990  29.4018994  74.9776481  37.8862444  31.3414871  86.2538799
  38.6702861  31.4545719  86.6194541  37.6859039  30.5156008  86.4497485
  37.9728469  31.2361590  86.3373185  26.2549459  26.0142551  79.1382643
  25.9887875  25.1981668  79.2973633  26.2688024  26.0595706  78.2678158
  26.2174182  25.8999456  79.0336125  43.2330853  16.3420366  77.1725077
  43.8756762  16.4118470  77.7586992  43.4853874  15.6749589  76.6704619
  43.3652985  16.2546714  77.1852356  30.1607206  20.8127635  65.7534401
  29.4465384  20.5265815  66.1656834  30.6451175  21.1524261  66.3940788
  30.1266570  20.8209285  65.9090036  31.0048066  19.5520929  81.7849651
  30.3119863  19.0817909  82.0310382  31.6208393  19.3259234  82.3591358
  30.9932596  19.4488061  81.9058803  38.0432837  33.2524973  79.9005255
  37.2448083  33.0124473  80.1579123  38.4918849  33.3039366  80.6472302
  37.9907449  33.2247364  80.0490179  46.4477717  26.0187458  73.8215286
  47.1094151  25.4578126  73.7211194  45.8069129  25.5239489  74.1467977
  46.4506584  25.8623867  73.8547626  37.3354524  29.3157589  66.1296209
  37.7505673  28.9842613  65.4380705  36.5046454  29.0826491  66.0016346
  37.2742533  29.2328845  66.0087057  26.6642873  26.8001330  76.4194387
  26.4818446  26.7748216  75.5666679  27.3992542  27.2700268  76.4583296
  26.7456937  26.8662692  76.2992306  42.7342547  27.0352840  73.5627275
  42.9698136  27.1798039  72.7354125  42.8832111  27.7995248  73.9558788
  42.7908351  27.1691895  73.4990879  29.7288625  23.5186333  82.9276496
  30.4528597  23.5039364  83.4141391  29.8304761  24.2281688  82.4298464
  29.8506834  23.6211036  82.9255283  44.5633004  25.8754506  71.3996879
  44.8941221  26.4082146  70.7936973  45.1366092  25.9293394  72.0558830
  44.6966683  25.9624075  71.4074660  37.1033574  26.9985418  87.7925443
  36.3106555  27.3128930  87.9778063  37.2182501  27.2136886  86.9546227
  37.0028985  27.0769254  87.6963778  39.7764893  23.7219409  72.0820459
  39.8711748  24.4608703  72.5360084  39.1523737  23.2936884  72.5155023
  39.6973923  23.7680729  72.2128606  38.0317367  26.9005621  82.7310740
  38.6056229  26.2632866  82.8859303  37.9532171  26.9009704  81.8620397
  38.1050602  26.8070733  82.6257150  26.6313783  23.6794831  76.5693454
  27.2087286  23.5431282  77.2085699  25.9327845  23.2230615  76.8239038
  26.6134805  23.5917097  76.7015743  40.0287914  25.5668149  65.3157411
  39.9468077  25.6370336  66.1812398  40.6667635  26.1297893  65.1241151
  40.1107752  25.6607120  65.4147360  33.3881086  25.3328887  74.7831937
  33.1300330  24.5000621  74.7563236  33.4429568  25.5586500  73.9424437
  33.3580863  25.2426658  74.6552074  38.4682136  17.4357337  74.8836030
  37.7638462  16.9466523  75.0419949  38.5167110  17.4479812  74.0124474
  38.3712187  17.3646985  74.7775369  32.3615798  22.8866649  75.2696832
  31.7865389  23.0458817  75.9060793  31.9851474  22.2502058  74.8065282
  32.2218610  22.8164462  75.2951390  36.0289086  21.3589998  80.1289210
  35.6403519  20.9344216  79.4741401  35.3643785  21.6072148  80.6366237
  35.8736014  21.3328719  80.1077078  45.6712356  21.1165003  72.9037040
  45.4148920  20.3044945  72.7134923  46.5141669  21.1242570  72.6767228
  45.7578381  20.9977000  72.8421857  22.1072617  22.5306724  73.2841272
  22.1932868  22.1538592  74.0654802  22.7348414  22.1567169  72.8061231
  22.2129168  22.4192206  73.3286750  39.8515448  15.0564627  77.6413194
  40.2325960  14.3742798  78.0281069  39.0478732  14.7674229  77.4588859
  39.7891910  14.9131676  77.6717250  37.1328025  25.5888603  68.3266017
  37.9468663  25.8803496  68.2148788  37.0687166  24.9348465  67.7524310
  37.2430764  25.5353798  68.2254854  43.3537515  28.2714599  82.7395593
  43.1176152  27.4402664  82.6207653  43.9980744  28.2200206  83.3250437
  43.4132186  28.1412287  82.8081486  33.0035933  29.0610120  73.4538329
  33.6409880  28.8221868  73.9990123  33.4291004  29.2647279  72.7191490
  33.1612099  29.0561131  73.4255487  27.6948575  31.2998457  77.3372633
  27.7352721  31.5713308  76.5092413  28.2543099  31.8240365  77.7530421
  27.7831921  31.4174212  77.2764521  33.6438748  24.2812410  67.7913219
  34.0283901  24.0620117  68.5429764  33.3950368  25.1075356  67.9214295
  33.6640821  24.3710556  67.9214295  33.8107288  17.5618825  87.5075803
  33.4960729  18.3318388  87.2445366  33.4897221  16.9989081  86.9228030
  33.7166207  17.5929094  87.3817153  44.3773935  28.0559048  78.8023887
  44.0719752  28.7887105  79.1637203  43.6580151  27.6496977  78.5216673
  44.2261278  28.1040781  78.8137024  35.3857405  29.5382543  75.1332115
  35.4596413  29.3757715  75.9873965  36.2026911  29.7272733  74.8892597
  35.5173763  29.5419285  75.2230141  50.0775728  24.6952049  78.1292232
  50.0100228  24.7148008  77.2594818  50.0631390  25.5382376  78.3547902
  50.0654484  24.8225783  78.0344708  29.1463162  29.8840406  72.1626559
  28.3201279  30.1302143  72.0360838  29.2075153  29.8052487  73.0288617
  29.0337329  29.9085355  72.2715503  31.3639185  15.9509347  73.1221999
  30.4961611  16.0231946  73.1879608  31.6514390  16.7531426  73.3109974
  31.2778933  16.0803494  73.1596766  40.4872074  16.0987206  81.4533321
  41.2325666  15.9097017  81.0396746  40.0709379  16.6245444  80.8947177
  40.5357048  16.1489352  81.3097894  33.9261991  32.5017286  69.8645589
  34.2160289  32.1106267  69.1404815  34.6565471  32.6833991  70.3050864
  34.0768875  32.4711100  69.8228396  47.8634345  23.4696435  76.4038826
  48.4142266  22.8364504  76.6435918  47.8478460  24.0011828  77.0954330
  47.9419541  23.4545383  76.5417684  34.5156736  27.3035032  80.9498719
  34.0168429  28.0150800  81.0283608  35.3256960  27.6235699  80.9116882
  34.5612842  27.4561881  80.9555288  31.8667906  34.4784668  72.9305739
  31.6468202  34.1882023  73.7232406  31.6462428  33.8199624  72.4023651
  31.8015500  34.3384377  72.9694647  30.7784853  26.5657985  75.1961440
  30.4898102  25.9395456  75.7307168  31.6468201  26.5078272  75.2626121
  30.8645105  26.4645529  75.2852395  41.5662751  21.7092768  75.5143422
  41.2227517  20.9883104  75.8650672  41.6655794  21.5006620  74.6721780
  41.5304794  21.5716972  75.4415102  34.0335862  35.8514058  71.7136431
  34.6859920  35.3190501  71.9427457  33.3361471  35.4982711  72.1004305
  34.0266580  35.7203581  71.8048599  30.9817127  28.2053236  71.1203805
  31.7363095  28.5866275  71.3339268  30.3887739  28.6564380  71.5750502
  31.0053840  28.3282063  71.2186684  42.0275780  28.1718472  71.0567410
  42.5933813  28.8311682  70.9725953  41.3803684  28.5168171  71.5283812
  42.0154537  28.3200414  71.1140167  33.4423794  20.1616076  86.2461018
  32.6323569  20.4673856  86.1350860  33.9198480  20.8821659  86.3613602
  33.3927273  20.3130678  86.2468089  32.3015353  29.3761797  76.4943921
  31.7796107  29.5162089  77.1795785  32.6889374  28.6172462  76.6846038
  32.2819054  29.2847321  76.6244997  29.2906537  19.4267606  70.5638875
  29.0031333  19.0568877  69.8270823  29.9777006  19.8962461  70.3022580
  29.3495435  19.4414576  70.4153951  38.4982358  31.1157257  70.4804489
  38.2569034  30.3825117  70.0731554  38.6783691  31.6644114  69.8270823
  38.4889982  31.0879648  70.3234712  33.7281679  26.4065816  71.8925412
  33.5324462  27.0140551  71.2985715  33.9516025  25.7133760  71.4117086
  33.7316320  26.3943342  71.7341493  32.1260209  23.2920554  72.0106280
  32.8482861  23.4561712  71.5510086  31.6468202  24.0130219  71.9045620
  32.1623940  23.4218784  71.9271894  40.0853717  19.6284353  77.3902965
  39.2464817  19.6545632  77.1541228  40.1558084  20.2755089  77.9708312
  39.9722110  19.7280479  77.4412082  29.7767826  25.6978627  81.1160420
  30.2888923  25.9762880  80.4669180  29.4904168  26.4367921  81.4823233
  29.8102689  25.8480980  81.0750298  38.5322995  16.5269730  72.1230581
  39.2349348  16.3277478  71.6450539  38.2667184  15.7545673  72.4299424
  38.5969627  16.3832696  72.0976023  43.9611240  24.8352340  74.6764207
  43.8745215  24.9907766  75.5298986  43.5061720  25.4790415  74.3023612
  43.8814497  24.9528095  74.7471314  26.8634732  20.2048819  71.4124156
  26.9650868  21.0074980  71.7405132  27.6590619  20.0036155  71.1147237
  26.9962638  20.2934717  71.4159512  33.2951551  17.7905015  81.1761462
  33.1034748  17.8060150  82.0260885  34.1450147  17.9868690  81.1528116
  33.3927273  17.8219367  81.2984756  27.6798464  20.3195997  79.1545278
  27.5383956  19.4679937  79.2789786  27.9639027  20.3624657  78.3307484
  27.7006310  20.1995747  79.0512902  37.8337056  22.1563087  73.2989766
  37.5871771  22.0758838  74.1326555  38.1622179  21.3716555  73.1052294
  37.8458300  22.0289352  73.3937289  41.7285105  28.8646446  77.0876548
  41.5899465  29.5627492  77.5925290  40.9485103  28.7095103  76.7312729
  41.5928332  28.9446613  77.1102822  40.0663190  25.1642822  83.3398929
  40.0611229  24.2922638  83.3441356  40.7724184  25.3630991  82.8668385
  40.1708194  25.0646696  83.2705965  33.7934084  24.8919806  82.7112749
  33.9377459  25.4721014  82.0755859  34.1409732  25.2696102  83.4162604
  33.8661545  25.0340510  82.7211744  35.9654001  24.0909974  80.4937881
  35.2177315  24.2840988  80.0886159  36.1195526  23.2655194  80.2562002
  35.8776429  23.9975085  80.3983287  32.8661839  33.0822577  79.5773776
  33.0151402  32.5225493  78.9247181  33.6461841  33.1614579  79.9606295
  33.0035932  33.0108143  79.5370725  43.2238478  28.2224700  67.8493047
  42.8445287  27.4361838  67.8422336  42.5604724  28.7711557  67.7064691
  43.0696953  28.1869524  67.8273844  35.3915139  33.2537220  80.8558267
  35.3158810  32.5846031  81.4109055  35.3204998  33.9555008  81.3698933
  35.3695746  33.2582128  81.0135115  36.2055778  17.9860525  81.3833285
  36.6628392  18.7184499  81.5106077  36.2812107  17.5626990  82.1420541
  36.2846748  18.0317763  81.5134361  28.4488769  18.2326344  82.4722728
  27.9130959  17.6206703  82.7883496  28.5106534  18.8074480  83.1256395
  28.3784402  18.2273272  82.6158155  40.6783104  11.1650400  75.2527128
  40.7966672  11.6226863  74.5194430  40.5045280  10.3595661  74.9663345
  40.6702275  11.1144172  75.1028061  36.0485386  31.7738219  71.6881873
  36.8135277  31.5047863  71.3664537  35.9463476  31.2888230  72.4051936
  36.1466882  31.6627784  71.7461701  34.0838156  19.9762629  78.2275109
  33.2934231  19.7954089  78.5492445  34.4798779  19.1989581  78.2105403
  34.0255032  19.8350090  78.2727657  38.5704047  28.8050403  63.6681822
  39.3377032  28.8650528  63.2587674  38.1235356  28.2330844  63.1838141
  38.6177474  28.7286979  63.5359533  39.4681842  27.6105059  75.9534555
  38.7926844  27.3790291  76.4547942  39.4774218  27.0026242  75.3276660
  39.3700347  27.4863984  75.9350707  36.5975986  22.4522888  82.7098608
  36.5335127  23.3132844  82.5818744  36.7373174  22.1354881  81.9094159
  36.6091456  22.5323054  82.5726821  41.4698577  30.4670191  68.1844733
  41.5518414  31.2737177  67.8606183  41.9548319  30.4866150  68.9085506
  41.5535735  30.5890854  68.2431631  35.2795080  25.1455027  76.8514811
  34.8557329  25.3459526  76.1153829  35.1039935  24.2983875  76.9639110
  35.1905961  25.0503809  76.7588501  34.7806774  36.6605540  79.3136268
  35.2702704  35.9616329  79.1311932  34.2091006  36.3629410  79.9012325
  34.7691304  36.5131764  79.3737309  30.5677525  25.6407079  72.2842783
  30.7242144  25.5753881  73.1398775  30.9078118  26.4155631  72.0721463
  30.6410760  25.7456277  72.3797377  37.1056670  25.0164962  71.1536146
  37.6472215  24.5135343  71.6174767  37.4203229  24.9630157  70.3425632
  37.2321067  24.9344383  71.1019958  40.9773777  29.2267609  88.2663058
  41.7908642  28.9552758  88.4268191  40.8168744  28.9275149  87.4623254
  41.0743726  29.1422535  88.1708464  35.2743119  30.4082314  68.4376174
  35.3435940  29.5496852  68.5769175  36.0531575  30.6254195  68.1095199
  35.3995970  30.3135178  68.4093332  38.2545939  19.9101267  81.2058447
  38.4687909  19.2712181  80.6521801  37.6379838  20.3547090  80.7766309
  38.1951268  19.8811410  81.0608878  39.6650607  32.8320015  72.6512668
  39.2730399  32.5286730  71.9335534  39.8203679  33.6689105  72.4617621
  39.6304197  32.9103852  72.5169165  27.1411787  22.8242029  72.6003550
  27.5210751  23.2426574  71.9363818  26.5667151  23.4055485  72.9072394
  27.1123112  22.9719888  72.5480291  40.4185027  21.5190332  82.1441754
  39.6061709  21.2116222  82.2254927  40.8774962  21.0389332  82.7084466
  40.3665412  21.4026824  82.2396348  39.8290282  29.3970004  72.5918698
  39.4704937  29.5684647  73.3682731  39.3428993  29.8583209  72.0346697
  39.7048979  29.4908975  72.6243967  37.6460668  13.0201202  76.1945790
  36.7754226  12.9939923  76.1479099  37.9001009  12.8478394  75.3771635
  37.5554228  12.9911346  76.0665926  34.6178647  25.0769169  65.1318933
  34.9071172  25.8534052  65.4062507  34.7050446  24.5657901  65.8333432
  34.6732903  25.1161088  65.2761430  37.5138535  22.9250403  86.9270456
  37.9838166  23.5492520  87.3138330  37.5600415  22.2567379  87.4863671
  37.5906410  22.9185084  87.0670528  34.6709808  15.0307431  77.6519260
  34.1548297  14.3387622  77.7770839  34.1103737  15.6978208  77.5981859
  34.5116322  15.0270688  77.6625326  36.7402042  15.5700391  79.4812113
  36.3533795  15.5949422  80.2625642  36.2534979  15.0042069  79.0286629
  36.6114551  15.4896142  79.5300016  40.9895021  30.2873900  83.5385899
  41.6274742  29.7934095  83.2048355  40.3469113  30.2151300  82.9538126
  40.9889248  30.2032908  83.4028254  42.7152021  22.1363046  78.1051815
  42.2879629  22.0489394  77.3499914  42.0778074  22.2440821  78.6906659
  42.5581629  22.1395706  78.0797256  36.4059183  12.4567376  81.7722372
  37.0352301  12.9927676  81.4943443  36.5745046  12.3644735  82.6235938
  36.5236978  12.5228738  81.8570901  36.2073098  17.2438571  84.0448784
  37.0346528  16.9723720  84.1007398  36.2280944  18.0399413  84.4012602
  36.3325948  17.3218325  84.1063967  41.0449278  30.9793708  80.1791256
  41.8341656  30.6282773  80.2993337  41.2192876  31.7930096  79.9167890
  41.1869559  31.0479565  80.1579124  30.7842588  24.3902434  77.2319045
  29.9430595  24.2906308  77.4397939  30.9932596  25.1597914  77.5833365
  30.6907281  24.4894477  77.3146360  28.2618155  22.0121971  75.0603795
  27.8674853  22.0864982  74.2853905  27.7058272  22.3979917  75.6112157
  28.1220967  22.0803745  75.0271455  39.8983102  14.9903265  74.7407674
  40.1032695  14.9225573  75.5864671  39.5709526  15.7962086  74.6728852
  39.8798350  15.0989205  74.8567329  34.5959253  22.3183833  76.4816642
  34.2922391  21.7639821  77.0827050  33.8938674  22.4976043  75.9944676
  34.4475463  22.2628615  76.4986348  33.6525350  19.6284353  71.0461344
  33.9285084  18.9103265  70.6338912  34.2524019  20.2269273  70.8382450
  33.7818615  19.6104723  70.9542105  32.6577604  29.5333554  81.1888740
  32.5497959  29.5435616  82.0550798  32.8673386  30.3588334  80.9993694
  32.6727715  29.6574628  81.2892832  43.1516790  15.5435029  74.2210440
  42.5391103  16.0305431  74.6064172  43.2480965  14.8678520  74.7648091
  43.0754687  15.5153338  74.3589298  37.1535871  17.2997870  69.3207939
  37.6079617  17.4708430  70.0455784  37.6275916  16.6865981  68.9205715
  37.2904191  17.2348755  69.3681701  30.6751396  26.7846196  78.6510678
  30.0839329  27.4255694  78.6213693  31.4372420  27.2083813  78.6241977
  30.6999657  26.9422034  78.6425825  31.0712019  17.9448194  79.3178695
  31.5313500  18.0187123  80.0553819  31.1168126  18.7429448  78.9678517
  31.1462574  18.0742341  79.3751452  32.7195369  18.6114889  83.8850722
  32.3280934  17.9648236  84.3206500  32.8881231  19.2026324  84.5044978
  32.6866279  18.6029157  84.0413428  46.7941818  26.6151966  79.6487956
  46.8524941  27.0638614  80.3947932  46.1608285  27.0250779  79.2118036
  46.7093113  26.7425700  79.6940504  40.4340912  32.2355508  76.0842702
  40.2360601  32.7246322  75.3898913  39.8128623  32.4396749  76.6626835
  40.3128477  32.3372046  76.0665925  34.4948891  24.0040404  70.4252946
  35.2390936  24.3914681  70.6635896  34.6409587  23.1597830  70.5893434
  34.6259476  23.9370877  70.4846916  36.4128466  15.7990663  75.4584808
  35.5664511  15.9713471  75.3326158  36.4099599  14.9940007  75.7950636
  36.2875616  15.7051692  75.4895935  37.4826767  19.5765878  76.3246866
  37.0086721  19.0507640  76.8352177  37.8544902  19.0295351  75.7561727
  37.4676655  19.4181874  76.3162013  27.8599797  21.5737384  81.6930411
  28.7225410  21.4733094  81.6067741  27.5291580  20.9932094  81.1315984
  27.9384993  21.4729011  81.5975817  43.7463497  24.6368253  77.7353646
  43.5061720  23.7974669  77.7396073  44.2255504  24.7168420  78.4594420
  43.7815681  24.5249653  77.8428448  39.4110266  20.4702432  69.3872619
  38.8833285  20.5531176  68.6978328  39.8705974  21.2120304  69.3837264
  39.4012117  20.5923095  69.2847315  45.7468684  21.4169711  75.6882905
  45.5078454  21.3765545  74.8503690  45.9102585  22.2640863  75.8148626
  45.7358988  21.5361796  75.5836387  42.3514714  25.8019660  81.6187950
  43.0748913  25.3492186  81.4398970  42.0864677  26.0824326  80.8360278
  42.4195988  25.7770628  81.4766666  31.2201583  20.3979833  78.3540830
  30.5954653  20.4098225  77.7466782  30.8847177  20.8740009  79.0032070
  31.0787074  20.4698350  78.3597398  31.4043331  18.7404952  64.4113515
  31.0556136  19.3924677  64.8745064  30.9239777  18.7262065  63.6837386
  31.2813575  18.8348006  64.3724606  27.9327258  28.4580294  79.7944594
  27.4027183  27.7672732  79.8439569  28.2052352  28.4490479  78.9657302
  27.8951980  28.3547425  79.6792010  38.9647349  29.0405996  68.5182276
  39.6881548  29.5064109  68.3746850  38.5247940  29.1079606  67.7679873
  39.0063041  29.1189833  68.3867058  38.1333504  25.9003538  79.7682965
  37.5190497  25.3561588  80.0631601  38.6500789  25.3867775  79.2888782
  38.1189166  25.7439947  79.7407194  37.3729801  26.9707808  77.5027264
  36.9457409  26.3457527  77.0692700  37.3654745  26.6882730  78.3286271
  37.3088942  26.8360589  77.5607092  30.4892328  22.0072981  80.5715698
  30.6485815  21.2516305  80.9767420  30.3085222  22.5563921  81.2256436
  30.4857687  21.9766795  80.7278404  38.4312631  14.1734217  81.1266488
  37.9353192  14.3697891  80.4358054  39.1881693  14.5726885  80.9555289
  38.4699456  14.2611951  80.9986624  35.7015511  17.8476563  77.7169798
  35.7257998  17.3136675  77.0282578  35.9526984  17.3393872  78.3795389
  35.7425429  17.6937467  77.7134443  23.2123100  25.1308058  77.1512942
  23.1066549  25.0854902  76.2865026  22.4623320  25.4761838  77.4327227
  23.0858703  25.1748966  77.0650272  31.9816833  16.5747381  77.0975542
  32.0215204  17.0756588  77.8110250  31.1566497  16.6657775  76.8281465
  31.8656359  16.6629197  77.1626081  34.1646446  26.1408121  85.1995837
  33.3142076  26.2779835  85.3353482  34.3274573  25.4071899  85.6443539
  34.0630309  26.0522222  85.2851436  33.4031196  23.0907891  79.3949441
  32.5723126  23.2581709  79.1884690  33.3482713  22.7143842  80.1798327
  33.2720611  23.0597622  79.4797970  31.2114979  16.5816784  85.0305852
  31.8367683  16.0378917  85.3035284  30.7565459  16.1011701  84.4613643
  31.2363240  16.4306265  84.9867446  31.7767240  21.3663482  69.9239559
  31.9170201  21.8635947  70.6268200  32.2749773  20.6649777  70.0653773
  31.8708321  21.3365461  70.0491138  31.8067462  22.2330593  67.2532136
  32.4412542  22.8291018  67.1881598  31.8893073  21.9334051  68.0678006
  31.9124013  22.2771502  67.3635223  44.7850028  24.7646071  80.1218500
  45.3767868  25.4043321  80.1536698  45.2209023  24.0669107  80.4110567
  44.9368459  24.7564421  80.1699333  33.3846445  18.1644569  67.2277578
  33.7062286  17.6847651  66.5736840  33.6473389  18.9744215  67.0368390
  33.4712471  18.2134467  67.1033070  36.6143418  29.1863443  80.7476394
  36.1068509  29.7399290  81.1917025  36.3170064  29.2471733  79.9295169
  36.4948303  29.2769754  80.6924851  38.7805600  17.5516763  79.5901057
  39.2060672  17.0989289  78.9784583  38.1662593  16.9976833  79.8665845
  38.7534246  17.4030739  79.5406082  28.3120450  24.4298434  70.5221682
  28.8212680  25.0262942  70.9032988  28.7854723  24.1624408  69.8398102
  28.4563826  24.4784250  70.4776205  39.2251198  33.1026701  68.6780338
  38.5080508  32.9287563  68.2127575  39.8757936  32.8679273  68.1455824
  39.2153049  33.0422493  68.5309555  37.2199823  14.0231863  72.9991634
  36.5768141  13.8729509  73.5676772  36.8799230  13.7774208  72.2340739
  37.0744900  13.9643985  72.9694649  41.8099170  21.9791289  72.4221643
  41.1390359  22.5220992  72.2934708  42.5038920  22.4486145  72.1803337
  41.8128037  22.1289561  72.3677170  35.8585903  34.1188001  77.6533401
  35.6351558  33.3606831  78.0217427  35.3695747  34.1486023  76.9313841
  35.7529352  34.0110226  77.6010142  41.9727297  18.4347173  75.3312016
  42.3254907  18.0076896  76.0057815  41.1142099  18.3498017  75.4613092
  41.8976742  18.3591914  75.4507026  30.6710982  21.0654693  73.3894862
  29.9522971  21.4818825  73.6567726  31.0423344  21.6308931  72.8386501
  30.6202914  21.2103974  73.3477669  39.9710563  21.6982542  79.2796858
  39.9508490  21.5165837  80.1331637  40.0189764  22.5694560  79.2556442
  39.9745204  21.7999080  79.4020153  37.9156893  28.2869734  85.2045335
  37.8752748  27.6419411  84.6190491  38.7280211  28.2306351  85.5170747
  38.0300046  28.1828700  85.1642284  34.5064360  34.3388459  75.1070486
  34.0924759  33.6762590  74.7174327  35.1911734  34.4866318  74.5866180
  34.5462732  34.2629118  74.9726983  37.8729654  33.4978545  75.8594102
  37.4745938  33.6080815  75.0914922  37.2580874  33.7060611  76.4420662
  37.7228544  33.5452113  75.8325401  36.4457556  20.1052693  68.7268242
  35.8522396  20.4269689  68.1752809  36.4832834  19.2593788  68.5189348
  36.3631946  20.0277021  68.6151013  43.4051357  13.5565585  76.2596328
  42.8982222  12.8494724  76.1917506  44.2018791  13.2258774  76.3897405
  43.4478596  13.4038736  76.2695323  39.3215373  20.0632197  72.1569992
  39.0929066  20.0864899  71.3148350  39.5813449  19.2389664  72.2765003
  39.3261561  19.9448277  72.0495190  33.6034601  21.9166670  81.7595092
  33.0913504  21.3087853  82.1180124  33.4314098  22.6323263  82.2269068
  33.5024238  21.9329969  81.8811316  28.4500316  20.3604245  84.4097454
  28.2802906  21.0205620  83.8645661  28.0066266  20.5710807  85.1309943
  28.3599650  20.4890228  84.4359084  32.3760135  18.6008743  73.4524188
  32.8517502  18.9625823  72.8174369  31.8748735  19.2565211  73.7324330
  32.3725494  18.7502932  73.4000929  45.6071497  28.0730511  69.2437193
  45.9905103  28.8221868  69.4735290  44.8115610  28.3196331  68.9849182
  45.5465279  28.2200205  69.2394766  37.4803672  19.8390915  84.1997348
  38.0375102  19.6104724  83.5675813  37.1564737  20.5996580  83.9232560
  37.5150082  19.9174751  84.0653845  25.3502381  23.2651111  79.6685944
  24.8029100  22.5951757  79.7866812  26.1394759  22.8980959  79.7329411
  25.3854564  23.1116097  79.6954644  35.1986789  22.9258568  85.1649355
  35.9498116  23.2410245  85.4788909  35.3909366  22.7237739  84.3383277
  35.3378203  22.9425950  85.0892751  34.4186789  20.7449943  66.8197572
  34.7985753  20.7629572  66.0348686  33.6779385  21.1903932  66.6988419
  34.3655626  20.8131718  66.6861140  42.0472079  19.0532134  72.4073150
  42.0466306  18.8980791  73.2657427  41.8428259  19.8995121  72.3514536
  42.0171857  19.1552755  72.5261090  24.1089350  22.4771919  76.8231967
  23.9311111  22.0248528  77.5486883  23.8208372  23.2798080  77.0070444
  24.0402303  22.5294477  76.9575470  39.7712931  23.7329636  76.0609357
  40.2666597  23.0152631  76.0213378  38.9612707  23.4300434  75.9463844
  39.7256824  23.5827282  76.0383083  35.2171543  27.5827449  68.2106362
  34.4082865  27.2594123  68.1639671  35.7246452  26.8760672  68.1434610
  35.1721210  27.4308766  68.1936656  25.8461820  25.0099643  73.9353726
  24.9807339  24.9985333  73.8236497  25.9460636  24.8229865  74.7824865
  25.7335987  24.9805704  74.0442670  41.8364750  26.4833324  78.7486486
  42.2619822  25.9607746  78.1956911  41.4721670  27.0814161  78.2275109
  41.8451353  26.4943551  78.5895496  31.4718830  34.7797541  77.5083832
  31.7865389  35.5933930  77.5161613  31.8812243  34.3947760  78.1765991
  31.5786928  34.8426244  77.6087923  38.4243350  30.1967588  75.0787643
  38.8954528  30.9107851  75.2477629  38.7603528  29.5966338  75.6147513
  38.5438465  30.2139052  75.1820019  40.5120334  31.8068901  87.2579716
  40.6217300  31.0177462  87.6136463  40.8411231  31.7174838  86.4554054
  40.5772740  31.6774754  87.1922106  35.3412844  14.9695059  82.0345738
  35.4740750  14.1726052  82.3626714  35.7257997  15.4961462  82.6144014
  35.4169173  14.9294975  82.1689241  39.0617296  29.9885522  81.8415336
  38.5138242  29.3643406  81.5735401  39.5230325  30.1779794  81.1259416
  39.0484505  29.9244572  81.6965767  38.4145200  11.8925385  78.6326832
  37.6091163  11.7823114  78.9494670  38.2851935  11.9937840  77.7756697
  38.2765333  11.8909055  78.5534872  41.8711160  18.0570877  79.2266528
  41.2874149  18.5580083  78.8144096  42.1915454  17.5500433  78.5930852
  41.8324336  18.0562712  79.0725036  34.4105959  16.9711471  69.5025203
  35.2321654  17.1409784  69.2606898  33.9475610  17.1258732  68.7791501
  34.4637122  17.0193204  69.3596848  33.0001291  14.9654234  80.2823632
  33.5445704  14.6245360  80.8727974  33.0538227  15.8239695  80.4244917
  33.0890411  15.0409493  80.3905505  28.8131850  28.7270650  77.1562440
  29.4176707  28.6866484  76.5276261  28.6059163  29.5741802  77.1866496
  28.8720747  28.8458652  77.0678556  38.6275622  30.9936595  78.3724677
  39.4473996  30.8499561  78.6340973  38.3469700  31.6182794  78.9141115
  38.7072366  31.0646947  78.4912617  24.0483132  27.7105267  77.0261363
  23.9507410  26.9001539  77.3351420  24.8312002  27.6897061  76.6407631
  24.1499269  27.5872357  77.0148226  55.0989273  38.6501446  71.3367554
  55.0683277  39.5046083  71.5085823  55.6970621  38.3496739  71.8953697
  55.1826430  38.7317943  71.4442356  48.2988957  37.7377097  76.0920484
  47.4426853  37.8985596  76.1429601  48.3456611  36.8669161  76.1125545
  48.1788069  37.6327899  76.1026550  42.6830097  47.2739815  71.8557716
  41.9312997  46.8955354  71.6273761  43.1316109  47.3058249  71.1076526
  42.6379764  47.2225423  71.7115218  51.6082674  44.0063623  85.6980940
  52.3149441  43.5115654  85.8267875  51.7970609  44.4472705  84.9683598
  51.7410580  43.9981973  85.6089986  48.1355057  47.6965185  67.2843263
  47.8006425  48.3742106  66.8487485  48.6481927  47.3070496  66.6960134
  48.1620638  47.7389763  67.1330054  47.6759348  49.6479454  73.2254374
  48.0598728  50.2166352  72.6859150  47.6118489  48.9228964  72.7460190
  47.7232775  49.6254917  73.0748237  51.1440778  39.7969141  78.7352136
  51.6896738  40.4754228  78.7946105  51.0857655  39.6556602  77.8753717
  51.2156693  39.8761143  78.6164196  44.2614853  47.2858208  74.1220488
  44.3625216  46.4758561  74.4317616  43.6656599  47.1915154  73.4920167
  44.1887392  47.1523236  74.0746727  52.9205847  41.2253749  69.6085864
  52.8045373  41.9761435  70.0378002  53.7161734  40.9677702  69.8581951
  53.0210437  41.2988595  69.7089955  44.1015593  52.2035797  75.5235344
  44.7453048  52.6448961  75.9131503  44.4271848  51.3989223  75.4365603
  44.2447422  52.1500991  75.5680821  37.4579898  43.3078494  73.7472822
  37.2230082  42.4746146  73.6405091  37.5965538  43.5883160  72.9334023
  37.4435560  43.2261997  73.6115177  39.7569985  35.4764225  76.6457130
  39.1375017  34.8856872  76.4767144  39.6553849  36.0675660  76.0121453
  39.6507661  35.4768307  76.5262119  44.8036173  45.2147772  70.8955206
  45.1252014  45.7552979  70.2916514  45.4508269  44.6444543  71.0277496
  44.9462228  45.2106947  70.8262241  46.8537881  37.2163766  70.9789593
  47.5518045  37.3951894  71.4711056  47.1690213  36.6934106  70.3559982
  47.0033218  37.1657539  70.9591603  39.4839118  39.0216506  78.8900699
  39.3597815  39.6078952  79.5250517  40.1357403  38.5276702  79.1912973
  39.5612767  39.0355311  79.0286628  47.0425816  43.6034212  70.9669384
  47.4819452  42.9951312  71.4124157  46.8930479  43.2241585  70.1954849
  47.0847282  43.4572683  70.9188551  44.5097459  42.1978223  78.1688210
  45.1546462  41.7050666  77.8499158  44.7499236  42.3403010  78.9954288
  44.6408044  42.1455666  78.2437743  47.0483550  45.0433129  77.8195102
  47.3306793  44.2484535  77.5981858  47.7769711  45.5213717  77.8400163
  47.1973114  44.9967726  77.7898117  45.0264744  32.5856163  75.0610867
  44.6968074  33.0367307  74.3914566  44.3509746  32.5072326  75.6083874
  44.8775181  32.6407298  75.0434091  50.6435153  41.9561393  67.9200153
  50.5586448  42.8122359  68.0649722  51.1319536  41.6805717  68.5882312
  50.7024050  42.0418714  68.0402235  52.2341152  28.5741686  73.3060478
  51.9194593  29.2645165  73.7380900  51.7168094  28.5186468  72.6045979
  52.1105622  28.6676575  73.2657427  51.5753586  38.5746187  69.4197888
  51.0465057  38.7905821  70.0795195  52.0978606  39.2682325  69.3398858
  51.5742039  38.7089324  69.5053488  57.0301639  44.1492491  74.7930933
  56.1999342  44.3603135  74.9564349  56.9810891  43.3229546  74.5173217
  56.9008374  44.0582098  74.7768298  43.4653194  42.4709404  68.2205356
  42.8810409  42.9759435  68.6271220  43.0623289  42.2451791  67.4801948
  43.3192497  42.5117652  68.1710382  39.0197222  48.1864165  75.0229028
  38.5364800  48.9114655  74.9988612  39.8320540  48.4840295  75.1339186
  39.0687970  48.3366519  75.0356307  45.0911376  46.9796346  77.6278842
  44.5738318  46.6203761  77.0240151  45.7885768  46.4558520  77.6384909
  45.1176957  46.8494034  77.5409101  48.7474968  47.4291160  83.5895015
  48.8358314  47.2417300  84.4373226  49.1764681  46.7828589  83.1899862
  48.8237071  47.3054167  83.6566767  46.3145428  46.7122320  82.5712678
  45.7516263  46.2994929  83.0952339  47.0766452  46.6375225  82.9905821
  46.3439877  46.6399720  82.7105678  47.9230408  38.7175056  66.6974277
  48.1626412  38.9253040  65.8849620  48.2446249  37.9132565  66.8063222
  48.0067566  38.6289157  66.5934830  43.2320698  30.6468452  70.5433815
  43.9866666  31.0146769  70.3050865  43.0548233  31.0208006  71.3112995
  43.3175177  30.7566639  70.6218704  41.8741420  48.7020341  75.1749308
  42.5761999  48.1872330  75.2322064  41.7938903  49.0294492  75.9796183
  41.9665180  48.6734567  75.3022100  56.5255597  36.7962892  78.5881354
  55.6884018  36.8665079  78.8228949  56.4943828  36.7987387  77.7155657
  56.3973879  36.8073119  78.4940902  42.9220326  38.9395928  84.3029723
  43.0940830  38.8301822  85.1515004  43.4589684  39.5850333  84.0660915
  43.0265330  39.0187929  84.3934820  41.5877763  33.0538771  67.2411928
  41.4053336  33.2710651  66.4152921  42.4503376  33.1677783  67.2970542
  41.6882352  33.1028668  67.1266415  41.1992195  44.8926693  74.6834916
  42.0381094  45.1249626  74.7308677  41.2303964  44.0231004  74.6141951
  41.3273913  44.7983639  74.6799561  41.8244898  45.3127568  78.9848221
  42.3643123  45.1698699  79.6551594  41.1414844  45.7124319  79.3532248
  41.8037052  45.3507239  79.1382643  47.2677482  30.0565181  70.2760952
  47.9963643  29.8781136  69.8299108  47.3572375  30.8983261  70.4868130
  47.3884144  30.1549060  70.2414469  51.2485783  40.9918569  74.1793246
  52.0043298  41.4250083  74.2182154  51.3548107  40.3423338  74.7527882
  51.3755953  40.9596052  74.2691271  54.2865954  44.8191846  74.9295649
  53.8501186  44.8228588  75.6854620  53.9528869  45.4997345  74.4975226
  54.1728574  44.9204302  74.9776481  48.8595028  46.8600179  86.2538799
  49.6435444  46.9731026  86.6194541  48.6591622  46.0341316  86.4497485
  48.9461053  46.7546898  86.3373185  37.2282043  41.5327859  79.1382643
  36.9620458  40.7166975  79.2973633  37.2420607  41.5781014  78.2678158
  37.1906765  41.4184764  79.0336125  54.2063437  31.8605674  77.1725077
  54.8489345  31.9303778  77.7586992  54.4586458  31.1934897  76.6704619
  54.3385569  31.7732022  77.1852356  41.1339790  36.3312943  65.7534401
  40.4197967  36.0451123  66.1656834  41.6183759  36.6709569  66.3940788
  41.0999153  36.3394593  65.9090036  41.9780649  35.0706237  81.7849651
  41.2852446  34.6003217  82.0310382  42.5940977  34.8444542  82.3591358
  41.9665179  34.9673369  81.9058803  49.0165421  48.7710281  79.9005255
  48.2180667  48.5309781  80.1579123  49.4651432  48.8224674  80.6472302
  48.9640032  48.7432672  80.0490179  57.4210300  41.5372766  73.8215286
  58.0826734  40.9763434  73.7211194  56.7801712  41.0424796  74.1467977
  57.4239168  41.3809175  73.8547626  48.3087108  44.8342897  66.1296209
  48.7238256  44.5027921  65.4380705  47.4779038  44.6011799  66.0016346
  48.2475117  44.7514153  66.0087057  37.6375457  42.3186638  76.4194387
  37.4551030  42.2933524  75.5666679  38.3725126  42.7885576  76.4583296
  37.7189521  42.3848000  76.2992306  53.7075131  42.5538148  73.5627275
  53.9430720  42.6983347  72.7354125  53.8564694  43.3180556  73.9558788
  53.7640934  42.6877203  73.4990879  40.7021208  39.0371641  82.9276496
  41.4261181  39.0224672  83.4141391  40.8037345  39.7466996  82.4298464
  40.8239417  39.1396344  82.9255283  55.5365588  41.3939814  71.3996879
  55.8673805  41.9267454  70.7936973  56.1098676  41.4478702  72.0558830
  55.6699267  41.4809383  71.4074660  48.0766158  42.5170726  87.7925443
  47.2839139  42.8314237  87.9778063  48.1915085  42.7322194  86.9546227
  47.9761568  42.5954562  87.6963778  50.7497477  39.2404717  72.0820459
  50.8444331  39.9794011  72.5360084  50.1256320  38.8122192  72.5155023
  50.6706507  39.2866037  72.2128606  49.0049951  42.4190929  82.7310740
  49.5788812  41.7818174  82.8859303  48.9264754  42.4195012  81.8620397
  49.0783185  42.3256041  82.6257150  37.6046367  39.1980139  76.5693454
  38.1819870  39.0616590  77.2085699  36.9060429  38.7415923  76.8239038
  37.5867388  39.1102405  76.7015743  51.0020498  41.0853457  65.3157411
  50.9200661  41.1555644  66.1812398  51.6400218  41.6483201  65.1241151
  51.0840335  41.1792428  65.4147360  44.3613669  40.8514195  74.7831937
  44.1032913  40.0185929  74.7563236  44.4162152  41.0771808  73.9424437
  44.3313447  40.7611966  74.6552074  49.4414719  32.9542645  74.8836030
  48.7371046  32.4651831  75.0419949  49.4899694  32.9665120  74.0124474
  49.3444771  32.8832293  74.7775369  43.3348381  38.4051957  75.2696832
  42.7597973  38.5644125  75.9060793  42.9584058  37.7687366  74.8065282
  43.1951194  38.3349770  75.2951390  47.0021670  36.8775306  80.1289210
  46.6136103  36.4529524  79.4741401  46.3376368  37.1257456  80.6366237
  46.8468598  36.8514027  80.1077078  56.6444939  36.6350311  72.9037040
  56.3881504  35.8230252  72.7134923  57.4874253  36.6427878  72.6767228
  56.7310965  36.5162308  72.8421857  33.0805200  38.0492032  73.2841272
  33.1665452  37.6723900  74.0654802  33.7080998  37.6752477  72.8061231
  33.1861751  37.9377514  73.3286750  50.8248032  30.5749935  77.6413194
  51.2058543  29.8928106  78.0281069  50.0211316  30.2859537  77.4588859
  50.7624493  30.4316984  77.6717250  48.1060608  41.1073911  68.3266017
  48.9201247  41.3988804  68.2148788  48.0419749  40.4533773  67.7524310
  48.2163347  41.0539106  68.2254854  43.9768516  44.5795428  73.4538329
  44.6142463  44.3407176  73.9990123  44.4023588  44.7832587  72.7191490
  44.1344683  44.5746439  73.4255487  38.6681159  46.8183765  77.3372633
  38.7085304  47.0898616  76.5092413  39.2275683  47.3425673  77.7530421
  38.7564505  46.9359520  77.2764521  44.6171331  39.7997718  67.7913219
  45.0016484  39.5805425  68.5429764  44.3682952  40.6260663  67.9214295
  44.6373404  39.8895864  67.9214295  44.7839872  33.0804133  87.5075803
  44.4693313  33.8503696  87.2445366  44.4629804  32.5174389  86.9228030
  44.6898791  33.1114402  87.3817153  46.3589988  45.0567851  75.1332115
  46.4328997  44.8943023  75.9873965  47.1759495  45.2458041  74.8892597
  46.4906347  45.0604593  75.2230141  61.0508311  40.2137356  78.1292232
  60.9832811  40.2333316  77.2594818  61.0363974  41.0567684  78.3547902
  61.0387068  40.3411091  78.0344708  40.1195745  45.4025714  72.1626559
  39.2933863  45.6487451  72.0360838  40.1807736  45.3237795  73.0288617
  40.0069912  45.4270663  72.2715503  42.3371769  31.4694655  73.1221999
  41.4694194  31.5417254  73.1879608  42.6246973  32.2716734  73.3109974
  42.2511517  31.5988802  73.1596766  51.4604658  31.6172514  81.4533321
  52.2058250  31.4282325  81.0396746  51.0441962  32.1430752  80.8947177
  51.5089632  31.6674660  81.3097894  44.8994574  48.0202594  69.8645589
  45.1892873  47.6291575  69.1404815  45.6298055  48.2019299  70.3050864
  45.0501458  47.9896408  69.8228396  58.8366928  38.9881743  76.4038826
  59.3874850  38.3549812  76.6435918  58.8211044  39.5197135  77.0954330
  58.9152125  38.9730691  76.5417684  45.4889319  42.8220340  80.9498719
  44.9901013  43.5336108  81.0283608  46.2989544  43.1421007  80.9116882
  45.5345426  42.9747189  80.9555288  42.8400490  49.9969976  72.9305739
  42.6200785  49.7067331  73.7232406  42.6195012  49.3384931  72.4023651
  42.7748084  49.8569685  72.9694647  41.7517437  42.0843293  75.1961440
  41.4630686  41.4580764  75.7307168  42.6200785  42.0263580  75.2626121
  41.8377689  41.9830837  75.2852395  52.5395335  37.2278076  75.5143422
  52.1960101  36.5068412  75.8650672  52.6388377  37.0191927  74.6721780
  52.5037378  37.0902280  75.4415102  45.0068445  51.3699366  71.7136431
  45.6592503  50.8375809  71.9427457  44.3094054  51.0168019  72.1004305
  44.9999163  51.2388889  71.8048599  41.9549710  43.7238544  71.1203805
  42.7095678  44.1051583  71.3339268  41.3620323  44.1749688  71.5750502
  41.9786424  43.8467371  71.2186684  53.0008364  43.6903780  71.0567410
  53.5666396  44.3496990  70.9725953  52.3536267  44.0353478  71.5283812
  52.9887120  43.8385722  71.1140167  44.4156377  35.6801384  86.2461018
  43.6056153  35.9859164  86.1350860  44.8931064  36.4006967  86.3613602
  44.3659856  35.8315985  86.2468089  43.2747937  44.8947105  76.4943921
  42.7528690  45.0347397  77.1795785  43.6621957  44.1357770  76.6846038
  43.2551638  44.8032629  76.6244997  40.2639121  34.9452914  70.5638875
  39.9763917  34.5754184  69.8270823  40.9509589  35.4147769  70.3022580
  40.3228018  34.9599883  70.4153951  49.4714942  46.6342565  70.4804489
  49.2301618  45.9010425  70.0731554  49.6516275  47.1829422  69.8270823
  49.4622566  46.6064956  70.3234712  44.7014263  41.9251124  71.8925412
  44.5057045  42.5325859  71.2985715  44.9248608  41.2319068  71.4117086
  44.7048904  41.9128650  71.7341493  43.0992793  38.8105862  72.0106280
  43.8215444  38.9747020  71.5510086  42.6200785  39.5315527  71.9045620
  43.1356523  38.9404092  71.9271894  51.0586300  35.1469661  77.3902965
  50.2197401  35.1730940  77.1541228  51.1290667  35.7940397  77.9708312
  50.9454694  35.2465787  77.4412082  40.7500409  41.2163935  81.1160420
  41.2621506  41.4948188  80.4669180  40.4636752  41.9553229  81.4823233
  40.7835272  41.3666288  81.0750298  49.5055578  32.0455038  72.1230581
  50.2081931  31.8462786  71.6450539  49.2399767  31.2730980  72.4299424
  49.5702211  31.9018004  72.0976023  54.9343824  40.3537648  74.6764207
  54.8477798  40.5093074  75.5298986  54.4794304  40.9975723  74.3023612
  54.8547081  40.4713403  74.7471314  37.8367316  35.7234127  71.4124156
  37.9383452  36.5260288  71.7405132  38.6323202  35.5221462  71.1147237
  37.9695221  35.8120025  71.4159512  44.2684135  33.3090323  81.1761462
  44.0767332  33.3245458  82.0260885  45.1182731  33.5053998  81.1528116
  44.3659857  33.3404674  81.2984756  38.6531048  35.8381305  79.1545278
  38.5116539  34.9865245  79.2789786  38.9371611  35.8809965  78.3307484
  38.6738894  35.7181055  79.0512902  48.8069640  37.6748395  73.2989766
  48.5604354  37.5944146  74.1326555  49.1354763  36.8901863  73.1052294
  48.8190884  37.5474660  73.3937289  52.7017689  44.3831754  77.0876548
  52.5632048  45.0812800  77.5925290  51.9217687  44.2280411  76.7312729
  52.5660916  44.4631921  77.1102822  44.7666667  40.4105114  82.7112749
  44.9110043  40.9906322  82.0755859  45.1142316  40.7881410  83.4162604
  44.8394129  40.5525818  82.7211744  46.9386585  39.6095282  80.4937881
  46.1909899  39.8026296  80.0886159  47.0928110  38.7840501  80.2562002
  46.8509012  39.5160393  80.3983287  43.8394422  48.6007885  79.5773776
  43.9883986  48.0410801  78.9247181  44.6194424  48.6799887  79.9606295
  43.9768516  48.5293451  79.5370725  54.1971062  43.7410008  67.8493047
  53.8177870  42.9547146  67.8422336  53.5337307  44.2896865  67.7064691
  54.0429536  43.7054832  67.8273844  46.3647723  48.7722528  80.8558267
  46.2891394  48.1031339  81.4109055  46.2937582  49.4740316  81.3698933
  46.3428330  48.7767436  81.0135115  47.1788362  33.5045833  81.3833285
  47.6360976  34.2369807  81.5106077  47.2544690  33.0812298  82.1420541
  47.2579332  33.5503071  81.5134361  39.4221353  33.7511652  82.4722728
  38.8863542  33.1392011  82.7883496  39.4839118  34.3259788  83.1256395
  39.3516986  33.7458580  82.6158155  51.6515688  26.6835708  75.2527128
  51.7699256  27.1412171  74.5194430  51.4777863  25.8780969  74.9663345
  51.6434859  26.6329480  75.1028061  47.0217970  47.2923527  71.6881873
  47.7867861  47.0233171  71.3664537  46.9196060  46.8073537  72.4051936
  47.1199465  47.1813092  71.7461701  45.0570740  35.4947937  78.2275109
  44.2666814  35.3139397  78.5492445  45.4531362  34.7174889  78.2105403
  44.9987616  35.3535397  78.2727657  49.5436630  44.3235711  63.6681822
  50.3109615  44.3835836  63.2587674  49.0967939  43.7516152  63.1838141
  49.5910058  44.2472287  63.5359533  50.4414426  43.1290367  75.9534555
  49.7659428  42.8975599  76.4547942  50.4506802  42.5211550  75.3276660
  50.3432930  43.0049292  75.9350707  47.5708570  37.9708196  82.7098608
  47.5067711  38.8318152  82.5818744  47.7105758  37.6540189  81.9094159
  47.5824040  38.0508362  82.5726821  52.4431160  45.9855499  68.1844733
  52.5250998  46.7922485  67.8606183  52.9280903  46.0051458  68.9085506
  52.5268318  46.1076161  68.2431631  46.2527664  40.6640335  76.8514811
  45.8289913  40.8644834  76.1153829  46.0772519  39.8169183  76.9639110
  46.1638544  40.5689116  76.7588501  45.7539357  52.1790848  79.3136268
  46.2435288  51.4801637  79.1311932  45.1823589  51.8814718  79.9012325
  45.7423887  52.0317072  79.3737309  41.5410109  41.1592386  72.2842783
  41.6974728  41.0939189  73.1398775  41.8810702  41.9340939  72.0721463
  41.6143344  41.2641585  72.3797377  48.0789253  40.5350270  71.1536146
  48.6204799  40.0320651  71.6174767  48.3935812  40.4815465  70.3425632
  48.2053650  40.4529691  71.1019958  46.2475703  45.9267622  68.4376174
  46.3168523  45.0682160  68.5769175  47.0264158  46.1439502  68.1095199
  46.3728553  45.8320486  68.4093332  49.2278523  35.4286575  81.2058447
  49.4420492  34.7897489  80.6521801  48.6112422  35.8732398  80.7766309
  49.1683852  35.3996718  81.0608878  50.6383191  48.3505323  72.6512668
  50.2462982  48.0472038  71.9335534  50.7936263  49.1874413  72.4617621
  50.6036780  48.4289160  72.5169165  38.1144370  38.3427337  72.6003550
  38.4943335  38.7611882  71.9363818  37.5399735  38.9240793  72.9072394
  38.0855695  38.4905196  72.5480291  51.3917611  37.0375640  82.1441754
  50.5794292  36.7301530  82.2254927  51.8507545  36.5574640  82.7084466
  51.3397995  36.9212132  82.2396348  50.8022865  44.9155312  72.5918698
  50.4437520  45.0869955  73.3682731  50.3161576  45.3768517  72.0346697
  50.6781562  45.0094283  72.6243967  48.6193251  28.5386510  76.1945790
  47.7486809  28.5125231  76.1479099  48.8733593  28.3663702  75.3771635
  48.5286811  28.5096654  76.0665926  45.5911231  40.5954477  65.1318933
  45.8803756  41.3719360  65.4062507  45.6783030  40.0843209  65.8333432
  45.6465487  40.6346395  65.2761430  48.4871118  38.4435711  86.9270456
  48.9570749  39.0677828  87.3138330  48.5332998  37.7752687  87.4863671
  48.5638994  38.4370391  87.0670528  45.6442392  30.5492739  77.6519260
  45.1280880  29.8572930  77.7770839  45.0836321  31.2163516  77.5981859
  45.4848905  30.5455996  77.6625326  47.7134625  31.0885699  79.4812113
  47.3266378  31.1134730  80.2625642  47.2267563  30.5227377  79.0286629
  47.5847134  31.0081450  79.5300016  53.6884605  37.6548354  78.1051815
  53.2612213  37.5674702  77.3499914  53.0510658  37.7626129  78.6906659
  53.5314212  37.6581013  78.0797256  47.3791767  27.9752684  81.7722372
  48.0084885  28.5112984  81.4943443  47.5477630  27.8830043  82.6235938
  47.4969562  28.0414046  81.8570901  47.1805682  32.7623879  84.0448784
  48.0079111  32.4909028  84.1007398  47.2013528  33.5584721  84.4012602
  47.3058532  32.8403633  84.1063967  41.7575172  39.9087742  77.2319045
  40.9163178  39.8091616  77.4397939  41.9665180  40.6783222  77.5833365
  41.6639864  40.0079785  77.3146360  39.2350739  37.5307279  75.0603795
  38.8407436  37.6050290  74.2853905  38.6790856  37.9165225  75.6112157
  39.0953551  37.5989053  75.0271455  50.8715686  30.5088573  74.7407674
  51.0765279  30.4410881  75.5864671  50.5442109  31.3147394  74.6728852
  50.8530933  30.6174513  74.8567329  45.5691837  37.8369141  76.4816642
  45.2654974  37.2825129  77.0827050  44.8671257  38.0161351  75.9944676
  45.4208046  37.7813923  76.4986348  44.6257934  35.1469661  71.0461344
  44.9017668  34.4288573  70.6338912  45.2256603  35.7454581  70.8382450
  44.7551198  35.1290031  70.9542105  43.6310188  45.0518862  81.1888740
  43.5230543  45.0620924  82.0550798  43.8405969  45.8773642  80.9993694
  43.6460299  45.1759936  81.2892832  54.1249373  31.0620337  74.2210440
  53.5123687  31.5490739  74.6064172  54.2213548  30.3863828  74.7648091
  54.0487271  31.0338646  74.3589298  48.1268454  32.8183178  69.3207939
  48.5812201  32.9893738  70.0455784  48.6008500  32.2051289  68.9205715
  48.2636774  32.7534063  69.3681701  41.6483980  42.3031504  78.6510678
  41.0571913  42.9441002  78.6213693  42.4105003  42.7269121  78.6241977
  41.6732240  42.4607342  78.6425825  42.0444602  33.4633502  79.3178695
  42.5046084  33.5372431  80.0553819  42.0900709  34.2614756  78.9678517
  42.1195158  33.5927649  79.3751452  43.6927952  34.1300197  83.8850722
  43.3013517  33.4833544  84.3206500  43.8613815  34.7211632  84.5044978
  43.6598862  34.1214464  84.0413428  51.4073496  47.7540816  76.0842702
  51.2093185  48.2431630  75.3898913  50.7861207  47.9582057  76.6626835
  51.2861060  47.8557354  76.0665925  45.4681474  39.5225712  70.4252946
  46.2123519  39.9099989  70.6635896  45.6142170  38.6783138  70.5893434
  45.5992059  39.4556185  70.4846916  47.3861050  31.3175971  75.4584808
  46.5397095  31.4898779  75.3326158  47.3832182  30.5125315  75.7950636
  47.2608200  31.2237000  75.4895935  48.4559350  35.0951186  76.3246866
  47.9819304  34.5692948  76.8352177  48.8277486  34.5480659  75.7561727
  48.4409239  34.9367182  76.3162013  38.8332380  37.0922692  81.6930411
  39.6957993  36.9918402  81.6067741  38.5024163  36.5117402  81.1315984
  38.9117577  36.9914319  81.5975817  54.7196081  40.1553561  77.7353646
  54.4794304  39.3159977  77.7396073  55.1988088  40.2353728  78.4594420
  54.7548264  40.0434961  77.8428448  50.3842850  35.9887740  69.3872619
  49.8565868  36.0716484  68.6978328  50.8438558  36.7305612  69.3837264
  50.3744700  36.1108403  69.2847315  56.7201268  36.9355019  75.6882905
  56.4811038  36.8950853  74.8503690  56.8835169  37.7826171  75.8148626
  56.7091571  37.0547104  75.5836387  42.1934166  35.9165141  78.3540830
  41.5687236  35.9283533  77.7466782  41.8579761  36.3925317  79.0032070
  42.0519658  35.9883658  78.3597398  42.3775915  34.2590260  64.4113515
  42.0288719  34.9109985  64.8745064  41.8972361  34.2447373  63.6837386
  42.2546159  34.3533313  64.3724606  38.9059842  43.9765601  79.7944594
  38.3759766  43.2858040  79.8439569  39.1784935  43.9675787  78.9657302
  38.8684564  43.8732733  79.6792010  49.9379932  44.5591304  68.5182276
  50.6614131  45.0249417  68.3746850  49.4980523  44.6264913  67.7679873
  49.9795624  44.6375141  68.3867058  49.1066087  41.4188846  79.7682965
  48.4923080  40.8746896  80.0631601  49.6233372  40.9053083  79.2888782
  49.0921750  41.2625255  79.7407194  48.3462384  42.4893116  77.5027264
  47.9189993  41.8642835  77.0692700  48.3387329  42.2068038  78.3286271
  48.2821526  42.3545897  77.5607092  41.4624912  37.5258289  80.5715698
  41.6218398  36.7701613  80.9767420  41.2817805  38.0749229  81.2256436
  41.4590271  37.4952103  80.7278404  49.4045215  29.6919525  81.1266488
  48.9085776  29.8883199  80.4358054  50.1614277  30.0912193  80.9555289
  49.4432039  29.7797259  80.9986624  46.6748094  33.3661871  77.7169798
  46.6990581  32.8321983  77.0282578  46.9259568  32.8579179  78.3795389
  46.7158013  33.2122775  77.7134443  34.1855684  40.6493366  77.1512942
  34.0799133  40.6040210  76.2865026  33.4355904  40.9947146  77.4327227
  34.0591287  40.6934274  77.0650272  42.9549416  32.0932689  77.0975542
  42.9947788  32.5941895  77.8110250  42.1299081  32.1843083  76.8281465
  42.8388942  32.1814505  77.1626081  45.1379029  41.6593429  85.1995837
  44.2874660  41.7965143  85.3353482  45.3007157  40.9257207  85.6443539
  45.0362893  41.5707530  85.2851436  44.3763780  38.6093199  79.3949441
  43.5455709  38.7767017  79.1884690  44.3215297  38.2329150  80.1798327
  44.2453195  38.5782930  79.4797970  42.1847563  32.1002092  85.0305852
  42.8100266  31.5564224  85.3035284  41.7298043  31.6197009  84.4613643
  42.2095824  31.9491573  84.9867446  42.7499824  36.8848790  69.9239559
  42.8902785  37.3821255  70.6268200  43.2482356  36.1835085  70.0653773
  42.8440905  36.8550769  70.0491138  42.7800046  37.7515901  67.2532136
  43.4145125  38.3476326  67.1881598  42.8625657  37.4519359  68.0678006
  42.8856597  37.7956809  67.3635223  55.7582612  40.2831379  80.1218500
  56.3500452  40.9228629  80.1536698  56.1941606  39.5854415  80.4110567
  55.9101043  40.2749729  80.1699333  44.3579029  33.6829877  67.2277578
  44.6794870  33.2032959  66.5736840  44.6205973  34.4929523  67.0368390
  44.4445054  33.7319775  67.1033070  47.5876002  44.7048751  80.7476394
  47.0801093  45.2584598  81.1917025  47.2902648  44.7657041  79.9295169
  47.4680887  44.7955062  80.6924851  49.7538184  33.0702071  79.5901057
  50.1793255  32.6174597  78.9784583  49.1395177  32.5162141  79.8665845
  49.7266829  32.9216047  79.5406082  39.2853034  39.9483742  70.5221682
  39.7945263  40.5448250  70.9032988  39.7587306  39.6809716  69.8398102
  39.4296410  39.9969558  70.4776205  50.1983782  48.6212009  68.6780338
  49.4813092  48.4472871  68.2127575  50.8490520  48.3864581  68.1455824
  50.1885632  48.5607801  68.5309555  48.1932407  29.5417170  72.9991634
  47.5500725  29.3914817  73.5676772  47.8531814  29.2959516  72.2340739
  48.0477484  29.4829293  72.9694649  52.7831753  37.4976597  72.4221643
  52.1122943  38.0406300  72.2934708  53.4771503  37.9671453  72.1803337
  52.7860621  37.6474869  72.3677170  46.8318487  49.6373309  77.6533401
  46.6084141  48.8792139  78.0217427  46.3428330  49.6671331  76.9313841
  46.7261936  49.5295534  77.6010142  52.9459881  33.9532481  75.3312016
  53.2987491  33.5262204  76.0057815  52.0874682  33.8683324  75.4613092
  52.8709325  33.8777222  75.4507026  41.6443566  36.5840001  73.3894862
  40.9255555  37.0004133  73.6567726  42.0155928  37.1494239  72.8386501
  41.5935497  36.7289282  73.3477669  50.9443146  37.2167850  79.2796858
  50.9241074  37.0351145  80.1331637  50.9922347  38.0879868  79.2556442
  50.9477787  37.3184388  79.4020153  48.8889476  43.8055042  85.2045335
  48.8485331  43.1604718  84.6190491  49.7012795  43.7491659  85.5170747
  49.0032630  43.7014008  85.1642284  45.4796944  49.8573767  75.1070486
  45.0657342  49.1947898  74.7174327  46.1644318  50.0051626  74.5866180
  45.5195316  49.7814426  74.9726983  48.8462238  49.0163853  75.8594102
  48.4478521  49.1266123  75.0914922  48.2313458  49.2245919  76.4420662
  48.6961127  49.0637421  75.8325401  47.4190140  35.6238001  68.7268242
  46.8254979  35.9454997  68.1752809  47.4565418  34.7779096  68.5189348
  47.3364529  35.5462329  68.6151013  54.3783941  29.0750893  76.2596328
  53.8714805  28.3680032  76.1917506  55.1751374  28.7444082  76.3897405
  54.4211180  28.9224044  76.2695323  50.2947957  35.5817505  72.1569992
  50.0661650  35.6050206  71.3148350  50.5546033  34.7574972  72.2765003
  50.2994145  35.4633585  72.0495190  44.5767185  37.4351978  81.7595092
  44.0646088  36.8273161  82.1180124  44.4046681  38.1508571  82.2269068
  44.4756822  37.4515277  81.8811316  39.4232900  35.8789553  84.4097454
  39.2535490  36.5390928  83.8645661  38.9798850  36.0896115  85.1309943
  39.3332233  36.0075536  84.4359084  43.3492719  34.1194051  73.4524188
  43.8250085  34.4811131  72.8174369  42.8481319  34.7750519  73.7324330
  43.3458078  34.2688240  73.4000929  56.5804081  43.5915819  69.2437193
  56.9637686  44.3407176  69.4735290  55.7848194  43.8381639  68.9849182
  56.5197863  43.7385513  69.2394766  48.4536255  35.3576223  84.1997348
  49.0107685  35.1290032  83.5675813  48.1297320  36.1181888  83.9232560
  48.4882666  35.4360059  84.0653845  36.3234964  38.7836419  79.6685944
  35.7761684  38.1137064  79.7866812  37.1127342  38.4166267  79.7329411
  36.3587148  38.6301405  79.6954644  46.1719373  38.4443876  85.1649355
  46.9230700  38.7595553  85.4788909  46.3641949  38.2423047  84.3383277
  46.3110787  38.4611258  85.0892751  45.3919372  36.2635251  66.8197572
  45.7718337  36.2814880  66.0348686  44.6511968  36.7089240  66.6988419
  45.3388210  36.3317026  66.6861140  53.0204663  34.5717442  72.4073150
  53.0198889  34.4166099  73.2657427  52.8160843  35.4180429  72.3514536
  52.9904441  34.6738063  72.5261090  35.0821934  37.9957227  76.8231967
  34.9043695  37.5433836  77.5486883  34.7940956  38.7983388  77.0070444
  35.0134887  38.0479785  76.9575470  50.7445515  39.2514944  76.0609357
  51.2399180  38.5337939  76.0213378  49.9345291  38.9485742  75.9463844
  50.6989408  39.1012590  76.0383083  46.1904126  43.1012757  68.2106362
  45.3815449  42.7779431  68.1639671  46.6979035  42.3945979  68.1434610
  46.1453793  42.9494074  68.1936656  36.8194404  40.5284950  73.9353726
  35.9539923  40.5170641  73.8236497  36.9193219  40.3415173  74.7824865
  36.7068571  40.4991012  74.0442670  42.4451413  50.2982849  77.5083832
  42.7597972  51.1119238  77.5161613  42.8544827  49.9133068  78.1765991
  42.5519511  50.3611551  77.6087923  49.3975933  45.7152896  75.0787643
  49.8687111  46.4293158  75.2477629  49.7336112  45.1151646  75.6147513
  49.5171048  45.7324360  75.1820019  46.3145428  30.4880366  82.0345738
  46.4473334  29.6911360  82.3626714  46.6990581  31.0146769  82.6144014
  46.3901757  30.4480283  82.1689241  49.3877783  27.4110693  78.6326832
  48.5823747  27.3008422  78.9494670  49.2584519  27.5123148  77.7756697
  49.2497916  27.4094363  78.5534872  52.8443744  33.5756184  79.2266528
  52.2606733  34.0765391  78.8144096  53.1648038  33.0685741  78.5930852
  52.8056919  33.5748020  79.0725036  45.3838543  32.4896779  69.5025203
  46.2054237  32.6595092  69.2606898  44.9208194  32.6444040  68.7791501
  45.4369705  32.5378512  69.3596848  43.9733875  30.4839542  80.2823632
  44.5178288  30.1430668  80.8727974  44.0270811  31.3425003  80.4244917
  44.0622994  30.5594801  80.3905505  39.7864434  44.2455958  77.1562440
  40.3909291  44.2051792  76.5276261  39.5791746  45.0927110  77.1866496
  39.8453331  44.3643960  77.0678556  49.6008206  46.5121903  78.3724677
  50.4206580  46.3684869  78.6340973  49.3202283  47.1368102  78.9141115
  49.6804949  46.5832255  78.4912617  35.0215716  43.2290575  77.0261363
  34.9239994  42.4186847  77.3351420  35.8044586  43.2082368  76.6407631
  35.1231852  43.1057665  77.0148226  53.6562681  62.7925123  71.8557716
  52.9045580  62.4140662  71.6273761  54.1048692  62.8243557  71.1076526
  53.6112347  62.7410730  71.7115218  59.1087641  63.2150493  67.2843263
  58.7739009  63.8927414  66.8487485  59.6214511  62.8255804  66.6960134
  59.1353222  63.2575071  67.1330054  58.6491932  65.1664761  73.2254374
  59.0331311  65.7351660  72.6859150  58.5851073  64.4414272  72.7460190
  58.6965359  65.1440225  73.0748237  55.2347437  62.8043515  74.1220488
  55.3357800  61.9943869  74.4317616  54.6389182  62.7100462  73.4920167
  55.1619975  62.6708544  74.0746727  55.0748176  67.7221105  75.5235344
  55.7185632  68.1634269  75.9131503  55.4004432  66.9174531  75.4365603
  55.2180005  67.6686299  75.5680821  48.4312481  58.8263802  73.7472822
  48.1962666  57.9931454  73.6405091  48.5698122  59.1068468  72.9334023
  48.4168144  58.7447305  73.6115177  50.7302569  50.9949533  76.6457130
  50.1107600  50.4042180  76.4767144  50.6286432  51.5860968  76.0121453
  50.6240244  50.9953615  76.5262119  55.7768756  60.7333079  70.8955206
  56.0984597  61.2738287  70.2916514  56.4240853  60.1629851  71.0277496
  55.9194811  60.7292255  70.8262241  57.8270464  52.7349074  70.9789593
  58.5250629  52.9137202  71.4711056  58.1422797  52.2119414  70.3559982
  57.9765801  52.6842847  70.9591603  50.4571702  54.5401814  78.8900699
  50.3330398  55.1264260  79.5250517  51.1089986  54.0462010  79.1912973
  50.5345351  54.5540619  79.0286628  58.0158400  59.1219519  70.9669384
  58.4552035  58.5136620  71.4124157  57.8663062  58.7426893  70.1954849
  58.0579865  58.9757991  70.9188551  55.4830043  57.7163531  78.1688210
  56.1279045  57.2235974  77.8499158  55.7231820  57.8588318  78.9954288
  55.6140628  57.6640973  78.2437743  58.0216134  60.5618437  77.8195102
  58.3039377  59.7669843  77.5981858  58.7502294  61.0399025  77.8400163
  58.1705698  60.5153034  77.7898117  54.4385777  57.9894712  68.2205356
  53.8542992  58.4944743  68.6271220  54.0355872  57.7637099  67.4801948
  54.2925081  58.0302960  68.1710382  49.9929806  63.7049473  75.0229028
  49.5097384  64.4299962  74.9988612  50.8053124  64.0025603  75.1339186
  50.0420554  63.8551827  75.0356307  56.0643960  62.4981654  77.6278842
  55.5470901  62.1389069  77.0240151  56.7618351  61.9743828  77.6384909
  56.0909541  62.3679341  77.5409101  59.7207552  62.9476468  83.5895015
  59.8090898  62.7602608  84.4373226  60.1497264  62.3013897  83.1899862
  59.7969654  62.8239475  83.6566767  57.2878012  62.2307628  82.5712678
  56.7248846  61.8180237  83.0952339  58.0499035  62.1560533  82.9905821
  57.3172460  62.1585028  82.7105678  54.2053282  46.1653759  70.5433815
  54.9599250  46.5332077  70.3050865  54.0280816  46.5393314  71.3112995
  54.2907760  46.2751947  70.6218704  52.8474003  64.2205649  75.1749308
  53.5494582  63.7057638  75.2322064  52.7671486  64.5479800  75.9796183
  52.9397764  64.1919875  75.3022100  52.5610347  48.5724078  67.2411928
  52.3785920  48.7895959  66.4152921  53.4235960  48.6863091  67.2970542
  52.6614936  48.6213976  67.1266415  52.1724778  60.4112001  74.6834916
  53.0113678  60.6434933  74.7308677  52.2036548  59.5416312  74.6141951
  52.3006496  60.3168947  74.6799561  52.7977481  60.8312876  78.9848221
  53.3375706  60.6884007  79.6551594  52.1147428  61.2309627  79.3532248
  52.7769635  60.8692547  79.1382643  58.2410066  45.5750489  70.2760952
  58.9696226  45.3966444  69.8299108  58.3304959  46.4168569  70.4868130
  58.3616728  45.6734368  70.2414469  59.8327611  62.3785487  86.2538799
  60.6168028  62.4916334  86.6194541  59.6324206  61.5526624  86.4497485
  59.9193637  62.2732206  86.3373185  48.2014627  57.0513167  79.1382643
  47.9353042  56.2352283  79.2973633  48.2153191  57.0966322  78.2678158
  48.1639349  56.9370071  79.0336125  52.1072374  51.8498251  65.7534401
  51.3930551  51.5636431  66.1656834  52.5916342  52.1894877  66.3940788
  52.0731737  51.8579901  65.9090036  59.9898004  64.2895589  79.9005255
  59.1913250  64.0495089  80.1579123  60.4384016  64.3409982  80.6472302
  59.9372616  64.2617980  80.0490179  48.6108040  57.8371946  76.4194387
  48.4283613  57.8118832  75.5666679  49.3457709  58.3070884  76.4583296
  48.6922104  57.9033308  76.2992306  48.5778951  54.7165447  76.5693454
  49.1552453  54.5801898  77.2085699  47.8793012  54.2601231  76.8239038
  48.5599972  54.6287713  76.7015743  55.3346253  56.3699502  74.7831937
  55.0765497  55.5371237  74.7563236  55.3894736  56.5957115  73.9424437
  55.3046031  56.2797274  74.6552074  54.3080965  53.9237265  75.2696832
  53.7330556  54.0829433  75.9060793  53.9316641  53.2872674  74.8065282
  54.1683777  53.8535078  75.2951390  44.0537784  53.5677340  73.2841272
  44.1398036  53.1909208  74.0654802  44.6813581  53.1937785  72.8061231
  44.1594335  53.4562822  73.3286750  54.9501100  60.0980736  73.4538329
  55.5875047  59.8592484  73.9990123  55.3756172  60.3017895  72.7191490
  55.1077266  60.0931746  73.4255487  49.6413742  62.3369073  77.3372633
  49.6817888  62.6083924  76.5092413  50.2008267  62.8610981  77.7530421
  49.7297088  62.4544828  77.2764521  55.5903915  55.3183026  67.7913219
  55.9749068  55.0990733  68.5429764  55.3415535  56.1445971  67.9214295
  55.6105988  55.4081172  67.9214295  57.3322572  60.5753159  75.1332115
  57.4061580  60.4128331  75.9873965  58.1492078  60.7643348  74.8892597
  57.4638931  60.5789901  75.2230141  51.0928329  60.9211022  72.1626559
  50.2666446  61.1672759  72.0360838  51.1540320  60.8423103  73.0288617
  50.9802496  60.9455971  72.2715503  53.3104352  46.9879963  73.1221999
  52.4426778  47.0602562  73.1879608  53.5979557  47.7902042  73.3109974
  53.2244101  47.1174110  73.1596766  55.8727158  63.5387902  69.8645589
  56.1625456  63.1476883  69.1404815  56.6030639  63.7204607  70.3050864
  56.0234042  63.5081716  69.8228396  53.8133073  65.5155284  72.9305739
  53.5933369  65.2252639  73.7232406  53.5927595  64.8570239  72.4023651
  53.7480667  65.3754993  72.9694647  52.7250021  57.6028601  75.1961440
  52.4363269  56.9766072  75.7307168  53.5933369  57.5448888  75.2626121
  52.8110272  57.5016145  75.2852395  55.9801029  66.8884674  71.7136431
  56.6325087  66.3561117  71.9427457  55.2826638  66.5353327  72.1004305
  55.9731747  66.7574197  71.8048599  52.9282294  59.2423852  71.1203805
  53.6828262  59.6236891  71.3339268  52.3352907  59.6934996  71.5750502
  52.9519007  59.3652679  71.2186684  54.2480520  60.4132413  76.4943921
  53.7261274  60.5532705  77.1795785  54.6354541  59.6543078  76.6846038
  54.2284221  60.3217937  76.6244997  51.2371705  50.4638222  70.5638875
  50.9496500  50.0939492  69.8270823  51.9242173  50.9333077  70.3022580
  51.2960602  50.4785191  70.4153951  55.6746846  57.4436432  71.8925412
  55.4789629  58.0511167  71.2985715  55.8981192  56.7504376  71.4117086
  55.6781487  57.4313958  71.7341493  54.0725376  54.3291170  72.0106280
  54.7948028  54.4932328  71.5510086  53.5933369  55.0500835  71.9045620
  54.1089107  54.4589400  71.9271894  51.7232993  56.7349243  81.1160420
  52.2354090  57.0133496  80.4669180  51.4369335  57.4738537  81.4823233
  51.7567856  56.8851596  81.0750298  60.4788162  47.5640346  72.1230581
  61.1814515  47.3648094  71.6450539  60.2132351  46.7916288  72.4299424
  60.5434794  47.4203312  72.0976023  48.8099899  51.2419434  71.4124156
  48.9116036  52.0445596  71.7405132  49.6055786  51.0406770  71.1147237
  48.9427805  51.3305333  71.4159512  49.6263631  51.3566613  79.1545278
  49.4849123  50.5050553  79.2789786  49.9104195  51.3995273  78.3307484
  49.6471477  51.2366363  79.0512902  54.8127006  64.1193193  79.5773776
  54.9616570  63.5596109  78.9247181  55.5927008  64.1985195  79.9606295
  54.9501099  64.0478759  79.5370725  57.3380306  64.2907836  80.8558267
  57.2623978  63.6216647  81.4109055  57.2670166  64.9925624  81.3698933
  57.3160913  64.2952743  81.0135115  57.9950553  62.8108835  71.6881873
  58.7600445  62.5418479  71.3664537  57.8928643  62.3258845  72.4051936
  58.0932049  62.6998400  71.7461701  57.2260247  56.1825643  76.8514811
  56.8022496  56.3830142  76.1153829  57.0505103  55.3354491  76.9639110
  57.1371128  56.0874424  76.7588501  56.7271941  67.6976156  79.3136268
  57.2167871  66.9986945  79.1311932  56.1556173  67.4000026  79.9012325
  56.7156471  67.5502380  79.3737309  52.5142692  56.6777694  72.2842783
  52.6707311  56.6124497  73.1398775  52.8543285  57.4526247  72.0721463
  52.5875927  56.7826893  72.3797377  59.0521837  56.0535578  71.1536146
  59.5937382  55.5505959  71.6174767  59.3668396  56.0000773  70.3425632
  59.1786234  55.9714999  71.1019958  57.2208287  61.4452929  68.4376174
  57.2901107  60.5867468  68.5769175  57.9996742  61.6624810  68.1095199
  57.3461137  61.3505793  68.4093332  49.0876954  53.8612645  72.6003550
  49.4675919  54.2797190  71.9363818  48.5132319  54.4426101  72.9072394
  49.0588279  54.0090504  72.5480291  52.7307755  55.4273050  77.2319045
  51.8895762  55.3276924  77.4397939  52.9397763  56.1968530  77.5833365
  52.6372448  55.5265093  77.3146360  50.2083322  53.0492587  75.0603795
  49.8140020  53.1235598  74.2853905  49.6523439  53.4350533  75.6112157
  50.0686135  53.1174361  75.0271455  56.5424420  53.3554449  76.4816642
  56.2387558  52.8010437  77.0827050  55.8403841  53.5346659  75.9944676
  56.3940630  53.2999231  76.4986348  55.5990517  50.6654969  71.0461344
  55.8750252  49.9473881  70.6338912  56.1989187  51.2639888  70.8382450
  55.7283782  50.6475339  70.9542105  54.6042771  60.5704169  81.1888740
  54.4963126  60.5806232  82.0550798  54.8138553  61.3958950  80.9993694
  54.6192882  60.6945244  81.2892832  59.1001038  48.3368486  69.3207939
  59.5544784  48.5079046  70.0455784  59.5741084  47.7236597  68.9205715
  59.2369358  48.2719371  69.3681701  52.6216563  57.8216812  78.6510678
  52.0304496  58.4626310  78.6213693  53.3837587  58.2454429  78.6241977
  52.6464824  57.9792650  78.6425825  56.4414058  55.0411020  70.4252946
  57.1856103  55.4285297  70.6635896  56.5874754  54.1968446  70.5893434
  56.5724643  54.9741493  70.4846916  53.1666750  51.4350449  78.3540830
  52.5419820  51.4468841  77.7466782  52.8312345  51.9110624  79.0032070
  53.0252242  51.5068966  78.3597398  53.3508498  49.7775568  64.4113515
  53.0021303  50.4295293  64.8745064  52.8704944  49.7632681  63.6837386
  53.2278742  49.8718621  64.3724606  49.8792425  59.4950909  79.7944594
  49.3492350  58.8043348  79.8439569  50.1517519  59.4861095  78.9657302
  49.8417148  59.3918041  79.6792010  52.4357495  53.0443597  80.5715698
  52.5950982  52.2886921  80.9767420  52.2550389  53.5934537  81.2256436
  52.4322854  53.0137411  80.7278404  45.1588268  56.1678674  77.1512942
  45.0531717  56.1225518  76.2865026  44.4088488  56.5132454  77.4327227
  45.0323870  56.2119582  77.0650272  53.7232407  52.4034098  69.9239559
  53.8635368  52.9006562  70.6268200  54.2214940  51.7020393  70.0653773
  53.8173488  52.3736077  70.0491138  53.7532630  53.2701209  67.2532136
  54.3877709  53.8661634  67.1881598  53.8358240  52.9704667  68.0678006
  53.8589181  53.3142117  67.3635223  55.3311612  49.2015185  67.2277578
  55.6527453  48.7218267  66.5736840  55.5938556  50.0114831  67.0368390
  55.4177638  49.2505083  67.1033070  50.2585617  55.4669050  70.5221682
  50.7677847  56.0633558  70.9032988  50.7319890  55.1995024  69.8398102
  50.4028993  55.5154865  70.4776205  59.1664990  45.0602478  72.9991634
  58.5233308  44.9100125  73.5676772  58.8264397  44.8144824  72.2340739
  59.0210068  45.0014601  72.9694649  57.8051070  65.1558617  77.6533401
  57.5816725  64.3977447  78.0217427  57.3160914  65.1856638  76.9313841
  57.6994519  65.0480842  77.6010142  52.6176149  52.1025309  73.3894862
  51.8988138  52.5189441  73.6567726  52.9888511  52.6679547  72.8386501
  52.5668081  52.2474590  73.3477669  56.4529527  65.3759075  75.1070486
  56.0389926  64.7133206  74.7174327  57.1376902  65.5236934  74.5866180
  56.4927899  65.2999734  74.9726983  59.8194822  64.5349161  75.8594102
  59.4211105  64.6451431  75.0914922  59.2046041  64.7431227  76.4420662
  59.6693711  64.5822729  75.8325401  47.2967548  54.3021727  79.6685944
  46.7494267  53.6322372  79.7866812  48.0859926  53.9351575  79.7329411
  47.3319731  54.1486713  79.6954644  46.0554517  53.5142535  76.8231967
  45.8776278  53.0619144  77.5486883  45.7673539  54.3168696  77.0070444
  45.9867470  53.5665092  76.9575470  47.7926987  56.0470258  73.9353726
  46.9272507  56.0355949  73.8236497  47.8925803  55.8600481  74.7824865
  47.6801154  56.0176320  74.0442670  53.4183997  65.8168157  77.5083832
  53.7330556  66.6304545  77.5161613  53.8277410  65.4318376  78.1765991
  53.5252095  65.8796859  77.6087923  62.4585501  62.8439517  87.2579716
  62.5682467  62.0548078  87.6136463  62.7876398  62.7545453  86.4554054
  62.5237907  62.7145370  87.1922106  56.3571126  48.0082087  69.5025203
  57.1786821  48.1780400  69.2606898  55.8940777  48.1629348  68.7791501
  56.4102289  48.0563820  69.3596848  50.7597017  59.7641265  77.1562440
  51.3641875  59.7237100  76.5276261  50.5524330  60.6112418  77.1866496
  50.8185914  59.8829268  77.0678556  45.9948299  58.7475883  77.0261363
  45.8972577  57.9372154  77.3351420  46.7777169  58.7267676  76.6407631
  46.0964436  58.6242973  77.0148226  64.6295264  78.3110431  71.8557716
  63.8778164  77.9325970  71.6273761  65.0781276  78.3428865  71.1076526
  64.5844931  78.2596038  71.7115218  73.5547841  75.0434239  85.6980940
  74.2614608  74.5486270  85.8267875  73.7435777  75.4843320  84.9683598
  73.6875747  75.0352589  85.6089986  70.0820224  78.7335801  67.2843263
  69.7471593  79.4112722  66.8487485  70.5947095  78.3441112  66.6960134
  70.1085805  78.7760379  67.1330054  69.6224515  80.6850069  73.2254374
  70.0063895  81.2536968  72.6859150  69.5583657  79.9599580  72.7460190
  69.6697943  80.6625533  73.0748237  66.2080020  78.3228823  74.1220488
  66.3090383  77.5129177  74.4317616  65.6121766  78.2285770  73.4920167
  66.1352559  78.1893851  74.0746727  66.0480760  83.2406413  75.5235344
  66.6918215  83.6819577  75.9131503  66.3737016  82.4359839  75.4365603
  66.1912589  83.1871607  75.5680821  59.4045065  74.3449110  73.7472822
  59.1695249  73.5116762  73.6405091  59.5430705  74.6253776  72.9334023
  59.3900727  74.2632613  73.6115177  61.7035152  66.5134841  76.6457130
  61.0840184  65.9227488  76.4767144  61.6019016  67.1046276  76.0121453
  61.5972828  66.5138923  76.5262119  66.7501340  76.2518387  70.8955206
  67.0717181  76.7923595  70.2916514  67.3973436  75.6815159  71.0277496
  66.8927395  76.2477563  70.8262241  61.4304285  70.0587122  78.8900699
  61.3062982  70.6449568  79.5250517  62.0822570  69.5647318  79.1912973
  61.5077935  70.0725927  79.0286628  66.4562626  73.2348839  78.1688210
  67.1011629  72.7421282  77.8499158  66.6964403  73.3773626  78.9954288
  66.5873211  73.1826281  78.2437743  68.9948718  76.0803745  77.8195102
  69.2771960  75.2855151  77.5981858  69.7234878  76.5584333  77.8400163
  69.1438281  76.0338342  77.7898117  78.9766806  75.1863107  74.7930933
  78.1464509  75.3973751  74.9564349  78.9276058  74.3600162  74.5173217
  78.8473541  75.0952714  74.7768298  60.9662389  79.2234781  75.0229028
  60.4829968  79.9485270  74.9988612  61.7785708  79.5210911  75.1339186
  61.0153137  79.3737134  75.0356307  67.0376543  78.0166961  77.6278842
  66.5203485  77.6574376  77.0240151  67.7350935  77.4929136  77.6384909
  67.0642125  77.8864649  77.5409101  70.6940135  78.4661776  83.5895015
  70.7823481  78.2787916  84.4373226  71.1229848  77.8199205  83.1899862
  70.7702238  78.3424783  83.6566767  68.2610595  77.7492935  82.5712678
  67.6981430  77.3365545  83.0952339  69.0231619  77.6745841  82.9905821
  68.2905044  77.6770336  82.7105678  69.8695575  69.7545672  66.6974277
  70.1091579  69.9623655  65.8849620  70.1911416  68.9503180  66.8063222
  69.9532733  69.6659773  66.5934830  63.8206587  79.7390957  75.1749308
  64.5227166  79.2242946  75.2322064  63.7404070  80.0665108  75.9796183
  63.9130347  79.7105183  75.3022100  64.8685493  69.9766544  84.3029723
  65.0405997  69.8672438  85.1515004  65.4054851  70.6220949  84.0660915
  64.9730497  70.0558545  84.3934820  63.1457362  75.9297309  74.6834916
  63.9846261  76.1620241  74.7308677  63.1769131  75.0601620  74.6141951
  63.2739080  75.8354255  74.6799561  63.7710065  76.3498184  78.9848221
  64.3108290  76.2069315  79.6551594  63.0880011  76.7494935  79.3532248
  63.7502219  76.3877855  79.1382643  76.2331121  75.8562462  74.9295649
  75.7966353  75.8599204  75.6854620  75.8994037  76.5367961  74.4975226
  76.1193741  75.9574917  74.9776481  70.8060195  77.8970795  86.2538799
  71.5900611  78.0101642  86.6194541  70.6056789  77.0711932  86.4497485
  70.8926220  77.7917514  86.3373185  59.1747210  72.5698475  79.1382643
  58.9085625  71.7537591  79.2973633  59.1885774  72.6151630  78.2678158
  59.1371932  72.4555379  79.0336125  63.9245817  66.1076853  81.7849651
  63.2317613  65.6373833  82.0310382  64.5406144  65.8815157  82.3591358
  63.9130346  66.0043985  81.9058803  70.9630588  79.8080897  79.9005255
  70.1645834  79.5680397  80.1579123  71.4116600  79.8595289  80.6472302
  70.9105199  79.7803288  80.0490179  59.5840624  73.3557254  76.4194387
  59.4016197  73.3304140  75.5666679  60.3190293  73.8256192  76.4583296
  59.6654688  73.4218616  76.2992306  62.6486375  70.0742257  82.9276496
  63.3726348  70.0595288  83.4141391  62.7502512  70.7837612  82.4298464
  62.7704585  70.1766960  82.9255283  70.0231325  73.5541341  87.7925443
  69.2304306  73.8684853  87.9778063  70.1380252  73.7692810  86.9546227
  69.9226735  73.6325178  87.6963778  70.9515118  73.4561545  82.7310740
  71.5253979  72.8188789  82.8859303  70.8729921  73.4565628  81.8620397
  71.0248353  73.3626657  82.6257150  59.5511534  70.2350755  76.5693454
  60.1285037  70.0987205  77.2085699  58.8525596  69.7786539  76.8239038
  59.5332556  70.1473021  76.7015743  68.9486837  67.9145922  80.1289210
  68.5601270  67.4900140  79.4741401  68.2841535  68.1628072  80.6366237
  68.7933765  67.8884643  80.1077078  55.0270367  69.0862648  73.2841272
  55.1130619  68.7094516  74.0654802  55.6546165  68.7123093  72.8061231
  55.1326918  68.9748130  73.3286750  76.2735266  74.8270523  82.7395593
  76.0373903  73.9958588  82.6207653  76.9178494  74.7756130  83.3250437
  76.3329936  74.6968211  82.8081486  65.9233684  75.6166044  73.4538329
  66.5607631  75.3777792  73.9990123  66.3488755  75.8203203  72.7191490
  66.0809850  75.6117054  73.4255487  60.6146326  77.8554381  77.3372633
  60.6550471  78.1269232  76.5092413  61.1740850  78.3796289  77.7530421
  60.7029672  77.9730136  77.2764521  77.2971686  74.6114972  78.8023887
  76.9917503  75.3443028  79.1637203  76.5777902  74.2052901  78.5216673
  77.1459028  74.6596705  78.8137024  68.3055156  76.0938467  75.1332115
  68.3794164  75.9313639  75.9873965  69.1224662  76.2828656  74.8892597
  68.4371514  76.0975209  75.2230141  62.0660912  76.4396330  72.1626559
  61.2399030  76.6858067  72.0360838  62.1272903  76.3608410  73.0288617
  61.9535079  76.4641279  72.2715503  66.8459741  79.0573210  69.8645589
  67.1358040  78.6662191  69.1404815  67.5763222  79.2389915  70.3050864
  66.9966625  79.0267024  69.8228396  67.4354486  73.8590956  80.9498719
  66.9366180  74.5706723  81.0283608  68.2454711  74.1791622  80.9116882
  67.4810593  74.0117804  80.9555288  64.7865657  81.0340592  72.9305739
  64.5665952  80.7437947  73.7232406  64.5660179  80.3755547  72.4023651
  64.7213251  80.8940301  72.9694647  63.6982604  73.1213909  75.1961440
  63.4095853  72.4951380  75.7307168  64.5665952  73.0634196  75.2626121
  63.7842856  73.0201453  75.2852395  66.9533613  82.4069982  71.7136431
  67.6057671  81.8746425  71.9427457  66.2559221  82.0538635  72.1004305
  66.9464331  82.2759505  71.8048599  63.9014877  74.7609160  71.1203805
  64.6560845  75.1422199  71.3339268  63.3085490  75.2120303  71.5750502
  63.9251591  74.8837987  71.2186684  66.3621544  66.7172000  86.2461018
  65.5521320  67.0229780  86.1350860  66.8396231  67.4377583  86.3613602
  66.3125023  66.8686601  86.2468089  65.2213104  75.9317721  76.4943921
  64.6993858  76.0718013  77.1795785  65.6087124  75.1728385  76.6846038
  65.2016805  75.8403245  76.6244997  62.6965576  72.2534551  81.1160420
  63.2086673  72.5318804  80.4669180  62.4101919  72.9923845  81.4823233
  62.7300440  72.4036904  81.0750298  60.5996215  66.8751921  79.1545278
  60.4581707  66.0235861  79.2789786  60.8836778  66.9180581  78.3307484
  60.6204061  66.7551671  79.0512902  74.6482856  75.4202370  77.0876548
  74.5097215  76.1183416  77.5925290  73.8682854  75.2651027  76.7312729
  74.5126083  75.5002537  77.1102822  72.9860941  71.7198746  83.3398929
  72.9808980  70.8478562  83.3441356  73.6921935  71.9186915  82.8668385
  73.0905945  71.6202620  83.2705965  66.7131834  71.4475729  82.7112749
  66.8575210  72.0276938  82.0755859  67.0607483  71.8252026  83.4162604
  66.7859296  71.5896433  82.7211744  65.7859589  79.6378501  79.5773776
  65.9349153  79.0781417  78.9247181  66.5659592  79.7170503  79.9606295
  65.9233683  79.5664067  79.5370725  68.3112890  79.8093144  80.8558267
  68.2356561  79.1401955  81.4109055  68.2402749  80.5110932  81.3698933
  68.2893497  79.8138051  81.0135115  61.3686520  64.7882268  82.4722728
  60.8328710  64.1762626  82.7883496  61.4304285  65.3630404  83.1256395
  61.2982153  64.7829196  82.6158155  68.9683137  78.3294143  71.6881873
  69.7333028  78.0603787  71.3664537  68.8661227  77.8444153  72.4051936
  69.0664632  78.2183708  71.7461701  71.4901798  75.3606327  63.6681822
  72.2574783  75.4206452  63.2587674  71.0433106  74.7886768  63.1838141
  71.5375225  75.2842902  63.5359533  69.5173737  69.0078812  82.7098608
  69.4532878  69.8688768  82.5818744  69.6570925  68.6910805  81.9094159
  69.5289207  69.0878978  82.5726821  67.7004524  83.2161464  79.3136268
  68.1900455  82.5172253  79.1311932  67.1288757  82.9185334  79.9012325
  67.6889054  83.0687688  79.3737309  73.8971528  75.7823533  88.2663058
  74.7106393  75.5108682  88.4268191  73.7366494  75.4831073  87.4623254
  73.9941476  75.6978459  88.1708464  68.1940870  76.9638237  68.4376174
  68.2633691  76.1052776  68.5769175  68.9729325  77.1810118  68.1095199
  68.3193720  76.8691101  68.4093332  72.5848358  79.3875939  72.6512668
  72.1928150  79.0842654  71.9335534  72.7401430  80.2245029  72.4617621
  72.5501948  79.4659775  72.5169165  60.0609537  69.3797953  72.6003550
  60.4408502  69.7982498  71.9363818  59.4864902  69.9611408  72.9072394
  60.0320862  69.5275812  72.5480291  67.5376398  71.6325093  65.1318933
  67.8268923  72.4089975  65.4062507  67.6248197  71.1213824  65.8333432
  67.5930654  71.6717011  65.2761430  70.4336285  69.4806327  86.9270456
  70.9035917  70.1048443  87.3138330  70.4798166  68.8123303  87.4863671
  70.5104161  69.4741007  87.0670528  73.9092772  76.8429823  83.5385899
  74.5472492  76.3490019  83.2048355  73.2666863  76.7707224  82.9538126
  73.9086998  76.7588832  83.4028254  73.9647028  77.5349632  80.1791256
  74.7539407  77.1838697  80.2993337  74.1390626  78.3486020  79.9167890
  74.1067310  77.6035489  80.1579124  63.7040339  70.9458358  77.2319045
  62.8628345  70.8462232  77.4397939  63.9130347  71.7153838  77.5833365
  63.6105031  71.0450401  77.3146360  61.1815906  68.5677894  75.0603795
  60.7872604  68.6420906  74.2853905  60.6256023  68.9535841  75.6112157
  61.0418718  68.6359669  75.0271455  65.5775355  76.0889477  81.1888740
  65.4695710  76.0991540  82.0550798  65.7871136  76.9144258  80.9993694
  65.5925466  76.2130552  81.2892832  63.5949147  73.3402120  78.6510678
  63.0037080  73.9811618  78.6213693  64.3570170  73.7639737  78.6241977
  63.6197407  73.4977958  78.6425825  65.6393119  65.1670812  83.8850722
  65.2478684  64.5204160  84.3206500  65.8078982  65.7582248  84.5044978
  65.6064030  65.1585080  84.0413428  79.7139568  73.1707890  79.6487956
  79.7722692  73.6194538  80.3947932  79.0806036  73.5806702  79.2118036
  79.6290863  73.2981624  79.6940504  73.3538663  78.7911431  76.0842702
  73.1558352  79.2802246  75.3898913  72.7326374  78.9952673  76.6626835
  73.2326227  78.8927970  76.0665925  60.7797547  68.1293308  81.6930411
  61.6423160  68.0289017  81.6067741  60.4489330  67.5488018  81.1315984
  60.8582744  68.0284935  81.5975817  76.6661248  71.1924177  77.7353646
  76.4259471  70.3530592  77.7396073  77.1453255  71.2724344  78.4594420
  76.7013431  71.0805577  77.8428448  75.2712465  72.3575584  81.6187950
  75.9946664  71.9048110  81.4398970  75.0062427  72.6380249  80.8360278
  75.3393738  72.3326552  81.4766666  64.1399333  66.9535757  78.3540830
  63.5152403  66.9654149  77.7466782  63.8044928  67.4295932  79.0032070
  63.9984825  67.0254274  78.3597398  60.8525009  75.0136217  79.7944594
  60.3224933  74.3228656  79.8439569  61.1250102  75.0046403  78.9657302
  60.8149731  74.9103349  79.6792010  63.4090079  68.5628905  80.5715698
  63.5683565  67.8072229  80.9767420  63.2282972  69.1119845  81.2256436
  63.4055438  68.5322719  80.7278404  56.1320851  71.6863981  77.1512942
  56.0264300  71.6410826  76.2865026  55.3821071  72.0317762  77.4327227
  56.0056454  71.7304890  77.0650272  67.0844196  72.6964045  85.1995837
  66.2339827  72.8335759  85.3353482  67.2472324  71.9627823  85.6443539
  66.9828060  72.6078146  85.2851436  66.3228947  69.6463815  79.3949441
  65.4920877  69.8137633  79.1884690  66.2680464  69.2699765  80.1798327
  66.1918362  69.6153546  79.4797970  77.7047779  71.3201995  80.1218500
  78.2965619  71.9599245  80.1536698  78.1406773  70.6225031  80.4110567
  77.8566210  71.3120345  80.1699333  69.5341169  75.7419367  80.7476394
  69.0266260  76.2955214  81.1917025  69.2367815  75.8027657  79.9295169
  69.4146054  75.8325678  80.6924851  68.7783654  80.6743925  77.6533401
  68.5549308  79.9162754  78.0217427  68.2893497  80.7041946  76.9313841
  68.6727103  80.5666150  77.6010142  70.8354643  74.8425657  85.2045335
  70.7950498  74.1975334  84.6190491  71.6477962  74.7862275  85.5170747
  70.9497797  74.7384624  85.1642284  67.4262111  80.8944383  75.1070486
  67.0122510  80.2318513  74.7174327  68.1109485  81.0422242  74.5866180
  67.4660483  80.8185041  74.9726983  70.7927405  80.0534469  75.8594102
  70.3943688  80.1636739  75.0914922  70.1778625  80.2616535  76.4420662
  70.6426294  80.1008037  75.8325401  66.5232352  68.4722594  81.7595092
  66.0111255  67.8643777  82.1180124  66.3511848  69.1879186  82.2269068
  66.4221989  68.4885893  81.8811316  61.3698067  66.9160169  84.4097454
  61.2000657  67.5761544  83.8645661  60.9264017  67.1266730  85.1309943
  61.2797400  67.0446151  84.4359084  58.2700131  69.8207035  79.6685944
  57.7226851  69.1507680  79.7866812  59.0592510  69.4536883  79.7329411
  58.3052315  69.6672021  79.6954644  68.1184540  69.4814492  85.1649355
  68.8695867  69.7966169  85.4788909  68.3107116  69.2793663  84.3383277
  68.2575954  69.4981874  85.0892751  57.0287101  69.0327843  76.8231967
  56.8508862  68.5804452  77.5486883  56.7406123  69.8354004  77.0070444
  56.9600054  69.0850400  76.9575470  58.7659571  71.5655566  73.9353726
  57.9005090  71.5541257  73.8236497  58.8658387  71.3785789  74.7824865
  58.6533738  71.5361628  74.0442670  74.7562501  73.0389247  78.7486486
  75.1817572  72.5163669  78.1956911  74.3919421  73.6370085  78.2275109
  74.7649103  73.0499474  78.5895496  64.3916581  81.3353465  77.5083832
  64.7063140  82.1489853  77.5161613  64.8009994  80.9503684  78.1765991
  64.4984679  81.3982167  77.6087923  71.3441100  76.7523512  75.0787643
  71.8152278  77.4663774  75.2477629  71.6801279  76.1522262  75.6147513
  71.4636215  76.7694976  75.1820019  73.4318085  78.3624825  87.2579716
  73.5415050  77.5733386  87.6136463  73.7608981  78.2730761  86.4554054
  73.4970491  78.2330678  87.1922106  71.9815047  76.5441446  81.8415336
  71.4335993  75.9199330  81.5735401  72.4428075  76.7335718  81.1259416
  71.9682256  76.4800496  81.6965767  61.7329601  75.2826573  77.1562440
  62.3374458  75.2422408  76.5276261  61.5256913  76.1297725  77.1866496
  61.7918498  75.4014576  77.0678556  71.5473373  77.5492519  78.3724677
  72.3671747  77.4055485  78.6340973  71.2667451  78.1738717  78.9141115
  71.6270116  77.6202871  78.4912617  56.9680883  74.2661191  77.0261363
  56.8705161  73.4557462  77.3351420  57.7509753  74.2452984  76.6407631
  57.0697020  74.1428281  77.0148226  88.0187023  85.2057370  71.3367554
  87.9881028  86.0602007  71.5085823  88.6168372  84.9052663  71.8953697
  88.1024181  85.2873867  71.4442356  81.2186708  84.2933021  76.0920484
  80.3624604  84.4541520  76.1429601  81.2654362  83.4225085  76.1125545
  81.0985820  84.1883823  76.1026550  75.6027848  93.8295739  71.8557716
  74.8510747  93.4511277  71.6273761  76.0513859  93.8614173  71.1076526
  75.5577515  93.7781346  71.7115218  84.5280425  90.5619547  85.6980940
  85.2347192  90.0671578  85.8267875  84.7168360  91.0028628  84.9683598
  84.6608330  90.5537897  85.6089986  81.0552808  94.2521109  67.2843263
  80.7204176  94.9298030  66.8487485  81.5679678  93.8626420  66.6960134
  81.0818389  94.2945687  67.1330054  80.5957099  96.2035377  73.2254374
  80.9796478  96.7722276  72.6859150  80.5316240  95.4784888  72.7460190
  80.6430526  96.1810841  73.0748237  84.0638529  86.3525065  78.7352136
  84.6094489  87.0310152  78.7946105  84.0055405  86.2112526  77.8753717
  84.1354443  86.4317067  78.6164196  77.1812604  93.8414131  74.1220488
  77.2822967  93.0314485  74.4317616  76.5854349  93.7471078  73.4920167
  77.1085143  93.7079159  74.0746727  85.8403598  87.7809672  69.6085864
  85.7243124  88.5317358  70.0378002  86.6359484  87.5233626  69.8581951
  85.9408187  87.8544519  69.7089955  77.0213344  98.7591720  75.5235344
  77.6650799  99.2004885  75.9131503  77.3469599  97.9545147  75.4365603
  77.1645172  98.7056915  75.5680821  70.3777648  89.8634418  73.7472822
  70.1427833  89.0302070  73.6405091  70.5163289  90.1439084  72.9334023
  70.3633311  89.7817921  73.6115177  72.6767736  82.0320149  76.6457130
  72.0572767  81.4412796  76.4767144  72.5751599  82.6231584  76.0121453
  72.5705411  82.0324231  76.5262119  77.7233923  91.7703695  70.8955206
  78.0449764  92.3108903  70.2916514  78.3706020  91.2000467  71.0277496
  77.8659978  91.7662870  70.8262241  79.7735631  83.7719690  70.9789593
  80.4715796  83.9507818  71.4711056  80.0887964  83.2490030  70.3559982
  79.9230969  83.7213462  70.9591603  72.4036869  85.5772430  78.8900699
  72.2795566  86.1634876  79.5250517  73.0555153  85.0832626  79.1912973
  72.4810518  85.5911235  79.0286628  79.9623567  90.1590135  70.9669384
  80.4017202  89.5507236  71.4124157  79.8128230  89.7797509  70.1954849
  80.0045032  90.0128606  70.9188551  77.4295210  88.7534147  78.1688210
  78.0744212  88.2606590  77.8499158  77.6696987  88.8958934  78.9954288
  77.5605795  88.7011589  78.2437743  79.9681301  91.5989053  77.8195102
  80.2504544  90.8040459  77.5981858  80.6967462  92.0769640  77.8400163
  80.1170865  91.5523650  77.7898117  77.9462495  79.1412087  75.0610867
  77.6165825  79.5923231  74.3914566  77.2707497  79.0628250  75.6083874
  77.7972931  79.1963222  75.0434091  83.5632903  88.5117317  67.9200153
  83.4784198  89.3678283  68.0649722  84.0517287  88.2361641  68.5882312
  83.6221801  88.5974638  68.0402235  85.1538903  75.1297610  73.3060478
  84.8392344  75.8201088  73.7380900  84.6365844  75.0742392  72.6045979
  85.0303373  75.2232498  73.2657427  84.4951337  85.1302111  69.4197888
  83.9662808  85.3461744  70.0795195  85.0176356  85.8238249  69.3398858
  84.4939790  85.2645248  69.5053488  89.9499389  90.7048415  74.7930933
  89.1197093  90.9159059  74.9564349  89.9008642  89.8785470  74.5173217
  89.8206125  90.6138022  74.7768298  76.3850944  89.0265328  68.2205356
  75.8008160  89.5315359  68.6271220  75.9821040  88.8007714  67.4801948
  76.2390248  89.0673576  68.1710382  71.9394973  94.7420089  75.0229028
  71.4562551  95.4670578  74.9988612  72.7518291  95.0396219  75.1339186
  71.9885721  94.8922442  75.0356307  78.0109127  93.5352269  77.6278842
  77.4936069  93.1759684  77.0240151  78.7083518  93.0114444  77.6384909
  78.0374708  93.4049957  77.5409101  81.6672719  93.9847083  83.5895015
  81.7556065  93.7973224  84.4373226  82.0962432  93.3384513  83.1899862
  81.7434821  93.8610091  83.6566767  79.2343179  93.2678243  82.5712678
  78.6714014  92.8550853  83.0952339  79.9964202  93.1931149  82.9905821
  79.2637627  93.1955644  82.7105678  80.8428159  85.2730980  66.6974277
  81.0824162  85.4808963  65.8849620  81.1644000  84.4688488  66.8063222
  80.9265317  85.1845081  66.5934830  74.7939170  95.2576265  75.1749308
  75.4959750  94.7428254  75.2322064  74.7136653  95.5850416  75.9796183
  74.8862931  95.2290491  75.3022100  89.4453348  83.3518816  78.5881354
  88.6081769  83.4221003  78.8228949  89.4141579  83.3543311  77.7155657
  89.3171630  83.3629043  78.4940902  75.8418077  85.4951851  84.3029723
  76.0138580  85.3857746  85.1515004  76.3787434  86.1406257  84.0660915
  75.9463081  85.5743853  84.3934820  74.1189946  91.4482617  74.6834916
  74.9578845  91.6805549  74.7308677  74.1501715  90.5786928  74.6141951
  74.2471663  91.3539563  74.6799561  74.7442649  91.8683492  78.9848221
  75.2840874  91.7254623  79.6551594  74.0612595  92.2680243  79.3532248
  74.7234803  91.9063163  79.1382643  80.1875233  76.6121105  70.2760952
  80.9161393  76.4337060  69.8299108  80.2770126  77.4539185  70.4868130
  80.3081895  76.7104983  70.2414469  84.1683534  87.5474492  74.1793246
  84.9241049  87.9806007  74.2182154  84.2745858  86.8979262  74.7527882
  84.2953704  87.5151976  74.2691271  87.2063705  91.3747770  74.9295649
  86.7698937  91.3784512  75.6854620  86.8726620  92.0553269  74.4975226
  87.0926325  91.4760225  74.9776481  81.7792778  93.4156102  86.2538799
  82.5633195  93.5286950  86.6194541  81.5789373  92.5897240  86.4497485
  81.8658804  93.3102822  86.3373185  70.1479794  88.0883783  79.1382643
  69.8818209  87.2722899  79.2973633  70.1618358  88.1336938  78.2678158
  70.1104516  87.9740687  79.0336125  87.1261188  78.4161597  77.1725077
  87.7687096  78.4859702  77.7586992  87.3784208  77.7490820  76.6704619
  87.2583320  78.3287946  77.1852356  74.0537541  82.8868867  65.7534401
  73.3395718  82.6007046  66.1656834  74.5381509  83.2265493  66.3940788
  74.0196904  82.8950517  65.9090036  74.8978400  81.6262161  81.7849651
  74.2050197  81.1559141  82.0310382  75.5138727  81.4000465  82.3591358
  74.8862930  81.5229293  81.9058803  81.9363172  95.3266205  79.9005255
  81.1378417  95.0865705  80.1579123  82.3849183  95.3780597  80.6472302
  81.8837783  95.2988596  80.0490179  90.3408051  88.0928690  73.8215286
  91.0024485  87.5319358  73.7211194  89.6999463  87.5980720  74.1467977
  90.3436918  87.9365099  73.8547626  81.2284859  91.3898821  66.1296209
  81.6436007  91.0583845  65.4380705  80.3976788  91.1567723  66.0016346
  81.1672867  91.3070077  66.0087057  70.5573207  88.8742562  76.4194387
  70.3748781  88.8489448  75.5666679  71.2922876  89.3441500  76.4583296
  70.6387271  88.9403924  76.2992306  86.6272882  89.1094072  73.5627275
  86.8628471  89.2539271  72.7354125  86.7762445  89.8736480  73.9558788
  86.6838685  89.2433126  73.4990879  73.6218959  85.5927565  82.9276496
  74.3458931  85.5780595  83.4141391  73.7235096  86.3022920  82.4298464
  73.7437168  85.6952268  82.9255283  88.4563338  87.9495738  71.3996879
  88.7871555  88.4823378  70.7936973  89.0296426  88.0034626  72.0558830
  88.5897017  88.0365307  71.4074660  80.9963908  89.0726649  87.7925443
  80.2036889  89.3870161  87.9778063  81.1112836  89.2878118  86.9546227
  80.8959319  89.1510486  87.6963778  83.6695227  85.7960641  72.0820459
  83.7642082  86.5349935  72.5360084  83.0454071  85.3678116  72.5155023
  83.5904258  85.8421961  72.2128606  81.9247701  88.9746853  82.7310740
  82.4986563  88.3374097  82.8859303  81.8462505  88.9750936  81.8620397
  81.9980936  88.8811965  82.6257150  70.5244118  85.7536063  76.5693454
  71.1017620  85.6172513  77.2085699  69.8258179  85.2971847  76.8239038
  70.5065139  85.6658329  76.7015743  83.9218249  87.6409380  65.3157411
  83.8398411  87.7111567  66.1812398  84.5597969  88.2039124  65.1241151
  84.0038086  87.7348351  65.4147360  77.2811420  87.4070118  74.7831937
  77.0230664  86.5741853  74.7563236  77.3359903  87.6327731  73.9424437
  77.2511198  87.3167890  74.6552074  82.3612470  79.5098569  74.8836030
  81.6568797  79.0207754  75.0419949  82.4097444  79.5221043  74.0124474
  82.2642522  79.4388217  74.7775369  76.2546132  84.9607881  75.2696832
  75.6795723  85.1200049  75.9060793  75.8781808  84.3243290  74.8065282
  76.1148944  84.8905694  75.2951390  79.9219421  83.4331230  80.1289210
  79.5333853  83.0085448  79.4741401  79.2574119  83.6813380  80.6366237
  79.7666348  83.4069951  80.1077078  89.5642690  83.1906235  72.9037040
  89.3079255  82.3786176  72.7134923  90.4072004  83.1983802  72.6767228
  89.6508715  83.0718232  72.8421857  66.0002951  84.6047956  73.2841272
  66.0863203  84.2279824  74.0654802  66.6278748  84.2308401  72.8061231
  66.1059502  84.4933438  73.3286750  83.7445782  77.1305859  77.6413194
  84.1256294  76.4484030  78.0281069  82.9409067  76.8415461  77.4588859
  83.6822244  76.9872907  77.6717250  81.0258359  87.6629835  68.3266017
  81.8398998  87.9544727  68.2148788  80.9617500  87.0089697  67.7524310
  81.1361098  87.6095029  68.2254854  87.2467849  90.3455831  82.7395593
  87.0106486  89.5143896  82.6207653  87.8911078  90.2941438  83.3250437
  87.3062520  90.2153519  82.8081486  76.8966267  91.1351352  73.4538329
  77.5340214  90.8963100  73.9990123  77.3221339  91.3388511  72.7191490
  77.0542433  91.1302362  73.4255487  71.5878910  93.3739689  77.3372633
  71.6283055  93.6454540  76.5092413  72.1473434  93.8981597  77.7530421
  71.6762256  93.4915444  77.2764521  77.5369082  86.3553642  67.7913219
  77.9214235  86.1361349  68.5429764  77.2880703  87.1816587  67.9214295
  77.5571155  86.4451788  67.9214295  77.7037623  79.6360057  87.5075803
  77.3891064  80.4059620  87.2445366  77.3827555  79.0730313  86.9228030
  77.6096542  79.6670326  87.3817153  88.2704270  90.1300280  78.8023887
  87.9650087  90.8628336  79.1637203  87.5510485  89.7238209  78.5216673
  88.1191612  90.1782013  78.8137024  79.2787739  91.6123775  75.1332115
  79.3526747  91.4498947  75.9873965  80.0957245  91.8013964  74.8892597
  79.4104098  91.6160517  75.2230141  93.9706062  86.7693280  78.1292232
  93.9030562  86.7889239  77.2594818  93.9561724  87.6123607  78.3547902
  93.9584818  86.8967015  78.0344708  73.0393496  91.9581638  72.1626559
  72.2131614  92.2043375  72.0360838  73.1005487  91.8793718  73.0288617
  72.9267663  91.9826587  72.2715503  75.2569520  78.0250579  73.1221999
  74.3891945  78.0973178  73.1879608  75.5444724  78.8272657  73.3109974
  75.1709268  78.1544726  73.1596766  84.3802408  78.1728438  81.4533321
  85.1256000  77.9838248  81.0396746  83.9639713  78.6986676  80.8947177
  84.4287383  78.2230583  81.3097894  77.8192325  94.5758518  69.8645589
  78.1090623  94.1847499  69.1404815  78.5495806  94.7575223  70.3050864
  77.9699209  94.5452332  69.8228396  91.7564679  85.5437666  76.4038826
  92.3072601  84.9105735  76.6435918  91.7408795  86.0753059  77.0954330
  91.8349876  85.5286615  76.5417684  78.4087070  89.3776264  80.9498719
  77.9098764  90.0892031  81.0283608  79.2187294  89.6976930  80.9116882
  78.4543177  89.5303112  80.9555288  75.7598240  96.5525900  72.9305739
  75.5398536  96.2623255  73.7232406  75.5392762  95.8940855  72.4023651
  75.6945835  96.4125609  72.9694647  74.6715188  88.6399217  75.1961440
  74.3828436  88.0136688  75.7307168  75.5398536  88.5819504  75.2626121
  74.7575440  88.5386761  75.2852395  85.4593085  83.7834000  75.5143422
  85.1157851  83.0624335  75.8650672  85.5586128  83.5747851  74.6721780
  85.4235128  83.6458203  75.4415102  77.9266196  97.9255290  71.7136431
  78.5790254  97.3931732  71.9427457  77.2291805  97.5723942  72.1004305
  77.9196914  97.7944813  71.8048599  74.8747461  90.2794468  71.1203805
  75.6293429  90.6607507  71.3339268  74.2818074  90.7305611  71.5750502
  74.8984175  90.4023295  71.2186684  85.9206115  90.2459704  71.0567410
  86.4864147  90.9052914  70.9725953  85.2734018  90.5909402  71.5283812
  85.9084871  90.3941645  71.1140167  77.3354128  82.2357308  86.2461018
  76.5253904  82.5415088  86.1350860  77.8128815  82.9562890  86.3613602
  77.2857607  82.3871909  86.2468089  76.1945688  91.4503029  76.4943921
  75.6726441  91.5903321  77.1795785  76.5819708  90.6913693  76.6846038
  76.1749389  91.3588553  76.6244997  73.1836872  81.5008838  70.5638875
  72.8961667  81.1310108  69.8270823  73.8707340  81.9703693  70.3022580
  73.2425769  81.5155807  70.4153951  82.3912693  93.1898488  70.4804489
  82.1499369  92.4566349  70.0731554  82.5714026  93.7385345  69.8270823
  82.3820317  93.1620880  70.3234712  77.6212013  88.4807048  71.8925412
  77.4254796  89.0881783  71.2985715  77.8446359  87.7874992  71.4117086
  77.6246654  88.4684574  71.7341493  76.0190543  85.3661786  72.0106280
  76.7413195  85.5302944  71.5510086  75.5398536  86.0871451  71.9045620
  76.0554274  85.4960016  71.9271894  83.9784051  81.7025585  77.3902965
  83.1395151  81.7286864  77.1541228  84.0488418  82.3496320  77.9708312
  83.8652444  81.8021711  77.4412082  73.6698160  87.7719858  81.1160420
  74.1819257  88.0504112  80.4669180  73.3834503  88.5109153  81.4823233
  73.7033023  87.9222212  81.0750298  82.4253329  78.6010962  72.1230581
  83.1279682  78.4018710  71.6450539  82.1597518  77.8286904  72.4299424
  82.4899961  78.4573928  72.0976023  87.8541575  86.9093572  74.6764207
  87.7675549  87.0648998  75.5298986  87.3992055  87.5531647  74.3023612
  87.7744831  87.0269327  74.7471314  70.7565066  82.2790050  71.4124156
  70.8581203  83.0816212  71.7405132  71.5520953  82.0777386  71.1147237
  70.8892972  82.3675949  71.4159512  77.1881885  79.8646247  81.1761462
  76.9965082  79.8801381  82.0260885  78.0380481  80.0609921  81.1528116
  77.2857607  79.8960598  81.2984756  71.5728798  82.3937229  79.1545278
  71.4314290  81.5421169  79.2789786  71.8569362  82.4365889  78.3307484
  71.5936644  82.2736979  79.0512902  81.7267391  84.2304319  73.2989766
  81.4802105  84.1500070  74.1326555  82.0552514  83.4457787  73.1052294
  81.7388634  84.1030584  73.3937289  85.6215440  90.9387678  77.0876548
  85.4829799  91.6368724  77.5925290  84.8415437  90.7836335  76.7312729
  85.4858666  91.0187845  77.1102822  83.9593525  87.2384053  83.3398929
  83.9541563  86.3663870  83.3441356  84.6654519  87.4372223  82.8668385
  84.0638529  87.1387928  83.2705965  77.6864418  86.9661037  82.7112749
  77.8307794  87.5462245  82.0755859  78.0340067  87.3437334  83.4162604
  77.7591879  87.1081741  82.7211744  79.8584335  86.1651206  80.4937881
  79.1107649  86.3582220  80.0886159  80.0125861  85.3396425  80.2562002
  79.7706763  86.0716317  80.3983287  76.7592173  95.1563809  79.5773776
  76.9081737  94.5966725  78.9247181  77.5392175  95.2355811  79.9606295
  76.8966267  95.0849375  79.5370725  87.1168812  90.2965932  67.8493047
  86.7375621  89.5103070  67.8422336  86.4535058  90.8452789  67.7064691
  86.9627287  90.2610756  67.8273844  79.2845474  95.3278452  80.8558267
  79.2089145  94.6587263  81.4109055  79.2135333  96.0296240  81.3698933
  79.2626081  95.3323359  81.0135115  80.0986112  80.0601756  81.3833285
  80.5558727  80.7925731  81.5106077  80.1742441  79.6368222  82.1420541
  80.1777082  80.1058994  81.5134361  72.3419104  80.3067576  82.4722728
  71.8061293  79.6947934  82.7883496  72.4036868  80.8815712  83.1256395
  72.2714736  80.3014504  82.6158155  79.9415721  93.8479451  71.6881873
  80.7065612  93.5789095  71.3664537  79.8393811  93.3629461  72.4051936
  80.0397216  93.7369016  71.7461701  77.9768490  82.0503860  78.2275109
  77.1864565  81.8695320  78.5492445  78.3729113  81.2730813  78.2105403
  77.9185367  81.9091321  78.2727657  82.4634381  90.8791635  63.6681822
  83.2307366  90.9391760  63.2587674  82.0165690  90.3072076  63.1838141
  82.5107808  90.8028210  63.5359533  83.3612177  89.6846291  75.9534555
  82.6857178  89.4531523  76.4547942  83.3704553  89.0767473  75.3276660
  83.2630681  89.5605216  75.9350707  80.4906321  84.5264119  82.7098608
  80.4265462  85.3874076  82.5818744  80.6303508  84.2096113  81.9094159
  80.5021791  84.6064286  82.5726821  85.3628911  92.5411423  68.1844733
  85.4448749  93.3478409  67.8606183  85.8478653  92.5607382  68.9085506
  85.4466069  92.6632085  68.2431631  79.1725414  87.2196259  76.8514811
  78.7487664  87.4200758  76.1153829  78.9970270  86.3725107  76.9639110
  79.0836295  87.1245040  76.7588501  78.6737108  98.7346772  79.3136268
  79.1633038  98.0357561  79.1311932  78.1021340  98.4370642  79.9012325
  78.6621638  98.5872995  79.3737309  74.4607859  87.7148310  72.2842783
  74.6172479  87.6495113  73.1398775  74.8008453  88.4896863  72.0721463
  74.5341094  87.8197508  72.3797377  80.9987004  87.0906194  71.1536146
  81.5402550  86.5876575  71.6174767  81.3133563  87.0371388  70.3425632
  81.1251401  87.0085615  71.1019958  84.8704111  91.3008841  88.2663058
  85.6838977  91.0293990  88.4268191  84.7099078  91.0016381  87.4623254
  84.9674060  91.2163767  88.1708464  79.1673454  92.4823545  68.4376174
  79.2366274  91.6238084  68.5769175  79.9461909  92.6995426  68.1095199
  79.2926304  92.3876409  68.4093332  82.1476273  81.9842498  81.2058447
  82.3618243  81.3453413  80.6521801  81.5310173  82.4288322  80.7766309
  82.0881603  81.9552642  81.0608878  83.5580941  94.9061247  72.6512668
  83.1660733  94.6027962  71.9335534  83.7134014  95.7430337  72.4617621
  83.5234531  94.9845083  72.5169165  71.0342121  84.8983261  72.6003550
  71.4141086  85.3167806  71.9363818  70.4597486  85.4796716  72.9072394
  71.0053446  85.0461120  72.5480291  84.3115361  83.5931564  82.1441754
  83.4992043  83.2857454  82.2254927  84.7705296  83.1130564  82.7084466
  84.2595746  83.4768056  82.2396348  83.7220616  91.4711235  72.5918698
  83.3635271  91.6425878  73.3682731  83.2359327  91.9324441  72.0346697
  83.5979313  91.5650207  72.6243967  81.5391002  75.0942434  76.1945790
  80.6684560  75.0681155  76.1479099  81.7931343  74.9219626  75.3771635
  81.4484562  75.0652578  76.0665926  78.5108982  87.1510401  65.1318933
  78.8001506  87.9275283  65.4062507  78.5980780  86.6399132  65.8333432
  78.5663238  87.1902319  65.2761430  81.4068869  84.9991635  86.9270456
  81.8768500  85.6233751  87.3138330  81.4530749  84.3308610  87.4863671
  81.4836745  84.9926315  87.0670528  78.5640143  77.1048662  77.6519260
  78.0478631  76.4128854  77.7770839  78.0034071  77.7719439  77.5981859
  78.4046656  77.1011920  77.6625326  80.6332376  77.6441622  79.4812113
  80.2464129  77.6690654  80.2625642  80.1465313  77.0783301  79.0286629
  80.5044885  77.5637373  79.5300016  84.8825355  92.3615131  83.5385899
  85.5205076  91.8675327  83.2048355  84.2399447  92.2892532  82.9538126
  84.8819582  92.2774140  83.4028254  86.6082356  84.2104277  78.1051815
  86.1809964  84.1230626  77.3499914  85.9708409  84.3182053  78.6906659
  86.4511963  84.2136937  78.0797256  80.2989518  74.5308608  81.7722372
  80.9282636  75.0668908  81.4943443  80.4675380  74.4385967  82.6235938
  80.4167312  74.5969970  81.8570901  80.1003433  79.3179803  84.0448784
  80.9276862  79.0464952  84.1007398  80.1211279  80.1140644  84.4012602
  80.2256283  79.3959557  84.1063967  84.9379612  93.0534940  80.1791256
  85.7271990  92.7024004  80.2993337  85.1123210  93.8671328  79.9167890
  85.0799894  93.1220797  80.1579124  74.6772923  86.4643665  77.2319045
  73.8360929  86.3647540  77.4397939  74.8862930  87.2339146  77.5833365
  74.5837615  86.5635709  77.3146360  72.1548489  84.0863202  75.0603795
  71.7605187  84.1606214  74.2853905  71.5988606  84.4721149  75.6112157
  72.0151302  84.1544977  75.0271455  83.7913436  77.0644496  74.7407674
  83.9963030  76.9966804  75.5864671  83.4639860  77.8703318  74.6728852
  83.7728684  77.1730437  74.8567329  78.4889587  84.3925065  76.4816642
  78.1852725  83.8381053  77.0827050  77.7869008  84.5717275  75.9944676
  78.3405797  84.3369847  76.4986348  77.5455684  81.7025584  71.0461344
  77.8215419  80.9844497  70.6338912  78.1454354  82.3010504  70.8382450
  77.6748949  81.6845955  70.9542105  76.5507938  91.6074785  81.1888740
  76.4428293  91.6176847  82.0550798  76.7603720  92.4329566  80.9993694
  76.5658049  91.7315860  81.2892832  87.0447124  77.6176261  74.2210440
  86.4321438  78.1046663  74.6064172  87.1411299  76.9419752  74.7648091
  86.9685022  77.5894569  74.3589298  81.0466205  79.3739102  69.3207939
  81.5009951  79.5449662  70.0455784  81.5206251  78.7607212  68.9205715
  81.1834525  79.3089987  69.3681701  74.5681730  88.8587428  78.6510678
  73.9769664  89.4996926  78.6213693  75.3302754  89.2825045  78.6241977
  74.5929991  89.0163266  78.6425825  74.9642353  80.0189425  79.3178695
  75.4243835  80.0928355  80.0553819  75.0098460  80.8170680  78.9678517
  75.0392908  80.1483573  79.3751452  76.6125703  80.6856120  83.8850722
  76.2211268  80.0389467  84.3206500  76.7811566  81.2767556  84.5044978
  76.5796613  80.6770388  84.0413428  90.6872152  88.6893197  79.6487956
  90.7455276  89.1379846  80.3947932  90.0538620  89.0992010  79.2118036
  90.6023447  88.8166932  79.6940504  84.3271247  94.3096739  76.0842702
  84.1290935  94.7987554  75.3898913  83.7058958  94.5137981  76.6626835
  84.2058811  94.4113278  76.0665925  78.3879225  86.0781636  70.4252946
  79.1321270  86.4655912  70.6635896  78.5339921  85.2339062  70.5893434
  78.5189810  86.0112109  70.4846916  80.3058800  77.8731895  75.4584808
  79.4594845  78.0454703  75.3326158  80.3029933  77.0681239  75.7950636
  80.1805950  77.7792924  75.4895935  81.3757101  81.6507109  76.3246866
  80.9017055  81.1248872  76.8352177  81.7475237  81.1036582  75.7561727
  81.3606990  81.4923106  76.3162013  71.7530131  83.6478616  81.6930411
  72.6155744  83.5474325  81.6067741  71.4221914  83.0673325  81.1315984
  71.8315327  83.5470243  81.5975817  87.6393831  86.7109485  77.7353646
  87.3992054  85.8715900  77.7396073  88.1185839  86.7909652  78.4594420
  87.6746015  86.5990885  77.8428448  83.3040600  82.5443664  69.3872619
  82.7763619  82.6272408  68.6978328  83.7636309  83.2861536  69.3837264
  83.2942451  82.6664326  69.2847315  89.6399018  83.4910942  75.6882905
  89.4008788  83.4506776  74.8503690  89.8032920  84.3382094  75.8148626
  89.6289322  83.6103027  75.5836387  86.2445049  87.8760892  81.6187950
  86.9679247  87.4233418  81.4398970  85.9795011  88.1565557  80.8360278
  86.3126322  87.8511860  81.4766666  75.1131917  82.4721065  78.3540830
  74.4884987  82.4839457  77.7466782  74.7777512  82.9481240  79.0032070
  74.9717409  82.5439582  78.3597398  75.2973666  80.8146184  64.4113515
  74.9486470  81.4665909  64.8745064  74.8170111  80.8003297  63.6837386
  75.1743910  80.9089237  64.3724606  71.8257592  90.5321525  79.7944594
  71.2957517  89.8413964  79.8439569  72.0982686  90.5231711  78.9657302
  71.7882315  90.4288657  79.6792010  82.8577683  91.1147228  68.5182276
  83.5811882  91.5805341  68.3746850  82.4178274  91.1820837  67.7679873
  82.8993375  91.1931064  68.3867058  82.0263838  87.9744770  79.7682965
  81.4120831  87.4302820  80.0631601  82.5431123  87.4609006  79.2888782
  82.0119500  87.8181179  79.7407194  81.2660135  89.0449040  77.5027264
  80.8387743  88.4198759  77.0692700  81.2585080  88.7623962  78.3286271
  81.2019276  88.9101821  77.5607092  74.3822662  84.0814213  80.5715698
  74.5416149  83.3257537  80.9767420  74.2015556  84.6305152  81.2256436
  74.3788021  84.0508027  80.7278404  82.3242965  76.2475449  81.1266488
  81.8283527  76.4439123  80.4358054  83.0812027  76.6468117  80.9555289
  82.3629790  76.3353182  80.9986624  79.5945845  79.9217794  77.7169798
  79.6188332  79.3877907  77.0282578  79.8457318  79.4135103  78.3795389
  79.6355764  79.7678698  77.7134443  67.1053435  87.2049289  77.1512942
  66.9996884  87.1596134  76.2865026  66.3553655  87.5503070  77.4327227
  66.9789038  87.2490198  77.0650272  75.8747167  78.6488613  77.0975542
  75.9145539  79.1497819  77.8110250  75.0496832  78.7399006  76.8281465
  75.7586693  78.7370429  77.1626081  78.0576780  88.2149353  85.1995837
  77.2072411  88.3521067  85.3353482  78.2204908  87.4813131  85.6443539
  77.9560644  88.1263454  85.2851436  77.2961531  85.1649122  79.3949441
  76.4653460  85.3322940  79.1884690  77.2413048  84.7885073  80.1798327
  77.1650945  85.1338854  79.4797970  75.1045314  78.6558015  85.0305852
  75.7298017  78.1120148  85.3035284  74.6495794  78.1752933  84.4613643
  75.1293574  78.5047497  84.9867446  75.6697574  83.4404714  69.9239559
  75.8100535  83.9377178  70.6268200  76.1680107  82.7391008  70.0653773
  75.7638655  83.4106693  70.0491138  75.6997797  84.3071825  67.2532136
  76.3342876  84.9032250  67.1881598  75.7823408  84.0075283  68.0678006
  75.8054348  84.3512733  67.3635223  88.6780363  86.8387302  80.1218500
  89.2698203  87.4784553  80.1536698  89.1139357  86.1410339  80.4110567
  88.8298794  86.8305653  80.1699333  77.2776780  80.2385800  67.2277578
  77.5992621  79.7588883  66.5736840  77.5403723  81.0485447  67.0368390
  77.3642805  80.2875698  67.1033070  80.5073752  91.2604675  80.7476394
  79.9998843  91.8140522  81.1917025  80.2100399  91.3212965  79.9295169
  80.3878637  91.3510986  80.6924851  82.6735935  79.6257994  79.5901057
  83.0991006  79.1730521  78.9784583  82.0592928  79.0718065  79.8665845
  82.6464580  79.4771971  79.5406082  72.2050785  86.5039666  70.5221682
  72.7143014  87.1004173  70.9032988  72.6785057  86.2365639  69.8398102
  72.3494160  86.5525481  70.4776205  83.1181533  95.1767933  68.6780338
  82.4010842  95.0028795  68.2127575  83.7688270  94.9420505  68.1455824
  83.1083383  95.1163725  68.5309555  81.1130157  76.0973094  72.9991634
  80.4698475  75.9470741  73.5676772  80.7729564  75.8515440  72.2340739
  80.9675235  76.0385217  72.9694649  85.7029504  84.0532521  72.4221643
  85.0320694  84.5962223  72.2934708  86.3969254  84.5227376  72.1803337
  85.7058371  84.2030792  72.3677170  79.7516238  96.1929233  77.6533401
  79.5281892  95.4348062  78.0217427  79.2626081  96.2227254  76.9313841
  79.6459687  96.0851458  77.6010142  85.8657631  80.5088405  75.3312016
  86.2185241  80.0818128  76.0057815  85.0072433  80.4239248  75.4613092
  85.7907076  80.4333145  75.4507026  74.5641316  83.1395924  73.3894862
  73.8453305  83.5560057  73.6567726  74.9353679  83.7050163  72.8386501
  74.5133248  83.2845206  73.3477669  83.8640897  83.7723773  79.2796858
  83.8438824  83.5907068  80.1331637  83.9120098  84.6435792  79.2556442
  83.8675538  83.8740312  79.4020153  81.8087227  90.3610965  85.2045335
  81.7683082  89.7160642  84.6190491  82.6210545  90.3047583  85.5170747
  81.9230381  90.2569932  85.1642284  78.3994695  96.4129691  75.1070486
  77.9855093  95.7503821  74.7174327  79.0842069  96.5607550  74.5866180
  78.4393066  96.3370349  74.9726983  81.7659989  95.5719776  75.8594102
  81.3676272  95.6822047  75.0914922  81.1511208  95.7801843  76.4420662
  81.6158878  95.6193344  75.8325401  80.3387891  82.1793924  68.7268242
  79.7452730  82.5010921  68.1752809  80.3763168  81.3335020  68.5189348
  80.2562280  82.1018253  68.6151013  87.2981691  75.6306817  76.2596328
  86.7912556  74.9235956  76.1917506  88.0949125  75.3000005  76.3897405
  87.3408931  75.4779968  76.2695323  83.2145707  82.1373429  72.1569992
  82.9859400  82.1606130  71.3148350  83.4743783  81.3130896  72.2765003
  83.2191895  82.0189509  72.0495190  77.4964936  83.9907902  81.7595092
  76.9843839  83.3829085  82.1180124  77.3244432  84.7064494  82.2269068
  77.3954573  84.0071201  81.8811316  72.3430650  82.4345477  84.4097454
  72.1733241  83.0946852  83.8645661  71.8996600  82.6452038  85.1309943
  72.2529984  82.5631459  84.4359084  76.2690470  80.6749975  73.4524188
  76.7447836  81.0367055  72.8174369  75.7679069  81.3306443  73.7324330
  76.2655829  80.8244164  73.4000929  89.5001831  90.1471743  69.2437193
  89.8835437  90.8963099  69.4735290  88.7045945  90.3937563  68.9849182
  89.4395614  90.2941437  69.2394766  81.3734006  81.9132146  84.1997348
  81.9305436  81.6845956  83.5675813  81.0495071  82.6737812  83.9232560
  81.4080416  81.9915983  84.0653845  69.2432715  85.3392343  79.6685944
  68.6959434  84.6692988  79.7866812  70.0325093  84.9722191  79.7329411
  69.2784899  85.1857329  79.6954644  79.0917123  84.9999800  85.1649355
  79.8428450  85.3151477  85.4788909  79.2839700  84.7978971  84.3383277
  79.2308537  85.0167182  85.0892751  78.3117123  82.8191175  66.8197572
  78.6916088  82.8370804  66.0348686  77.5709719  83.2645164  66.6988419
  78.2585961  82.8872950  66.6861140  85.9402413  81.1273366  72.4073150
  85.9396640  80.9722023  73.2657427  85.7358594  81.9736353  72.3514536
  85.9102191  81.2293987  72.5261090  68.0019684  84.5513151  76.8231967
  67.8241446  84.0989760  77.5486883  67.7138707  85.3539312  77.0070444
  67.9332638  84.6035708  76.9575470  83.6643266  85.8070868  76.0609357
  84.1596931  85.0893863  76.0213378  82.8543041  85.5041666  75.9463844
  83.6187159  85.6568514  76.0383083  79.1101877  89.6568681  68.2106362
  78.3013200  89.3335355  68.1639671  79.6176786  88.9501903  68.1434610
  79.0651544  89.5049998  68.1936656  69.7392154  87.0840874  73.9353726
  68.8737674  87.0726565  73.8236497  69.8390970  86.8971097  74.7824865
  69.6266321  87.0546936  74.0442670  85.7295084  88.5574555  78.7486486
  86.1550156  88.0348977  78.1956911  85.3652004  89.1555393  78.2275109
  85.7381687  88.5684782  78.5895496  75.3649164  96.8538773  77.5083832
  75.6795723  97.6675161  77.5161613  75.7742578  96.4688992  78.1765991
  75.4717262  96.9167475  77.6087923  82.3173684  92.2708820  75.0787643
  82.7884862  92.9849082  75.2477629  82.6533862  91.6707570  75.6147513
  82.4368799  92.2880284  75.1820019  84.4050668  93.8810133  87.2579716
  84.5147634  93.0918694  87.6136463  84.7341565  93.7916069  86.4554054
  84.4703074  93.7515986  87.1922106  79.2343179  77.0436290  82.0345738
  79.3671084  76.2467284  82.3626714  79.6188332  77.5702693  82.6144014
  79.3099508  77.0036207  82.1689241  82.9547630  92.0626754  81.8415336
  82.4068576  91.4384637  81.5735401  83.4160659  92.2521026  81.1259416
  82.9414840  91.9985804  81.6965767  82.3075534  73.9666616  78.6326832
  81.5021498  73.8564346  78.9494670  82.1782269  74.0679072  77.7756697
  82.1695667  73.9650286  78.5534872  85.7641495  80.1312108  79.2266528
  85.1804483  80.6321315  78.8144096  86.0845789  79.6241664  78.5930852
  85.7254670  80.1303943  79.0725036  78.3036294  79.0452703  69.5025203
  79.1251988  79.2151016  69.2606898  77.8405945  79.1999964  68.7791501
  78.3567456  79.0934436  69.3596848  76.8931626  77.0395465  80.2823632
  77.4376039  76.6986592  80.8727974  76.9468561  77.8980927  80.4244917
  76.9820745  77.1150725  80.3905505  72.7062184  90.8011881  77.1562440
  73.3107042  90.7607715  76.5276261  72.4989497  91.6483033  77.1866496
  72.7651082  90.9199884  77.0678556  82.5205956  93.0677826  78.3724677
  83.3404330  92.9240793  78.6340973  82.2400034  93.6924025  78.9141115
  82.6002700  93.1388179  78.4912617  67.9413467  89.7846499  77.0261363
  67.8437745  88.9742770  77.3351420  68.7242336  89.7638292  76.6407631
  68.0429603  89.6613589  77.0148226  98.9919607 100.7242678  71.3367554
  98.9613611 101.5787315  71.5085823  99.5900956 100.4237971  71.8953697
  99.0756765 100.8059175  71.4442356  92.1919292  99.8118329  76.0920484
  91.3357187  99.9726827  76.1429601  92.2386945  98.9410393  76.1125545
  92.0718403  99.7069131  76.1026550  86.5760431 109.3481047  71.8557716
  85.8243331 108.9696585  71.6273761  87.0246443 109.3799481  71.1076526
  86.5310098 109.2966654  71.7115218  95.5013008 106.0804855  85.6980940
  96.2079775 105.5856886  85.8267875  95.6900944 106.5213936  84.9683598
  95.6340914 106.0723205  85.6089986  92.0285391 109.7706417  67.2843263
  91.6936760 110.4483338  66.8487485  92.5412262 109.3811728  66.6960134
  92.0550972 109.8130995  67.1330054  91.5689683 111.7220685  73.2254374
  91.9529062 112.2907584  72.6859150  91.5048824 110.9970196  72.7460190
  91.6163110 111.6996149  73.0748237  95.0371113 101.8710373  78.7352136
  95.5827073 102.5495460  78.7946105  94.9787989 101.7297834  77.8753717
  95.1087027 101.9502375  78.6164196  88.1545188 109.3599439  74.1220488
  88.2555550 108.5499793  74.4317616  87.5586933 109.2656386  73.4920167
  88.0817726 109.2264467  74.0746727  96.8136181 103.2994980  69.6085864
  96.6975707 104.0502666  70.0378002  97.6092068 103.0418934  69.8581951
  96.9140771 103.3729827  69.7089955  87.9945927 114.2777028  75.5235344
  88.6383383 114.7190192  75.9131503  88.3202183 113.4730455  75.4365603
  88.1377756 114.2242223  75.5680821  81.3510232 105.3819726  73.7472822
  81.1160416 104.5487378  73.6405091  81.4895873 105.6624391  72.9334023
  81.3365894 105.3003229  73.6115177  83.6500319  97.5505456  76.6457130
  83.0305351  96.9598104  76.4767144  83.5484183  98.1416892  76.0121453
  83.5437995  97.5509539  76.5262119  88.6966507 107.2889003  70.8955206
  89.0182348 107.8294211  70.2916514  89.3438603 106.7185775  71.0277496
  88.8392562 107.2848178  70.8262241  90.7468215  99.2904998  70.9789593
  91.4448380  99.4693126  71.4711056  91.0620547  98.7675338  70.3559982
  90.8963552  99.2398770  70.9591603  83.3769452 101.0957738  78.8900699
  83.2528149 101.6820184  79.5250517  84.0287737 100.6017934  79.1912973
  83.4543102 101.1096543  79.0286628  90.9356150 105.6775443  70.9669384
  91.3749786 105.0692544  71.4124157  90.7860813 105.2982817  70.1954849
  90.9777616 105.5313914  70.9188551  88.4027793 104.2719455  78.1688210
  89.0476796 103.7791898  77.8499158  88.6429570 104.4144242  78.9954288
  88.5338378 104.2196897  78.2437743  90.9413885 107.1174361  77.8195102
  91.2237128 106.3225767  77.5981858  91.6700045 107.5954948  77.8400163
  91.0903448 107.0708958  77.7898117  88.9195079  94.6597395  75.0610867
  88.5898409  95.1108538  74.3914566  88.2440080  94.5813558  75.6083874
  88.7705515  94.7148530  75.0434091  94.5365487 104.0302625  67.9200153
  94.4516782 104.8863591  68.0649722  95.0249870 103.7546949  68.5882312
  94.5954384 104.1159946  68.0402235  96.1271486  90.6482918  73.3060478
  95.8124927  91.3386396  73.7380900  95.6098428  90.5927700  72.6045979
  96.0035957  90.7417806  73.2657427  95.4683920 100.6487419  69.4197888
  94.9395392 100.8647052  70.0795195  95.9908940 101.3423557  69.3398858
  95.4672373 100.7830556  69.5053488 100.9231973 106.2233723  74.7930933
 100.0929676 106.4344367  74.9564349 100.8741225 105.3970778  74.5173217
 100.7938708 106.1323329  74.7768298  87.3583528 104.5450635  68.2205356
  86.7740743 105.0500667  68.6271220  86.9553623 104.3193022  67.4801948
  87.2122832 104.5858884  68.1710382  82.9127557 110.2605397  75.0229028
  82.4295135 110.9855886  74.9988612  83.7250875 110.5581527  75.1339186
  82.9618304 110.4107750  75.0356307  88.9841711 109.0537577  77.6278842
  88.4668652 108.6944992  77.0240151  89.6816102 108.5299752  77.6384909
  89.0107292 108.9235265  77.5409101  92.6405303 109.5032391  83.5895015
  92.7288648 109.3158532  84.4373226  93.0695015 108.8569821  83.1899862
  92.7167405 109.3795399  83.6566767  90.2075762 108.7863551  82.5712678
  89.6446597 108.3736161  83.0952339  90.9696786 108.7116457  82.9905821
  90.2370211 108.7140952  82.7105678  91.8160742 100.7916288  66.6974277
  92.0556746 100.9994271  65.8849620  92.1376583  99.9873796  66.8063222
  91.8997900 100.7030389  66.5934830  87.1251033  92.7209683  70.5433815
  87.8797001  93.0888000  70.3050865  86.9478567  93.0949238  71.3112995
  87.2105511  92.8307871  70.6218704  85.7671754 110.7761573  75.1749308
  86.4692333 110.2613562  75.2322064  85.6869237 111.1035724  75.9796183
  85.8595514 110.7475799  75.3022100 100.4185931  98.8704124  78.5881354
  99.5814352  98.9406311  78.8228949 100.3874162  98.8728619  77.7155657
 100.2904214  98.8814351  78.4940902  86.8150660 101.0137159  84.3029723
  86.9871164 100.9043054  85.1515004  87.3520018 101.6591565  84.0660915
  86.9195664 101.0929161  84.3934820  85.4808097  95.1280002  67.2411928
  85.2983670  95.3451883  66.4152921  86.3433710  95.2419015  67.2970542
  85.5812687  95.1769900  67.1266415  85.0922529 106.9667924  74.6834916
  85.9311429 107.1990857  74.7308677  85.1234298 106.0972236  74.6141951
  85.2204247 106.8724871  74.6799561  85.7175232 107.3868800  78.9848221
  86.2573457 107.2439931  79.6551594  85.0345179 107.7865550  79.3532248
  85.6967386 107.4248471  79.1382643  91.1607816  92.1306413  70.2760952
  91.8893977  91.9522368  69.8299108  91.2502709  92.9724493  70.4868130
  91.2814478  92.2290291  70.2414469  95.1416117 103.0659800  74.1793246
  95.8973632 103.4991315  74.2182154  95.2478442 102.4164570  74.7527882
  95.2686288 103.0337284  74.2691271  98.1796288 106.8933078  74.9295649
  97.7431520 106.8969820  75.6854620  97.8459204 107.5738577  74.4975226
  98.0658908 106.9945533  74.9776481  92.7525362 108.9341410  86.2538799
  93.5365778 109.0472258  86.6194541  92.5521956 108.1082547  86.4497485
  92.8391387 108.8288130  86.3373185  81.1212377 103.6069090  79.1382643
  80.8550793 102.7908207  79.2973633  81.1350941 103.6522246  78.2678158
  81.0837100 103.4925995  79.0336125  98.0993771  93.9346905  77.1725077
  98.7419680  94.0045010  77.7586992  98.3516792  93.2676128  76.6704619
  98.2315903  93.8473254  77.1852356  85.0270124  98.4054175  65.7534401
  84.3128301  98.1192354  66.1656834  85.5114093  98.7450801  66.3940788
  84.9929488  98.4135825  65.9090036  85.8710984  97.1447469  81.7849651
  85.1782780  96.6744448  82.0310382  86.4871311  96.9185773  82.3591358
  85.8595514  97.0414601  81.9058803  92.9095755 110.8451512  79.9005255
  92.1111001 110.6051013  80.1579123  93.3581767 110.8965905  80.6472302
  92.8570366 110.8173904  80.0490179 101.3140634 103.6113997  73.8215286
 101.9757069 103.0504666  73.7211194 100.6732046 103.1166028  74.1467977
 101.3169502 103.4550406  73.8547626  92.2017442 106.9084129  66.1296209
  92.6168591 106.5769153  65.4380705  91.3709372 106.6753031  66.0016346
  92.1405451 106.8255385  66.0087057  81.5305791 104.3927870  76.4194387
  81.3481364 104.3674756  75.5666679  82.2655460 104.8626808  76.4583296
  81.6119855 104.4589232  76.2992306  97.6005465 104.6279380  73.5627275
  97.8361054 104.7724579  72.7354125  97.7495029 105.3921788  73.9558788
  97.6571268 104.7618434  73.4990879  84.5951543 101.1112873  82.9276496
  85.3191515 101.0965903  83.4141391  84.6967679 101.8208228  82.4298464
  84.7169752 101.2137576  82.9255283  99.4295922 103.4681046  71.3996879
  99.7604139 104.0008686  70.7936973 100.0029010 103.5219934  72.0558830
  99.5629601 103.5550615  71.4074660  91.9696492 104.5911957  87.7925443
  91.1769473 104.9055469  87.9778063  92.0845419 104.8063426  86.9546227
  91.8691903 104.6695794  87.6963778  94.6427811 101.3145949  72.0820459
  94.7374665 102.0535243  72.5360084  94.0186655 100.8863424  72.5155023
  94.5636841 101.3607269  72.2128606  92.8980285 104.4932161  82.7310740
  93.4719147 103.8559405  82.8859303  92.8195089 104.4936244  81.8620397
  92.9713520 104.3997273  82.6257150  81.4976701 101.2721371  76.5693454
  82.0750204 101.1357821  77.2085699  80.7990763 100.8157155  76.8239038
  81.4797723 101.1843637  76.7015743  94.8950832 103.1594688  65.3157411
  94.8130995 103.2296875  66.1812398  95.5330553 103.7224432  65.1241151
  94.9770670 103.2533659  65.4147360  88.2544003 102.9255426  74.7831937
  87.9963248 102.0927161  74.7563236  88.3092486 103.1513039  73.9424437
  88.2243781 102.8353197  74.6552074  93.3345054  95.0283877  74.8836030
  92.6301380  94.5393062  75.0419949  93.3830028  95.0406351  74.0124474
  93.2375105  94.9573525  74.7775369  87.2278716 100.4793189  75.2696832
  86.6528307 100.6385357  75.9060793  86.8514392  99.8428598  74.8065282
  87.0881528 100.4091002  75.2951390  90.8952004  98.9516538  80.1289210
  90.5066437  98.5270756  79.4741401  90.2306703  99.1998688  80.6366237
  90.7398932  98.9255259  80.1077078 100.5375273  98.7091543  72.9037040
 100.2811838  97.8971484  72.7134923 101.3804587  98.7169110  72.6767228
 100.6241299  98.5903540  72.8421857  76.9735534 100.1233263  73.2841272
  77.0595786  99.7465132  74.0654802  77.6011332  99.7493709  72.8061231
  77.0792085 100.0118746  73.3286750  94.7178366  92.6491167  77.6413194
  95.0988878  91.9669338  78.0281069  93.9141650  92.3600769  77.4588859
  94.6554828  92.5058215  77.6717250  91.9990943 103.1815143  68.3266017
  92.8131581 103.4730035  68.2148788  91.9350084 102.5275005  67.7524310
  92.1093682 103.1280337  68.2254854  98.2200433 105.8641139  82.7395593
  97.9839070 105.0329204  82.6207653  98.8643662 105.8126746  83.3250437
  98.2795103 105.7338827  82.8081486  87.8698851 106.6536660  73.4538329
  88.5072798 106.4148408  73.9990123  88.2953922 106.8573819  72.7191490
  88.0275017 106.6487670  73.4255487  82.5611493 108.8924997  77.3372633
  82.6015638 109.1639848  76.5092413  83.1206017 109.4166905  77.7530421
  82.6494839 109.0100752  77.2764521  88.5101666 101.8738950  67.7913219
  88.8946819 101.6546657  68.5429764  88.2613286 102.7001895  67.9214295
  88.5303738 101.9637096  67.9214295  88.6770206  95.1545365  87.5075803
  88.3623647  95.9244928  87.2445366  88.3560139  94.5915621  86.9228030
  88.5829125  95.1855634  87.3817153  99.2436853 105.6485587  78.8023887
  98.9382670 106.3813644  79.1637203  98.5243069 105.2423517  78.5216673
  99.0924196 105.6967320  78.8137024  90.2520323 107.1309083  75.1332115
  90.3259331 106.9684255  75.9873965  91.0689829 107.3199272  74.8892597
  90.3836681 107.1345825  75.2230141 104.9438645 102.2878588  78.1292232
 104.8763146 102.3074547  77.2594818 104.9294308 103.1308915  78.3547902
 104.9317402 102.4152323  78.0344708  84.0126079 107.4766945  72.1626559
  83.1864197 107.7228683  72.0360838  84.0738071 107.3979026  73.0288617
  83.9000246 107.5011894  72.2715503  86.2302103  93.5435886  73.1221999
  85.3624529  93.6158486  73.1879608  86.5177307  94.3457965  73.3109974
  86.1441851  93.6730034  73.1596766  95.3534992  93.6913746  81.4533321
  96.0988584  93.5023556  81.0396746  94.9372297  94.2171984  80.8947177
  95.4019966  93.7415891  81.3097894  88.7924908 110.0943826  69.8645589
  89.0823207 109.7032807  69.1404815  89.5228389 110.2760531  70.3050864
  88.9431793 110.0637639  69.8228396 102.7297263 101.0622974  76.4038826
 103.2805184 100.4291043  76.6435918 102.7141378 101.5938367  77.0954330
 102.8082459 101.0471923  76.5417684  89.3819654 104.8961572  80.9498719
  88.8831347 105.6077339  81.0283608  90.1919878 105.2162238  80.9116882
  89.4275760 105.0488420  80.9555288  86.7330824 112.0711208  72.9305739
  86.5131119 111.7808563  73.7232406  86.5125346 111.4126163  72.4023651
  86.6678418 111.9310917  72.9694647  85.6447771 104.1584525  75.1961440
  85.3561020 103.5321996  75.7307168  86.5131119 104.1004812  75.2626121
  85.7308023 104.0572069  75.2852395  96.4325669  99.3019308  75.5143422
  96.0890435  98.5809643  75.8650672  96.5318712  99.0933159  74.6721780
  96.3967712  99.1643511  75.4415102  88.8998780 113.4440598  71.7136431
  89.5522838 112.9117040  71.9427457  88.2024388 113.0909250  72.1004305
  88.8929498 113.3130121  71.8048599  85.8480045 105.7979776  71.1203805
  86.6026013 106.1792815  71.3339268  85.2550657 106.2490919  71.5750502
  85.8716758 105.9208603  71.2186684  96.8938698 105.7645012  71.0567410
  97.4596731 106.4238222  70.9725953  96.2466602 106.1094710  71.5283812
  96.8817455 105.9126953  71.1140167  88.3086712  97.7542616  86.2461018
  87.4986487  98.0600396  86.1350860  88.7861398  98.4748198  86.3613602
  88.2590190  97.9057217  86.2468089  87.1678271 106.9688337  76.4943921
  86.6459025 107.1088629  77.1795785  87.5552292 106.2099001  76.6846038
  87.1481972 106.8773861  76.6244997  84.1569455  97.0194146  70.5638875
  83.8694251  96.6495416  69.8270823  84.8439923  97.4889001  70.3022580
  84.2158353  97.0341115  70.4153951  93.3645276 108.7083796  70.4804489
  93.1231952 107.9751657  70.0731554  93.5446609 109.2570653  69.8270823
  93.3552900 108.6806187  70.3234712  88.5944597 103.9992356  71.8925412
  88.3987379 104.6067091  71.2985715  88.8178942 103.3060300  71.4117086
  88.5979238 103.9869882  71.7341493  86.9923127 100.8847094  72.0106280
  87.7145779 101.0488252  71.5510086  86.5131120 101.6056759  71.9045620
  87.0286858 101.0145324  71.9271894  94.9516634  97.2210893  77.3902965
  94.1127735  97.2472172  77.1541228  95.0221002  97.8681628  77.9708312
  94.8385028  97.3207019  77.4412082  84.6430744 103.2905166  81.1160420
  85.1551840 103.5689420  80.4669180  84.3567086 104.0294460  81.4823233
  84.6765607 103.4407520  81.0750298  93.3985913  94.1196270  72.1230581
  94.1012266  93.9204018  71.6450539  93.1330101  93.3472212  72.4299424
  93.4632545  93.9759236  72.0976023  98.8274158 102.4278880  74.6764207
  98.7408133 102.5834306  75.5298986  98.3724638 103.0716955  74.3023612
  98.7477415 102.5454635  74.7471314  81.7297650  97.7975358  71.4124156
  81.8313786  98.6001520  71.7405132  82.5253537  97.5962694  71.1147237
  81.8625555  97.8861257  71.4159512  88.1614469  95.3831555  81.1761462
  87.9697666  95.3986689  82.0260885  89.0113065  95.5795229  81.1528116
  88.2590191  95.4145906  81.2984756  82.5461382  97.9122536  79.1545278
  82.4046874  97.0606477  79.2789786  82.8301945  97.9551197  78.3307484
  82.5669228  97.7922286  79.0512902  92.6999974  99.7489627  73.2989766
  92.4534689  99.6685378  74.1326555  93.0285097  98.9643094  73.1052294
  92.7121218  99.6215892  73.3937289  96.5948023 106.4572986  77.0876548
  96.4562382 107.1554032  77.5925290  95.8148021 106.3021642  76.7312729
  96.4591250 106.5373153  77.1102822  94.9326108 102.7569361  83.3398929
  94.9274147 101.8849178  83.3441356  95.6387102 102.9557531  82.8668385
  95.0371112 102.6573236  83.2705965  88.6597002 102.4846345  82.7112749
  88.8040377 103.0647553  82.0755859  89.0072650 102.8622642  83.4162604
  88.7324463 102.6267049  82.7211744  90.8316919 101.6836514  80.4937881
  90.0840233 101.8767528  80.0886159  90.9858444 100.8581733  80.2562002
  90.7439347 101.5901625  80.3983287  87.7324757 110.6749117  79.5773776
  87.8814320 110.1152033  78.9247181  88.5124759 110.7541119  79.9606295
  87.8698850 110.6034683  79.5370725  98.0901396 105.8151240  67.8493047
  97.7108205 105.0288378  67.8422336  97.4267641 106.3638097  67.7064691
  97.9359871 105.7796064  67.8273844  90.2578057 110.8463760  80.8558267
  90.1821728 110.1772571  81.4109055  90.1867916 111.5481548  81.3698933
  90.2358664 110.8508667  81.0135115  91.0718696  95.5787064  81.3833285
  91.5291310  96.3111039  81.5106077  91.1475025  95.1553530  82.1420541
  91.1509666  95.6244302  81.5134361  83.3151687  95.8252884  82.4722728
  82.7793877  95.2133242  82.7883496  83.3769452  96.4001020  83.1256395
  83.2447320  95.8199812  82.6158155  95.5446022  88.7576940  75.2527128
  95.6629590  89.2153403  74.5194430  95.3708198  87.9522201  74.9663345
  95.5365193  88.7070712  75.1028061  90.9148304 109.3664759  71.6881873
  91.6798195 109.0974403  71.3664537  90.8126394 108.8814769  72.4051936
  91.0129800 109.2554323  71.7461701  88.9501074  97.5689168  78.2275109
  88.1597149  97.3880628  78.5492445  89.3461697  96.7916121  78.2105403
  88.8917950  97.4276629  78.2727657  93.4366965 106.3976943  63.6681822
  94.2039950 106.4577068  63.2587674  92.9898274 105.8257384  63.1838141
  93.4840392 106.3213518  63.5359533  94.3344760 105.2031598  75.9534555
  93.6589762 104.9716831  76.4547942  94.3437136 104.5952781  75.3276660
  94.2363265 105.0790524  75.9350707  91.4638904 100.0449427  82.7098608
  91.3998045 100.9059384  82.5818744  91.6036092  99.7281421  81.9094159
  91.4754374 100.1249594  82.5726821  96.3361495 108.0596731  68.1844733
  96.4181332 108.8663717  67.8606183  96.8211237 108.0792690  68.9085506
  96.4198653 108.1817393  68.2431631  90.1457998 102.7381567  76.8514811
  89.7220247 102.9386066  76.1153829  89.9702853 101.8910415  76.9639110
  90.0568879 102.6430348  76.7588501  89.6469692 114.2532080  79.3136268
  90.1365622 113.5542869  79.1311932  89.0753924 113.9555950  79.9012325
  89.6354221 114.1058303  79.3737309  85.4340443 103.2333618  72.2842783
  85.5905062 103.1680421  73.1398775  85.7741036 104.0082171  72.0721463
  85.5073678 103.3382816  72.3797377  91.9719588 102.6091502  71.1536146
  92.5135133 102.1061883  71.6174767  92.2866147 102.5556696  70.3425632
  92.0983985 102.5270923  71.1019958  95.8436695 106.8194149  88.2663058
  96.6571560 106.5479298  88.4268191  95.6831661 106.5201689  87.4623254
  95.9406644 106.7349075  88.1708464  90.1406037 108.0008853  68.4376174
  90.2098858 107.1423392  68.5769175  90.9194493 108.2180734  68.1095199
  90.2658887 107.9061717  68.4093332  93.1208857  97.5027806  81.2058447
  93.3350827  96.8638720  80.6521801  92.5042756  97.9473630  80.7766309
  93.0614186  97.4737950  81.0608878  94.5313525 110.4246555  72.6512668
  94.1393317 110.1213270  71.9335534  94.6866597 111.2615645  72.4617621
  94.4967115 110.5030391  72.5169165  82.0074705 100.4168569  72.6003550
  82.3873669 100.8353114  71.9363818  81.4330069 100.9982024  72.9072394
  81.9786029 100.5646427  72.5480291  95.2847945  99.1116871  82.1441754
  94.4724627  98.8042762  82.2254927  95.7437880  98.6315872  82.7084466
  95.2328330  98.9953364  82.2396348  94.6953200 106.9896543  72.5918698
  94.3367854 107.1611186  73.3682731  94.2091910 107.4509749  72.0346697
  94.5711897 107.0835514  72.6243967  92.5123586  90.6127742  76.1945790
  91.6417144  90.5866463  76.1479099  92.7663927  90.4404934  75.3771635
  92.4217146  90.5837886  76.0665926  89.4841565 102.6695709  65.1318933
  89.7734090 103.4460591  65.4062507  89.5713364 102.1584440  65.8333432
  89.5395821 102.7087627  65.2761430  92.3801453 100.5176943  86.9270456
  92.8501084 101.1419059  87.3138330  92.4263333  99.8493918  87.4863671
  92.4569328 100.5111623  87.0670528  89.5372726  92.6233970  77.6519260
  89.0211215  91.9314162  77.7770839  88.9766655  93.2904747  77.5981859
  89.3779239  92.6197228  77.6625326  91.6064960  93.1626930  79.4812113
  91.2196713  93.1875962  80.2625642  91.1197897  92.5968609  79.0286629
  91.4777469  93.0822681  79.5300016  95.8557939 107.8800439  83.5385899
  96.4937660 107.3860635  83.2048355  95.2132031 107.8077840  82.9538126
  95.8552166 107.7959448  83.4028254  97.5814939  99.7289585  78.1051815
  97.1542547  99.6415934  77.3499914  96.9440992  99.8367361  78.6906659
  97.4244546  99.7322245  78.0797256  91.2722101  90.0493916  81.7722372
  91.9015219  90.5854216  81.4943443  91.4407964  89.9571275  82.6235938
  91.3899896  90.1155278  81.8570901  91.0736016  94.8365111  84.0448784
  91.9009446  94.5650259  84.1007398  91.0943862  95.6325952  84.4012602
  91.1988866  94.9144865  84.1063967  95.9112196 108.5720248  80.1791256
  96.7004574 108.2209312  80.2993337  96.0855793 109.3856636  79.9167890
  96.0532477 108.6406105  80.1579124  85.6505506 101.9828973  77.2319045
  84.8093513 101.8832848  77.4397939  85.8595514 102.7524454  77.5833365
  85.5570199 102.0821017  77.3146360  83.1281073  99.6048510  75.0603795
  82.7337771  99.6791522  74.2853905  82.5721190  99.9906457  75.6112157
  82.9883885  99.6730285  75.0271455  94.7646020  92.5829804  74.7407674
  94.9695613  92.5152112  75.5864671  94.4372444  93.3888626  74.6728852
  94.7461268  92.6915745  74.8567329  89.4622171  99.9110373  76.4816642
  89.1585308  99.3566361  77.0827050  88.7601592 100.0902583  75.9944676
  89.3138381  99.8555155  76.4986348  88.5188268  97.2210892  71.0461344
  88.7948002  96.5029805  70.6338912  89.1186937  97.8195812  70.8382450
  88.6481533  97.2031263  70.9542105  87.5240522 107.1260093  81.1888740
  87.4160877 107.1362155  82.0550798  87.7336303 107.9514874  80.9993694
  87.5390633 107.2501168  81.2892832  98.0179708  93.1361569  74.2210440
  97.4054021  93.6231971  74.6064172  98.1143882  92.4605059  74.7648091
  97.9417605  93.1079877  74.3589298  92.0198789  94.8924410  69.3207939
  92.4742535  95.0634970  70.0455784  92.4938834  94.2792520  68.9205715
  92.1567109  94.8275295  69.3681701  85.5414314 104.3772736  78.6510678
  84.9502247 105.0182234  78.6213693  86.3035337 104.8010353  78.6241977
  85.5662575 104.5348574  78.6425825  85.9374937  95.5374733  79.3178695
  86.3976418  95.6113663  80.0553819  85.9831043  96.3355987  78.9678517
  86.0125492  95.6668880  79.3751452  87.5858286  96.2041428  83.8850722
  87.1943852  95.5574775  84.3206500  87.7544149  96.7952864  84.5044978
  87.5529197  96.1955696  84.0413428 101.6604735 104.2078505  79.6487956
 101.7187859 104.6565154  80.3947932 101.0271203 104.6177318  79.2118036
 101.5756031 104.3352240  79.6940504  95.3003830 109.8282047  76.0842702
  95.1023519 110.3172862  75.3898913  94.6791541 110.0323289  76.6626835
  95.1791395 109.9298586  76.0665925  89.3611809 101.5966944  70.4252946
  90.1053853 101.9841220  70.6635896  89.5072505 100.7524369  70.5893434
  89.4922394 101.5297417  70.4846916  91.2791384  93.3917203  75.4584808
  90.4327429  93.5640011  75.3326158  91.2762516  92.5866547  75.7950636
  91.1538534  93.2978232  75.4895935  92.3489684  97.1692417  76.3246866
  91.8749639  96.6434179  76.8352177  92.7207820  96.6221890  75.7561727
  92.3339573  97.0108414  76.3162013  82.7262715  99.1663924  81.6930411
  83.5888328  99.0659633  81.6067741  82.3954498  98.5858633  81.1315984
  82.8047911  99.0655551  81.5975817  98.6126415 102.2294793  77.7353646
  98.3724638 101.3901208  77.7396073  99.0918422 102.3094960  78.4594420
  98.6478599 102.1176193  77.8428448  94.2773184  98.0628972  69.3872619
  93.7496203  98.1457716  68.6978328  94.7368892  98.8046843  69.3837264
  94.2675035  98.1849634  69.2847315 100.6131602  99.0096250  75.6882905
 100.3741372  98.9692084  74.8503690 100.7765503  99.8567402  75.8148626
 100.6021905  99.1288335  75.5836387  97.2177632 103.3946200  81.6187950
  97.9411831 102.9418726  81.4398970  96.9527594 103.6750865  80.8360278
  97.2858905 103.3697168  81.4766666  86.0864501  97.9906373  78.3540830
  85.4617571  98.0024765  77.7466782  85.7510095  98.4666548  79.0032070
  85.9449992  98.0624890  78.3597398  86.2706249  96.3331492  64.4113515
  85.9219054  96.9851217  64.8745064  85.7902695  96.3188605  63.6837386
  86.1476493  96.4274545  64.3724606  82.7990176 106.0506833  79.7944594
  82.2690101 105.3599272  79.8439569  83.0715269 106.0417019  78.9657302
  82.7614898 105.9473965  79.6792010  93.8310267 106.6332536  68.5182276
  94.5544465 107.0990649  68.3746850  93.3910858 106.7006145  67.7679873
  93.8725959 106.7116372  68.3867058  92.9996422 103.4930078  79.7682965
  92.3853415 102.9488128  80.0631601  93.5163707 102.9794314  79.2888782
  92.9852084 103.3366487  79.7407194  92.2392719 104.5634348  77.5027264
  91.8120327 103.9384066  77.0692700  92.2317663 104.2809270  78.3286271
  92.1751860 104.4287128  77.5607092  85.3555246  99.5999521  80.5715698
  85.5148733  98.8442845  80.9767420  85.1748139 100.1490460  81.2256436
  85.3520605  99.5693335  80.7278404  93.2975549  91.7660756  81.1266488
  92.8016110  91.9624431  80.4358054  94.0544611  92.1653425  80.9555289
  93.3362374  91.8538490  80.9986624  90.5678428  95.4403102  77.7169798
  90.5920916  94.9063215  77.0282578  90.8189902  94.9320411  78.3795389
  90.6088347  95.2864006  77.7134443  78.0786018 102.7234597  77.1512942
  77.9729467 102.6781442  76.2865026  77.3286238 103.0688378  77.4327227
  77.9521621 102.7675505  77.0650272  86.8479751  94.1673921  77.0975542
  86.8878122  94.6683127  77.8110250  86.0229415  94.2584314  76.8281465
  86.7319277  94.2555737  77.1626081  89.0309364 103.7334661  85.1995837
  88.1804994 103.8706375  85.3353482  89.1937491 102.9998439  85.6443539
  88.9293227 103.6448762  85.2851436  88.2694114 100.6834430  79.3949441
  87.4386044 100.8508248  79.1884690  88.2145631 100.3070381  80.1798327
  88.1383529 100.6524162  79.4797970  86.0777897  94.1743323  85.0305852
  86.7030601  93.6305456  85.3035284  85.6228377  93.6938241  84.4613643
  86.1026158  94.0232805  84.9867446  86.6430158  98.9590022  69.9239559
  86.7833119  99.4562486  70.6268200  87.1412691  98.2576316  70.0653773
  86.7371239  98.9292001  70.0491138  86.6730380  99.8257133  67.2532136
  87.3075460 100.4217558  67.1881598  86.7555991  99.5260591  68.0678006
  86.7786931  99.8698041  67.3635223  99.6512946 102.3572610  80.1218500
 100.2430786 102.9969861  80.1536698 100.0871941 101.6595647  80.4110567
  99.8031377 102.3490961  80.1699333  88.2509363  95.7571108  67.2277578
  88.5725204  95.2774191  66.5736840  88.5136307  96.5670754  67.0368390
  88.3375389  95.8061006  67.1033070  91.4806336 106.7789983  80.7476394
  90.9731427 107.3325830  81.1917025  91.1832982 106.8398273  79.9295169
  91.3611221 106.8696294  80.6924851  93.6468518  95.1443302  79.5901057
  94.0723590  94.6915829  78.9784583  93.0325511  94.5903373  79.8665845
  93.6197164  94.9957279  79.5406082  83.1783368 102.0224974  70.5221682
  83.6875598 102.6189481  70.9032988  83.6517640 101.7550947  69.8398102
  83.3226744 102.0710789  70.4776205  94.0914116 110.6953240  68.6780338
  93.3743426 110.5214103  68.2127575  94.7420854 110.4605813  68.1455824
  94.0815967 110.6349033  68.5309555  92.0862741  91.6158402  72.9991634
  91.4431059  91.4656049  73.5676772  91.7462148  91.3700747  72.2340739
  91.9407818  91.5570525  72.9694649  96.6762087  99.5717829  72.4221643
  96.0053277 100.1147531  72.2934708  97.3701838 100.0412684  72.1803337
  96.6790955  99.7216100  72.3677170  90.7248821 111.7114541  77.6533401
  90.5014476 110.9533370  78.0217427  90.2358664 111.7412562  76.9313841
  90.6192270 111.6036766  77.6010142  96.8390215  96.0273713  75.3312016
  97.1917825  95.6003436  76.0057815  95.9805016  95.9424556  75.4613092
  96.7639660  95.9518453  75.4507026  85.5373900  98.6581232  73.3894862
  84.8185889  99.0745365  73.6567726  85.9086262  99.2235471  72.8386501
  85.4865832  98.8030514  73.3477669  94.8373481  99.2909081  79.2796858
  94.8171408  99.1092376  80.1331637  94.8852681 100.1621100  79.2556442
  94.8408122  99.3925619  79.4020153  92.7819811 105.8796273  85.2045335
  92.7415665 105.2345950  84.6190491  93.5943129 105.8232891  85.5170747
  92.8962964 105.7755240  85.1642284  89.3727278 111.9314999  75.1070486
  88.9587677 111.2689129  74.7174327  90.0574652 112.0792858  74.5866180
  89.4125650 111.8555657  74.9726983  92.7392572 111.0905084  75.8594102
  92.3408855 111.2007355  75.0914922  92.1243792 111.2987151  76.4420662
  92.5891462 111.1378652  75.8325401  91.3120474  97.6979232  68.7268242
  90.7185314  98.0196229  68.1752809  91.3495752  96.8520328  68.5189348
  91.2294863  97.6203560  68.6151013  98.2714275  91.1492124  76.2596328
  97.7645140  90.4421264  76.1917506  99.0681709  90.8185313  76.3897405
  98.3141514  90.9965276  76.2695323  94.1878291  97.6558737  72.1569992
  93.9591984  97.6791438  71.3148350  94.4476367  96.8316204  72.2765003
  94.1924479  97.5374817  72.0495190  88.4697519  99.5093210  81.7595092
  87.9576422  98.9014393  82.1180124  88.2977015 100.2249802  82.2269068
  88.3687156  99.5256509  81.8811316  83.3163234  97.9530785  84.4097454
  83.1465824  98.6132160  83.8645661  82.8729184  98.1637346  85.1309943
  83.2262568  98.0816767  84.4359084  87.2423053  96.1935283  73.4524188
  87.7180420  96.5552363  72.8174369  86.7411653  96.8491751  73.7324330
  87.2388412  96.3429472  73.4000929 100.4734415 105.6657051  69.2437193
 100.8568021 106.4148407  69.4735290  99.6778528 105.9122871  68.9849182
 100.4128197 105.8126745  69.2394766  92.3466590  97.4317454  84.1997348
  92.9038020  97.2031264  83.5675813  92.0227655  98.1923120  83.9232560
  92.3813000  97.5101291  84.0653845  80.2165299 100.8577651  79.6685944
  79.6692018 100.1878296  79.7866812  81.0057677 100.4907499  79.7329411
  80.2517482 100.7042637  79.6954644  90.0649707 100.5185108  85.1649355
  90.8161034 100.8336785  85.4788909  90.2572283 100.3164279  84.3383277
  90.2041121 100.5352490  85.0892751  89.2849707  98.3376483  66.8197572
  89.6648671  98.3556112  66.0348686  88.5442303  98.7830472  66.6988419
  89.2318544  98.4058257  66.6861140  96.9134997  96.6458674  72.4073150
  96.9129223  96.4907331  73.2657427  96.7091177  97.4921661  72.3514536
  96.8834775  96.7479295  72.5261090  78.9752268 100.0698458  76.8231967
  78.7974029  99.6175067  77.5486883  78.6871290 100.8724620  77.0070444
  78.9065221 100.1221016  76.9575470  94.6375849 101.3256176  76.0609357
  95.1329514 100.6079171  76.0213378  93.8275625 101.0226973  75.9463844
  94.5919742 101.1753822  76.0383083  90.0834461 105.1753989  68.2106362
  89.2745783 104.8520663  68.1639671  90.5909369 104.4687211  68.1434610
  90.0384127 105.0235305  68.1936656  80.7124738 102.6026182  73.9353726
  79.8470257 102.5911873  73.8236497  80.8123554 102.4156405  74.7824865
  80.5998905 102.5732243  74.0442670  96.7027668 104.0759863  78.7486486
  97.1282740 103.5534285  78.1956911  96.3384588 104.6740701  78.2275109
  96.7114271 104.0870090  78.5895496  86.3381748 112.3724081  77.5083832
  86.6528307 113.1860469  77.5161613  86.7475161 111.9874299  78.1765991
  86.4449846 112.4352783  77.6087923  93.2906267 107.7894128  75.0787643
  93.7617446 108.5034390  75.2477629  93.6266446 107.1892878  75.6147513
  93.4101382 107.8065592  75.1820019  95.3783252 109.3995441  87.2579716
  95.4880217 108.6104002  87.6136463  95.7074149 109.3101377  86.4554054
  95.4435658 109.2701294  87.1922106  90.2075762  92.5621598  82.0345738
  90.3403668  91.7652592  82.3626714  90.5920915  93.0888001  82.6144014
  90.2832091  92.5221515  82.1689241  93.9280214 107.5812062  81.8415336
  93.3801160 106.9569945  81.5735401  94.3893242 107.7706334  81.1259416
  93.9147423 107.5171112  81.6965767  93.2808118  89.4851924  78.6326832
  92.4754081  89.3749654  78.9494670  93.1514853  89.5864380  77.7756697
  93.1428250  89.4835594  78.5534872  96.7374078  95.6497416  79.2266528
  96.1537067  96.1506623  78.8144096  97.0578372  95.1426972  78.5930852
  96.6987253  95.6489251  79.0725036  89.2768877  94.5638011  69.5025203
  90.0984572  94.7336324  69.2606898  88.8138528  94.7185272  68.7791501
  89.3300039  94.6119744  69.3596848  87.8664209  92.5580773  80.2823632
  88.4108622  92.2171900  80.8727974  87.9201145  93.4166235  80.4244917
  87.9553329  92.6336033  80.3905505  83.6794768 106.3197189  77.1562440
  84.2839625 106.2793023  76.5276261  83.4722080 107.1668341  77.1866496
  83.7383665 106.4385192  77.0678556  93.4938540 108.5863134  78.3724677
  94.3136914 108.4426100  78.6340973  93.2132618 109.2109333  78.9141115
  93.5735283 108.6573486  78.4912617  78.9146050 105.3031807  77.0261363
  78.8170328 104.4928078  77.3351420  79.6974920 105.2823600  76.6407631
  79.0162187 105.1798897  77.0148226 109.9652190 116.2427986  71.3367554
 109.9346195 117.0972623  71.5085823 110.5633539 115.9423279  71.8953697
 110.0489348 116.3244483  71.4442356 103.1651875 115.3303637  76.0920484
 102.3089771 115.4912135  76.1429601 103.2119529 114.4595701  76.1125545
 103.0450987 115.2254439  76.1026550  97.5493015 124.8666355  71.8557716
  96.7975914 124.4881893  71.6273761  97.9979027 124.8984789  71.1076526
  97.5042682 124.8151962  71.7115218 106.0103696 117.3895681  78.7352136
 106.5559656 118.0680768  78.7946105 105.9520573 117.2483142  77.8753717
 106.0819611 117.4687683  78.6164196  99.1277771 124.8784747  74.1220488
  99.2288134 124.0685101  74.4317616  98.5319516 124.7841694  73.4920167
  99.0550310 124.7449775  74.0746727 107.7868765 118.8180288  69.6085864
 107.6708291 119.5687974  70.0378002 108.5824652 118.5604241  69.8581951
 107.8873354 118.8915135  69.7089955  92.3242815 120.9005034  73.7472822
  92.0893000 120.0672686  73.6405091  92.4628456 121.1809699  72.9334023
  92.3098478 120.8188537  73.6115177  94.6232903 113.0690764  76.6457130
  94.0037935 112.4783412  76.4767144  94.5216766 113.6602200  76.0121453
  94.5170578 113.0694847  76.5262119  99.6699090 122.8074311  70.8955206
  99.9914932 123.3479519  70.2916514 100.3171187 122.2371083  71.0277496
  99.8125146 122.8033486  70.8262241 101.7200799 114.8090306  70.9789593
 102.4180963 114.9878434  71.4711056 102.0353131 114.2860645  70.3559982
 101.8696136 114.7584078  70.9591603  94.3502036 116.6143046  78.8900699
  94.2260733 117.2005492  79.5250517  95.0020320 116.1203242  79.1912973
  94.4275685 116.6281850  79.0286628 101.9088734 121.1960751  70.9669384
 102.3482369 120.5877852  71.4124157 101.7593397 120.8168124  70.1954849
 101.9510200 121.0499222  70.9188551  99.3760377 119.7904763  78.1688210
 100.0209379 119.2977206  77.8499158  99.6162154 119.9329550  78.9954288
  99.5070962 119.7382205  78.2437743 101.9146468 122.6359669  77.8195102
 102.1969711 121.8411075  77.5981858 102.6432629 123.1140256  77.8400163
 102.0636032 122.5894266  77.7898117  99.8927662 110.1782703  75.0610867
  99.5630992 110.6293846  74.3914566  99.2172664 110.0998866  75.6083874
  99.7438098 110.2333838  75.0434091 105.5098070 119.5487932  67.9200153
 105.4249366 120.4048899  68.0649722 105.9982454 119.2732257  68.5882312
 105.5686968 119.6345254  68.0402235 107.1004070 106.1668226  73.3060478
 106.7857511 106.8571704  73.7380900 106.5831012 106.1113008  72.6045979
 106.9768540 106.2603114  73.2657427 106.4416504 116.1672727  69.4197888
 105.9127975 116.3832360  70.0795195 106.9641524 116.8608865  69.3398858
 106.4404957 116.3015864  69.5053488  98.3316111 120.0635943  68.2205356
  97.7473327 120.5685975  68.6271220  97.9286207 119.8378330  67.4801948
  98.1855415 120.1044192  68.1710382  93.8860140 125.7790705  75.0229028
  93.4027718 126.5041194  74.9988612  94.6983458 126.0766835  75.1339186
  93.9350888 125.9293058  75.0356307  99.9574294 124.5722885  77.6278842
  99.4401236 124.2130300  77.0240151 100.6548685 124.0485060  77.6384909
  99.9839875 124.4420573  77.5409101 101.1808346 124.3048859  82.5712678
 100.6179181 123.8921469  83.0952339 101.9429369 124.2301765  82.9905821
 101.2102795 124.2326260  82.7105678 102.7893326 116.3101595  66.6974277
 103.0289330 116.5179579  65.8849620 103.1109167 115.5059104  66.8063222
 102.8730484 116.2215697  66.5934830  98.0983616 108.2394991  70.5433815
  98.8529584 108.6073308  70.3050865  97.9211151 108.6134546  71.3112995
  98.1838095 108.3493179  70.6218704  96.7404337 126.2946880  75.1749308
  97.4424917 125.7798870  75.2322064  96.6601820 126.6221032  75.9796183
  96.8328098 126.2661107  75.3022100 111.3918515 114.3889432  78.5881354
 110.5546936 114.4591619  78.8228949 111.3606746 114.3913927  77.7155657
 111.2636797 114.3999659  78.4940902  97.7883244 116.5322467  84.3029723
  97.9603748 116.4228362  85.1515004  98.3252601 117.1776873  84.0660915
  97.8928248 116.6114469  84.3934820  96.4540681 110.6465310  67.2411928
  96.2716254 110.8637191  66.4152921  97.3166294 110.7604323  67.2970542
  96.5545270 110.6955208  67.1266415  96.0655113 122.4853232  74.6834916
  96.9044012 122.7176165  74.7308677  96.0966882 121.6157544  74.6141951
  96.1936830 122.3910179  74.6799561  96.6907816 122.9054108  78.9848221
  97.2306041 122.7625239  79.6551594  96.0077762 123.3050858  79.3532248
  96.6699970 122.9433779  79.1382643 102.1340400 107.6491721  70.2760952
 102.8626560 107.4707676  69.8299108 102.2235293 108.4909801  70.4868130
 102.2547062 107.7475599  70.2414469 106.1148701 118.5845108  74.1793246
 106.8706216 119.0176623  74.2182154 106.2211025 117.9349878  74.7527882
 106.2418871 118.5522592  74.2691271  92.0944961 119.1254398  79.1382643
  91.8283376 118.3093515  79.2973633  92.1083525 119.1707554  78.2678158
  92.0569683 119.0111303  79.0336125 109.0726355 109.4532213  77.1725077
 109.7152263 109.5230318  77.7586992 109.3249375 108.7861436  76.6704619
 109.2048487 109.3658562  77.1852356  96.0002708 113.9239483  65.7534401
  95.2860885 113.6377662  66.1656834  96.4846677 114.2636109  66.3940788
  95.9662071 113.9321133  65.9090036  96.8443567 112.6632777  81.7849651
  96.1515364 112.1929756  82.0310382  97.4603895 112.4371081  82.3591358
  96.8328097 112.5599909  81.9058803 103.1750026 122.4269437  66.1296209
 103.5901174 122.0954461  65.4380705 102.3441955 122.1938339  66.0016346
 103.1138034 122.3440693  66.0087057  92.5038375 119.9113178  76.4194387
  92.3213948 119.8860064  75.5666679  93.2388043 120.3812116  76.4583296
  92.5852438 119.9774540  76.2992306  95.5684126 116.6298181  82.9276496
  96.2924099 116.6151211  83.4141391  95.6700263 117.3393536  82.4298464
  95.6902335 116.7322884  82.9255283 102.9429076 120.1097265  87.7925443
 102.1502056 120.4240777  87.9778063 103.0578003 120.3248734  86.9546227
 102.8424486 120.1881102  87.6963778 105.6160395 116.8331256  72.0820459
 105.7107249 117.5720551  72.5360084 104.9919238 116.4048732  72.5155023
 105.5369425 116.8792577  72.2128606 103.8712868 120.0117469  82.7310740
 104.4451730 119.3744713  82.8859303 103.7927672 120.0121551  81.8620397
 103.9446103 119.9182580  82.6257150  92.4709285 116.7906679  76.5693454
  93.0482787 116.6543129  77.2085699  91.7723347 116.3342463  76.8239038
  92.4530306 116.7028945  76.7015743 105.8683416 118.6779996  65.3157411
 105.7863578 118.7482183  66.1812398 106.5063136 119.2409740  65.1241151
 105.9503253 118.7718967  65.4147360  99.2276587 118.4440734  74.7831937
  98.9695831 117.6112469  74.7563236  99.2825070 118.6698347  73.9424437
  99.1976365 118.3538505  74.6552074 104.3077637 110.5469185  74.8836030
 103.6033964 110.0578370  75.0419949 104.3562612 110.5591659  74.0124474
 104.2107689 110.4758833  74.7775369  98.2011299 115.9978497  75.2696832
  97.6260890 116.1570665  75.9060793  97.8246975 115.3613906  74.8065282
  98.0614112 115.9276310  75.2951390 101.8684588 114.4701846  80.1289210
 101.4799021 114.0456064  79.4741401 101.2039286 114.7183996  80.6366237
 101.7131516 114.4440567  80.1077078 111.5107857 114.2276851  72.9037040
 111.2544422 113.4156792  72.7134923 112.3537171 114.2354418  72.6767228
 111.5973882 114.1088848  72.8421857  87.9468118 115.6418571  73.2841272
  88.0328370 115.2650440  74.0654802  88.5743916 115.2679017  72.8061231
  88.0524669 115.5304054  73.3286750 105.6910949 108.1676475  77.6413194
 106.0721461 107.4854646  78.0281069 104.8874234 107.8786077  77.4588859
 105.6287411 108.0243523  77.6717250 102.9723526 118.7000451  68.3266017
 103.7864165 118.9915343  68.2148788 102.9082667 118.0460313  67.7524310
 103.0826265 118.6465645  68.2254854  98.8431434 122.1721968  73.4538329
  99.4805381 121.9333715  73.9990123  99.2686506 122.3759127  72.7191490
  99.0007601 122.1672978  73.4255487  93.5344077 124.4110304  77.3372633
  93.5748222 124.6825156  76.5092413  94.0938601 124.9352213  77.7530421
  93.6227423 124.5286060  77.2764521  99.4834249 117.3924258  67.7913219
  99.8679402 117.1731964  68.5429764  99.2345870 118.2187203  67.9214295
  99.5036322 117.4822404  67.9214295  99.6502790 110.6730673  87.5075803
  99.3356231 111.4430236  87.2445366  99.3292722 110.1100929  86.9228030
  99.5561709 110.7040942  87.3817153 101.2252906 122.6494391  75.1332115
 101.2991915 122.4869562  75.9873965 102.0422413 122.8384580  74.8892597
 101.3569265 122.6531133  75.2230141  94.9858663 122.9952253  72.1626559
  94.1596781 123.2413991  72.0360838  95.0470654 122.9164334  73.0288617
  94.8732830 123.0197202  72.2715503  97.2034687 109.0621194  73.1221999
  96.3357112 109.1343794  73.1879608  97.4909891 109.8643273  73.3109974
  97.1174435 109.1915341  73.1596766 106.3267575 109.2099054  81.4533321
 107.0721168 109.0208864  81.0396746 105.9104880 109.7357292  80.8947177
 106.3752550 109.2601199  81.3097894 100.3552237 120.4146880  80.9498719
  99.8563931 121.1262647  81.0283608 101.1652461 120.7347546  80.9116882
 100.4008344 120.5673728  80.9555288  96.6180355 119.6769833  75.1961440
  96.3293603 119.0507304  75.7307168  97.4863703 119.6190120  75.2626121
  96.7040607 119.5757377  75.2852395 107.4058253 114.8204616  75.5143422
 107.0623018 114.0994951  75.8650672 107.5051295 114.6118467  74.6721780
 107.3700295 114.6828819  75.4415102  96.8212628 121.3165084  71.1203805
  97.5758596 121.6978123  71.3339268  96.2283241 121.7676227  71.5750502
  96.8449342 121.4393911  71.2186684  99.2819295 113.2727924  86.2461018
  98.4719071 113.5785704  86.1350860  99.7593982 113.9933506  86.3613602
  99.2322774 113.4242525  86.2468089  98.1410855 122.4873645  76.4943921
  97.6191608 122.6273937  77.1795785  98.5284875 121.7284309  76.6846038
  98.1214556 122.3959169  76.6244997  95.1302039 112.5379454  70.5638875
  94.8426835 112.1680724  69.8270823  95.8172507 113.0074309  70.3022580
  95.1890936 112.5526423  70.4153951  99.5677180 119.5177664  71.8925412
  99.3719963 120.1252399  71.2985715  99.7911526 118.8245608  71.4117086
  99.5711821 119.5055190  71.7341493  97.9655710 116.4032402  72.0106280
  98.6878362 116.5673560  71.5510086  97.4863703 117.1242067  71.9045620
  98.0019441 116.5330631  71.9271894 105.9249218 112.7396201  77.3902965
 105.0860319 112.7657480  77.1541228 105.9953585 113.3866936  77.9708312
 105.8117611 112.8392327  77.4412082  95.6163327 118.8090474  81.1160420
  96.1284424 119.0874728  80.4669180  95.3299670 119.5479768  81.4823233
  95.6498190 118.9592828  81.0750298 104.3718496 109.6381578  72.1230581
 105.0744849 109.4389326  71.6450539 104.1062685 108.8657520  72.4299424
 104.4365129 109.4944544  72.0976023 109.8006742 117.9464187  74.6764207
 109.7140716 118.1019614  75.5298986 109.3457222 118.5902263  74.3023612
 109.7209998 118.0639943  74.7471314  92.7030233 113.3160666  71.4124156
  92.8046370 114.1186828  71.7405132  93.4986120 113.1148002  71.1147237
  92.8358139 113.4046565  71.4159512  99.1347052 110.9016863  81.1761462
  98.9430250 110.9171997  82.0260885  99.9845648 111.0980537  81.1528116
  99.2322774 110.9331214  81.2984756  93.5193965 113.4307844  79.1545278
  93.3779457 112.5791785  79.2789786  93.8034529 113.4736505  78.3307484
  93.5401812 113.3107594  79.0512902 103.6732558 115.2674935  73.2989766
 103.4267272 115.1870686  74.1326555 104.0017681 114.4828402  73.1052294
 103.6853801 115.1401200  73.3937289 105.9058692 118.2754669  83.3398929
 105.9006730 117.4034486  83.3441356 106.6119686 118.4742838  82.8668385
 106.0103696 118.1758543  83.2705965  99.6329585 118.0031653  82.7112749
  99.7772961 118.5832861  82.0755859  99.9805234 118.3807950  83.4162604
  99.7057047 118.1452357  82.7211744 101.8049503 117.2021822  80.4937881
 101.0572817 117.3952836  80.0886159 101.9591028 116.3767041  80.2562002
 101.7171930 117.1086933  80.3983287 102.0451280 111.0972372  81.3833285
 102.5023894 111.8296347  81.5106077 102.1207608 110.6738838  82.1420541
 102.1242249 111.1429610  81.5134361  94.2884271 111.3438192  82.4722728
  93.7526460 110.7318550  82.7883496  94.3502035 111.9186328  83.1256395
  94.2179903 111.3385120  82.6158155 106.5178605 104.2762247  75.2527128
 106.6362174 104.7338711  74.5194430 106.3440781 103.4707509  74.9663345
 106.5097776 104.2256020  75.1028061  99.9233657 113.0874476  78.2275109
  99.1329732 112.9065936  78.5492445 100.3194280 112.3101429  78.2105403
  99.8650534 112.9461937  78.2727657 104.4099548 121.9162251  63.6681822
 105.1772533 121.9762375  63.2587674 103.9630857 121.3442692  63.1838141
 104.4572975 121.8398826  63.5359533 105.3077344 120.7216906  75.9534555
 104.6322346 120.4902139  76.4547942 105.3169720 120.1138089  75.3276660
 105.2095848 120.5975832  75.9350707 102.4371488 115.5634735  82.7098608
 102.3730629 116.4244692  82.5818744 102.5768675 115.2466729  81.9094159
 102.4486958 115.6434902  82.5726821 101.1190582 118.2566875  76.8514811
 100.6952831 118.4571374  76.1153829 100.9435437 117.4095723  76.9639110
 101.0301462 118.1615656  76.7588501  96.4073027 118.7518926  72.2842783
  96.5637646 118.6865729  73.1398775  96.7473620 119.5267479  72.0721463
  96.4806261 118.8568124  72.3797377 102.9452171 118.1276810  71.1536146
 103.4867717 117.6247191  71.6174767 103.2598730 118.0742004  70.3425632
 103.0716568 118.0456231  71.1019958 101.1138621 123.5194161  68.4376174
 101.1831441 122.6608700  68.5769175 101.8927076 123.7366042  68.1095199
 101.2391471 123.4247025  68.4093332 104.0941441 113.0213114  81.2058447
 104.3083410 112.3824028  80.6521801 103.4775340 113.4658938  80.7766309
 104.0346770 112.9923258  81.0608878  92.9807288 115.9353877  72.6003550
  93.3606253 116.3538421  71.9363818  92.4062653 116.5167332  72.9072394
  92.9518613 116.0831735  72.5480291 106.2580529 114.6302179  82.1441754
 105.4457210 114.3228070  82.2254927 106.7170463 114.1501179  82.7084466
 106.2060913 114.5138672  82.2396348 103.4856169 106.1313050  76.1945790
 102.6149727 106.1051771  76.1479099 103.7396511 105.9590242  75.3771635
 103.3949729 106.1023194  76.0665926 100.4574149 118.1881017  65.1318933
 100.7466673 118.9645899  65.4062507 100.5445948 117.6769748  65.8333432
 100.5128405 118.2272935  65.2761430 103.3534036 116.0362251  86.9270456
 103.8233667 116.6604367  87.3138330 103.3995916 115.3679226  87.4863671
 103.4301912 116.0296931  87.0670528 100.5105310 108.1419278  77.6519260
  99.9943798 107.4499470  77.7770839  99.9499239 108.8090055  77.5981859
 100.3511823 108.1382536  77.6625326 102.5797543 108.6812238  79.4812113
 102.1929296 108.7061270  80.2625642 102.0930480 108.1153917  79.0286629
 102.4510052 108.6007989  79.5300016 108.5547523 115.2474893  78.1051815
 108.1275131 115.1601242  77.3499914 107.9173576 115.3552669  78.6906659
 108.3977130 115.2507553  78.0797256 102.2454685 105.5679224  81.7722372
 102.8747803 106.1039524  81.4943443 102.4140548 105.4756583  82.6235938
 102.3632479 105.6340586  81.8570901 102.0468600 110.3550419  84.0448784
 102.8742029 110.0835567  84.1007398 102.0676446 111.1511260  84.4012602
 102.1721450 110.4330173  84.1063967  96.6238090 117.5014281  77.2319045
  95.7826096 117.4018155  77.4397939  96.8328098 118.2709762  77.5833365
  96.5302782 117.6006325  77.3146360  94.1013657 115.1233818  75.0603795
  93.7070354 115.1976830  74.2853905  93.5453773 115.5091765  75.6112157
  93.9616469 115.1915593  75.0271455 105.7378603 108.1015112  74.7407674
 105.9428197 108.0337420  75.5864671 105.4105027 108.9073933  74.6728852
 105.7193851 108.2101053  74.8567329 100.4354754 115.4295681  76.4816642
 100.1317892 114.8751669  77.0827050  99.7334175 115.6087890  75.9944676
 100.2870964 115.3740463  76.4986348  99.4920852 112.7396200  71.0461344
  99.7680586 112.0215113  70.6338912 100.0919521 113.3381120  70.8382450
  99.6214116 112.7216571  70.9542105  98.4973106 122.6445401  81.1888740
  98.3893460 122.6547463  82.0550798  98.7068887 123.4700182  80.9993694
  98.5123217 122.7686476  81.2892832 108.9912291 108.6546877  74.2210440
 108.3786605 109.1417279  74.6064172 109.0876466 107.9790367  74.7648091
 108.9150189 108.6265185  74.3589298 102.9931372 110.4109718  69.3207939
 103.4475119 110.5820278  70.0455784 103.4671418 109.7977828  68.9205715
 103.1299692 110.3460603  69.3681701  96.5146898 119.8958044  78.6510678
  95.9234831 120.5367542  78.6213693  97.2767921 120.3195661  78.6241977
  96.5395158 120.0533882  78.6425825  96.9107520 111.0560041  79.3178695
  97.3709002 111.1298971  80.0553819  96.9563627 111.8541295  78.9678517
  96.9858076 111.1854188  79.3751452  98.5590870 111.7226736  83.8850722
  98.1676435 111.0760083  84.3206500  98.7276733 112.3138172  84.5044978
  98.5261780 111.7141004  84.0413428 100.3344392 117.1152252  70.4252946
 101.0786437 117.5026528  70.6635896 100.4805088 116.2709677  70.5893434
 100.4654977 117.0482725  70.4846916 102.2523968 108.9102511  75.4584808
 101.4060013 109.0825319  75.3326158 102.2495100 108.1051855  75.7950636
 102.1271117 108.8163540  75.4895935 103.3222268 112.6877725  76.3246866
 102.8482222 112.1619487  76.8352177 103.6940404 112.1407198  75.7561727
 103.3072157 112.5293722  76.3162013  93.6995298 114.6849232  81.6930411
  94.5620911 114.5844941  81.6067741  93.3687081 114.1043941  81.1315984
  93.7780494 114.5840859  81.5975817 109.5858999 117.7480101  77.7353646
 109.3457221 116.9086516  77.7396073 110.0651006 117.8280268  78.4594420
 109.6211182 117.6361501  77.8428448 105.2505768 113.5814280  69.3872619
 104.7228786 113.6643024  68.6978328 105.7101476 114.3232151  69.3837264
 105.2407618 113.7034942  69.2847315 111.5864186 114.5281558  75.6882905
 111.3473956 114.4877392  74.8503690 111.7498087 115.3752710  75.8148626
 111.5754489 114.6473643  75.5836387 108.1910216 118.9131507  81.6187950
 108.9144415 118.4604034  81.4398970 107.9260178 119.1936173  80.8360278
 108.2591489 118.8882476  81.4766666  97.0597084 113.5091681  78.3540830
  96.4350154 113.5210073  77.7466782  96.7242679 113.9851856  79.0032070
  96.9182576 113.5810198  78.3597398  97.2438833 111.8516800  64.4113515
  96.8951637 112.5036525  64.8745064  96.7635279 111.8373913  63.6837386
  97.1209077 111.9459853  64.3724606  93.7722760 121.5692141  79.7944594
  93.2422684 120.8784580  79.8439569  94.0447853 121.5602326  78.9657302
  93.7347482 121.4659273  79.6792010 103.9729005 119.0115386  79.7682965
 103.3585998 118.4673436  80.0631601 104.4896290 118.4979622  79.2888782
 103.9584668 118.8551795  79.7407194 103.2125302 120.0819656  77.5027264
 102.7852910 119.4569374  77.0692700 103.2050247 119.7994578  78.3286271
 103.1484444 119.9472436  77.5607092  96.3287829 115.1184829  80.5715698
  96.4881316 114.3628153  80.9767420  96.1480723 115.6675768  81.2256436
  96.3253188 115.0878643  80.7278404 104.2708132 107.2846064  81.1266488
 103.7748694 107.4809739  80.4358054 105.0277194 107.6838733  80.9555289
 104.3094957 107.3723798  80.9986624 101.5411012 110.9588410  77.7169798
 101.5653499 110.4248523  77.0282578 101.7922486 110.4505719  78.3795389
 101.5820931 110.8049314  77.7134443  89.0518602 118.2419905  77.1512942
  88.9462051 118.1966750  76.2865026  88.3018822 118.5873686  77.4327227
  88.9254205 118.2860813  77.0650272  97.8212334 109.6859229  77.0975542
  97.8610706 110.1868435  77.8110250  96.9961999 109.7769622  76.8281465
  97.7051860 109.7741045  77.1626081 100.0041947 119.2519969  85.1995837
  99.1537578 119.3891683  85.3353482 100.1670075 118.5183747  85.6443539
  99.9025811 119.1634070  85.2851436  99.2426698 116.2019738  79.3949441
  98.4118627 116.3693556  79.1884690  99.1878215 115.8255689  80.1798327
  99.1116113 116.1709470  79.4797970  97.0510481 109.6928631  85.0305852
  97.6763184 109.1490764  85.3035284  96.5960961 109.2123549  84.4613643
  97.0758742 109.5418113  84.9867446  97.6162741 114.4775330  69.9239559
  97.7565703 114.9747794  70.6268200  98.1145274 113.7761624  70.0653773
  97.7103822 114.4477309  70.0491138  97.6462964 115.3442441  67.2532136
  98.2808043 115.9402866  67.1881598  97.7288575 115.0445899  68.0678006
  97.7519515 115.3883349  67.3635223  99.2241947 111.2756416  67.2277578
  99.5457788 110.7959499  66.5736840  99.4868890 112.0856062  67.0368390
  99.3107972 111.3246314  67.1033070 102.4538920 122.2975291  80.7476394
 101.9464011 122.8511138  81.1917025 102.1565566 122.3583581  79.9295169
 102.3343804 122.3881602  80.6924851 104.6201102 110.6628610  79.5901057
 105.0456173 110.2101137  78.9784583 104.0058095 110.1088681  79.8665845
 104.5929747 110.5142587  79.5406082  94.1515952 117.5410282  70.5221682
  94.6608181 118.1374789  70.9032988  94.6250224 117.2736255  69.8398102
  94.2959327 117.5896097  70.4776205 103.0595325 107.1343710  72.9991634
 102.4163643 106.9841356  73.5676772 102.7194732 106.8886055  72.2340739
 102.9140402 107.0755833  72.9694649 107.6494671 115.0903137  72.4221643
 106.9785861 115.6332839  72.2934708 108.3434421 115.5597992  72.1803337
 107.6523539 115.2401408  72.3677170 107.8122799 111.5459021  75.3312016
 108.1650409 111.1188743  76.0057815 106.9537600 111.4609864  75.4613092
 107.7372243 111.4703761  75.4507026  96.5106483 114.1766540  73.3894862
  95.7918473 114.5930673  73.6567726  96.8818846 114.7420779  72.8386501
  96.4598415 114.3215822  73.3477669 105.8106064 114.8094389  79.2796858
 105.7903992 114.6277684  80.1331637 105.8585265 115.6806408  79.2556442
 105.8140705 114.9110927  79.4020153 103.7552394 121.3981581  85.2045335
 103.7148249 120.7531258  84.6190491 104.5675712 121.3418199  85.5170747
 103.8695548 121.2940548  85.1642284 102.2853058 113.2164540  68.7268242
 101.6917897 113.5381537  68.1752809 102.3228336 112.3705636  68.5189348
 102.2027447 113.1388868  68.6151013 109.2446859 106.6677432  76.2596328
 108.7377723 105.9606572  76.1917506 110.0414292 106.3370621  76.3897405
 109.2874098 106.5150584  76.2695323 105.1610874 113.1744045  72.1569992
 104.9324567 113.1976746  71.3148350 105.4208951 112.3501512  72.2765003
 105.1657062 113.0560125  72.0495190  99.4430103 115.0278518  81.7595092
  98.9309006 114.4199701  82.1180124  99.2709599 115.7435110  82.2269068
  99.3419740 115.0441817  81.8811316  94.2895818 113.4716093  84.4097454
  94.1198408 114.1317468  83.8645661  93.8461767 113.6822654  85.1309943
  94.1995151 113.6002075  84.4359084  98.2155637 111.7120591  73.4524188
  98.6913003 112.0737671  72.8174369  97.7144237 112.3677059  73.7324330
  98.2120996 111.8614780  73.4000929 103.3199173 112.9502762  84.1997348
 103.8770603 112.7216572  83.5675813 102.9960238 113.7108428  83.9232560
 103.3545583 113.0286599  84.0653845  91.1897882 116.3762959  79.6685944
  90.6424602 115.7063604  79.7866812  91.9790260 116.0092806  79.7329411
  91.2250066 116.2227945  79.6954644 101.0382290 116.0370416  85.1649355
 101.7893617 116.3522092  85.4788909 101.2304867 115.8349587  84.3383277
 101.1773705 116.0537797  85.0892751 100.2582290 113.8561791  66.8197572
 100.6381255 113.8741420  66.0348686  99.5174886 114.3015780  66.6988419
 100.2051128 113.9243565  66.6861140 107.8867581 112.1643982  72.4073150
 107.8861807 112.0092639  73.2657427 107.6823761 113.0106969  72.3514536
 107.8567358 112.2664603  72.5261090  89.9484852 115.5883766  76.8231967
  89.7706613 115.1360375  77.5486883  89.6603874 116.3909928  77.0070444
  89.8797805 115.6406324  76.9575470 105.6108433 116.8441484  76.0609357
 106.1062098 116.1264479  76.0213378 104.8008208 116.5412281  75.9463844
 105.5652326 116.6939130  76.0383083 101.0567044 120.6939297  68.2106362
 100.2478367 120.3705971  68.1639671 101.5641953 119.9872519  68.1434610
 101.0116711 120.5420613  68.1936656  91.6857321 118.1211490  73.9353726
  90.8202841 118.1097181  73.8236497  91.7856137 117.9341713  74.7824865
  91.5731488 118.0917551  74.0442670 107.6760252 119.5945171  78.7486486
 108.1015323 119.0719593  78.1956911 107.3117171 120.1926009  78.2275109
 107.6846854 119.6055398  78.5895496 101.1808346 108.0806906  82.0345738
 101.3136252 107.2837900  82.3626714 101.5653499 108.6073309  82.6144014
 101.2564675 108.0406823  82.1689241 104.2540701 105.0037232  78.6326832
 103.4486665 104.8934962  78.9494670 104.1247437 105.1049688  77.7756697
 104.1160834 105.0020902  78.5534872 107.7106662 111.1682724  79.2266528
 107.1269650 111.6691931  78.8144096 108.0310956 110.6612280  78.5930852
 107.6719837 111.1674559  79.0725036 100.2501461 110.0823319  69.5025203
 101.0717155 110.2521632  69.2606898  99.7871112 110.2370580  68.7791501
 100.3032623 110.1305052  69.3596848  98.8396793 108.0766081  80.2823632
  99.3841206 107.7357208  80.8727974  98.8933728 108.9351543  80.4244917
  98.9285912 108.1521341  80.3905505  94.6527351 121.8382497  77.1562440
  95.2572209 121.7978331  76.5276261  94.4454664 122.6853649  77.1866496
  94.7116249 121.9570500  77.0678556  89.8878634 120.8217115  77.0261363
  89.7902912 120.0113386  77.3351420  90.6707503 120.8008908  76.6407631
  89.9894770 120.6984205  77.0148226  43.8207513   0.0694270  58.2707600
  43.7901517   0.9238906  58.4425870  44.4188862  -0.2310438  58.8293744
  43.9044671   0.1510766  58.3782403  37.0207198  -0.8430079  63.0260531
  36.1645093  -0.6821581  63.0769648  37.0674851  -1.7138015  63.0465592
  36.9006309  -0.9479277  63.0366597  31.4048337   8.6932639  58.7897762
  30.6531237   8.3148177  58.5613808  31.8534349   8.7251072  58.0416573
  31.3598004   8.6418246  58.6455265  40.3300914   5.4256446  72.6320987
  41.0367682   4.9308477  72.7607921  40.5188850   5.8665528  71.9023645
  40.4628820   5.4174797  72.5430032  36.8573297   9.1158008  54.2183310
  36.5224666   9.7934930  53.7827532  37.3700168   8.7263319  53.6300181
  36.8838878   9.1582586  54.0670101  36.3977589  11.0672277  60.1594421
  36.7816968  11.6359175  59.6199196  36.3336730  10.3421787  59.6800237
  36.4451016  11.0447740  60.0088284  39.8659019   1.2161965  65.6692183
  40.4114979   1.8947051  65.7286152  39.8075895   1.0749426  64.8093764
  39.9374933   1.2953966  65.5504243  32.9833094   8.7051031  61.0560535
  33.0843457   7.8951385  61.3657663  32.3874839   8.6107977  60.4260213
  32.9105632   8.5716059  61.0086773  41.6424087   2.6446572  56.5425910
  41.5263613   3.3954258  56.9718048  42.4379974   2.3870525  56.7921997
  41.7428677   2.7181419  56.6430002  32.8233833  13.6228620  62.4575391
  33.4671289  14.0641784  62.8471549  33.1490089  12.8182046  62.3705650
  32.9665662  13.5693815  62.5020868  26.1798138   4.7271317  60.6812869
  25.9448322   3.8938970  60.5745137  26.3183779   5.0075983  59.8674070
  26.1653800   4.6454821  60.5455224  33.5254413   6.6340595  57.8295253
  33.8470254   7.1745802  57.2256561  34.1726509   6.0637366  57.9617543
  33.6680468   6.6299770  57.7602288  35.5756121  -1.3643410  57.9129639
  36.2736286  -1.1855283  58.4051103  35.8908454  -1.8873071  57.2900029
  35.7251458  -1.4149638  57.8931650  28.2057358   0.4409330  65.8240745
  28.0816055   1.0271775  66.4590564  28.8575643  -0.0530475  66.1253020
  28.2831008   0.4548134  65.9626675  35.7644056   5.0227035  57.9009431
  36.2037692   4.4144135  58.3464204  35.6148719   4.6434408  57.1294896
  35.8065522   4.8765506  57.8528598  33.2315699   3.6171047  65.1028256
  33.8764702   3.1243490  64.7839205  33.4717476   3.7595833  65.9294335
  33.3626284   3.5648489  65.1777790  35.7701791   6.4625952  64.7535149
  36.0525034   5.6677358  64.5321905  36.4987951   6.9406540  64.7740210
  35.9191354   6.4160549  64.7238164  39.3653393   3.3754216  54.8540200
  39.2804688   4.2315183  54.9989769  39.8537776   3.0998540  55.5222359
  39.4242290   3.4611537  54.9742282  40.2971826  -0.0060990  56.3537935
  39.7683298   0.2098644  57.0135241  40.8196846   0.6875149  56.2738905
  40.2960279   0.1282147  56.4393534  45.7519879   5.5685315  61.7270980
  44.9217582   5.7795958  61.8904396  45.7029131   4.7422369  61.4513263
  45.6226614   5.4774921  61.7108345  32.1871434   3.8902227  55.1545403
  31.6028649   4.3952258  55.5611267  31.7841529   3.6644614  54.4141995
  32.0410738   3.9310475  55.1050428  27.7415463   9.6056988  61.9569075
  27.2583041  10.3307478  61.9328658  28.5538781   9.9033118  62.0679233
  27.7906210   9.7559342  61.9696354  33.8129617   8.3989169  64.5618889
  33.2956558   8.0396584  63.9580197  34.5104008   7.8751343  64.5724955
  33.8395198   8.2686857  64.4749148  37.4693209   8.8483983  70.5235062
  37.5576554   8.6610123  71.3713273  37.8982921   8.2021412  70.1239909
  37.5455311   8.7246991  70.5906814  35.0363668   8.1315143  69.5052724
  34.4734503   7.7187753  70.0292386  35.7984692   8.0568049  69.9245868
  35.0658117   8.0592543  69.6445725  36.6448648   0.1367879  53.6314324
  36.8844652   0.3445863  52.8189667  36.9664489  -0.6674612  53.7403268
  36.7285806   0.0481980  53.5274877  30.5959660  10.1213164  62.1089355
  31.2980239   9.6065153  62.1662111  30.5157143  10.4487315  62.9136230
  30.6883420  10.0927390  62.2362147  45.2473837  -1.7844285  65.5221401
  44.4102258  -1.7142098  65.7568996  45.2162068  -1.7819790  64.6495703
  45.1192120  -1.7734058  65.4280949  31.6438566   0.3588751  71.2369770
  31.8159070   0.2494646  72.0855051  32.1807924   1.0043156  71.0000962
  31.7483570   0.4380753  71.3274866  29.9210435   6.3119516  61.6174963
  30.7599335   6.5442449  61.6648724  29.9522204   5.4423827  61.5481998
  30.0492153   6.2176462  61.6139607  30.5463138   6.7320391  65.9188268
  31.0861363   6.5891522  66.5891641  29.8633085   7.1317142  66.2872294
  30.5255292   6.7700062  66.0722690  39.9704023   2.4111392  61.1133293
  40.7261538   2.8442906  61.1522201  40.0766348   1.7616162  61.6867929
  40.0974194   2.3788876  61.2031318  43.0084194   6.2384669  61.8635696
  42.5719426   6.2421412  62.6194667  42.6747110   6.9190168  61.4315273
  42.8946814   6.3397125  61.9116528  37.5813268   8.2793002  73.1878846
  38.3653685   8.3923850  73.5534588  37.3809862   7.4534139  73.3837532
  37.6679293   8.1739721  73.2713232  25.9500283   2.9520682  66.0722690
  25.6838699   2.1359799  66.2313680  25.9638847   2.9973838  65.2018205
  25.9125006   2.8377587  65.9676172  42.9281677  -6.7201503  64.1065123
  43.5707586  -6.6503398  64.6927039  43.1804698  -7.3872280  63.6044665
  43.0603809  -6.8075154  64.1192403  37.7383661  10.1903104  66.8345301
  36.9398907   9.9502604  67.0919170  38.1869673  10.2417497  67.5812349
  37.6858272  10.1625495  66.9830226  46.1428540   2.9565589  60.7555333
  46.8044975   2.3956257  60.6551241  45.5019952   2.4617620  61.0808024
  46.1457408   2.8001998  60.7887673  37.0305348   6.2535720  53.0636256
  37.4456497   5.9220744  52.3720752  36.1997278   6.0204623  52.9356393
  36.9693357   6.1706976  52.9427103  26.3593697   3.7379461  63.3534434
  26.1769270   3.7126347  62.5006726  27.0943366   4.2078399  63.3923343
  26.4407761   3.8040824  63.2332352  42.4293371   3.9730971  60.4967322
  42.6648960   4.1176170  59.6694172  42.5782935   4.7373379  60.8898835
  42.4859174   4.1070026  60.4330925  29.4239449   0.4564464  69.8616543
  30.1479421   0.4417495  70.3481437  29.5255585   1.1659820  69.3638511
  29.5457658   0.5589167  69.8595329  44.2583828   2.8132637  58.3336925
  44.5892045   3.3460277  57.7277020  44.8316916   2.8671525  58.9898876
  44.3917507   2.9002206  58.3414707  36.7984398   3.9363549  74.7265490
  36.0057379   4.2507061  74.9118109  36.9133325   4.1515017  73.8886274
  36.6979809   4.0147386  74.6303824  39.4715717   0.6597540  59.0160505
  39.5662571   1.3986834  59.4700131  38.8474561   0.2315016  59.4495070
  39.3924747   0.7058861  59.1468653  37.7268191   3.8383753  69.6650786
  38.3007053   3.2010997  69.8199350  37.6482995   3.8387835  68.7960444
  37.8001426   3.7448864  69.5597197  39.7238738   2.5046280  52.2497457
  39.6418901   2.5748467  53.1152444  40.3618459   3.0676024  52.0581198
  39.8058576   2.5985251  52.3487407  33.0831910   2.2707018  61.7171984
  32.8251154   1.4378753  61.6903283  33.1380392   2.4964631  60.8764484
  33.0531687   2.1804789  61.5892121  38.1632960  -5.6264532  61.8176076
  37.4589286  -6.1155346  61.9759996  38.2117934  -5.6142057  60.9464521
  38.0663011  -5.6974884  61.7115416  32.0566622  -0.1755220  62.2036879
  31.4816213  -0.0163051  62.8400839  31.6802298  -0.8119811  61.7405329
  31.9169434  -0.2457407  62.2291437  35.7239910  -1.7031870  67.0629257
  35.3354343  -2.1277653  66.4081448  35.0594609  -1.4549721  67.5706284
  35.5686838  -1.7293149  67.0417125  45.3663179  -1.9456866  59.8377087
  45.1099744  -2.7576924  59.6474970  46.2092493  -1.9379299  59.6107274
  45.4529205  -2.0644868  59.7761904  36.8278849   2.5266734  55.2606064
  37.6419487   2.8181627  55.1488835  36.7637990   1.8726596  54.6864357
  36.9381588   2.4731929  55.1594901  43.0488339   5.2092730  69.6735640
  42.8126976   4.3780795  69.5547700  43.6931568   5.1578337  70.2590484
  43.1083009   5.0790418  69.7421533  32.6986757   5.9988252  60.3878376
  33.3360704   5.7599999  60.9330169  33.1241828   6.2025410  59.6531537
  32.8562923   5.9939262  60.3595533  27.3899399   8.2376588  64.2712680
  27.4303544   8.5091439  63.4432459  27.9493923   8.7618496  64.6870468
  27.4782745   8.3552343  64.2104568  33.3389572   1.2190541  54.7253265
  33.7234725   0.9998248  55.4769811  33.0901192   2.0453487  54.8554342
  33.3591644   1.3088688  54.8554342  44.0724759   4.9937179  65.7363934
  43.7670576   5.7265236  66.0977250  43.3530975   4.5875109  65.4556720
  43.9212102   5.0418912  65.7477071  35.0808229   6.4760674  62.0672162
  35.1547237   6.3135846  62.9214012  35.8977735   6.6650864  61.8232644
  35.2124587   6.4797417  62.1570188  49.7726552   1.6330180  65.0632278
  49.7051052   1.6526139  64.1934865  49.7582214   2.4760507  65.2887949
  49.7605308   1.7603914  64.9684755  28.8413985   6.8218537  59.0966606
  28.0152103   7.0680274  58.9700885  28.9025977   6.7430618  59.9628664
  28.7288152   6.8463486  59.2055550  40.1822898  -6.9634663  68.3873368
  40.9276490  -7.1524852  67.9736793  39.7660203  -6.4376425  67.8287224
  40.2307872  -6.9132517  68.2437941  33.6212814   9.4395417  56.7985636
  33.9111113   9.0484399  56.0744862  34.3516295   9.6212122  57.2390911
  33.7719699   9.4089231  56.7568443  47.5585169   0.4074566  63.3378873
  48.1093090  -0.2257365  63.5775965  47.5429284   0.9389959  64.0294377
  47.6370365   0.3923514  63.4757731  34.2107560   4.2413163  67.8838766
  33.7119253   4.9528931  67.9623655  35.0207784   4.5613830  67.8456929
  34.2563666   4.3940012  67.8895335  31.5618730  11.4162800  59.8645785
  31.3419025  11.1260154  60.6572452  31.3413252  10.7577755  59.3363698
  31.4966324  11.2762508  59.9034694  30.4735677   3.5036116  62.1301487
  30.1848926   2.8773587  62.6647214  31.3419025   3.4456404  62.1966168
  30.5595929   3.4023660  62.2192442  41.2613575  -1.3529100  62.4483469
  40.9178341  -2.0738765  62.7990719  41.3606618  -1.5615249  61.6061827
  41.2255618  -1.4904897  62.3755149  33.7286686  12.7892190  58.6476478
  34.3810744  12.2568632  58.8767504  33.0312295  12.4360842  59.0344352
  33.7217404  12.6581713  58.7388646  30.6767951   5.1431367  58.0543852
  31.4313919   5.5244406  58.2679315  30.0838563   5.5942511  58.5090549
  30.7004664   5.2660195  58.1526731  41.7226604   5.1096604  57.9907457
  42.2884637   5.7689814  57.9066000  41.0754508   5.4546302  58.4623859
  41.7105361   5.2578545  58.0480214  33.1374618  -2.9005792  73.1801064
  32.3274393  -2.5948013  73.0690907  33.6149304  -2.1800210  73.2953649
  33.0878096  -2.7491191  73.1808136  31.9966177   6.3139929  63.4283968
  31.4746931   6.4540220  64.1135832  32.3840198   5.5550593  63.6186085
  31.9769878   6.2225452  63.5585044  38.1933182   8.0535388  57.4144536
  37.9519858   7.3203248  57.0071601  38.3734515   8.6022245  56.7610870
  38.1840806   8.0257779  57.2574759  33.4232503   3.3443948  58.8265459
  33.2275286   3.9518682  58.2325762  33.6466848   2.6511892  58.3457133
  33.4267144   3.3321473  58.6681539  31.8211033   0.2298686  58.9446327
  32.5433685   0.3939844  58.4850133  31.3419026   0.9508350  58.8385667
  31.8574764   0.3596915  58.8611941  39.7804540  -3.4337516  64.3243012
  38.9415641  -3.4076237  64.0881275  39.8508908  -2.7866780  64.9048358
  39.6672934  -3.3341390  64.3752129  29.4718650   2.6356758  68.0500467
  29.9839747   2.9141011  67.4009227  29.1854992   3.3746052  68.4163280
  29.5053513   2.7859112  68.0090345  38.2273819  -6.5352139  59.0570628
  38.9300172  -6.7344390  58.5790586  37.9618007  -7.3076196  59.3639471
  38.2920451  -6.6789173  59.0316069  43.6562064   1.7730471  61.6104254
  43.5696039   1.9285897  62.4639032  43.2012544   2.4168547  61.2363659
  43.5765321   1.8906226  61.6811360  37.5287880  -0.9058782  60.2329813
  37.2822595  -0.9863031  61.0666602  37.8573003  -1.6905314  60.0392341
  37.5409124  -1.0332516  60.3277336  41.4235929   5.8024578  64.0216594
  41.2850288   6.5005623  64.5265337  40.6435927   5.6473234  63.6652776
  41.2879156   5.8824744  64.0442869  39.7614014   2.1020953  70.2738976
  39.7562053   1.2300769  70.2781403  40.4675008   2.3009122  69.8008432
  39.8659018   2.0024827  70.2046011  33.4884908   1.8297937  69.6452796
  33.6328283   2.4099145  69.0095906  33.8360556   2.2074233  70.3502651
  33.5612369   1.9718641  69.6551791  35.6604825   1.0288105  67.4277928
  34.9128139   1.2219120  67.0226206  35.8146350   0.2033325  67.1902049
  35.5727253   0.9353217  67.3323334  32.5612663  10.0200709  66.5113823
  32.7102226   9.4603624  65.8587227  33.3412665  10.0992710  66.8946342
  32.6986756   9.9486274  66.4710772  42.9189302   5.1602831  54.7833094
  42.5396111   4.3739969  54.7762383  42.2555547   5.7089688  54.6404738
  42.7647777   5.1247655  54.7613890  35.0865963  10.1915351  67.7898314
  35.0109634   9.5224162  68.3449102  35.0155822  10.8933140  68.3038980
  35.0646570  10.1960259  67.9475162  35.9006602  -5.0761344  68.3173332
  36.3579216  -4.3437370  68.4446124  35.9762931  -5.4994879  69.0760587
  35.9797572  -5.0304106  68.4474408  35.7436210   8.7116350  58.6221920
  36.5086101   8.4425994  58.3004584  35.6414300   8.2266361  59.3391983
  35.8417706   8.6005915  58.6801747  33.7788980  -3.0859240  65.1615156
  32.9885055  -3.2667780  65.4832491  34.1749603  -3.8632288  65.1445450
  33.7205856  -3.2271779  65.2067704  38.2654871   5.7428534  50.6021869
  39.0327856   5.8028659  50.1927721  37.8186180   5.1708976  50.1178188
  38.3128298   5.6665110  50.4699579  39.1632666   4.5483190  62.8874601
  38.4877668   4.3168422  63.3887988  39.1725042   3.9404373  62.2616706
  39.0651171   4.4242115  62.8690754  36.2926810  -0.6098981  69.6438654
  36.2285951   0.2510975  69.5158791  36.4323998  -0.9266988  68.8434206
  36.3042280  -0.5298814  69.5066867  41.1649401   7.4048322  55.1184779
  41.2469238   8.2115309  54.7946230  41.6499143   7.4244282  55.8425553
  41.2486559   7.5268985  55.1771678  34.9745904   2.0833158  63.7854857
  34.5508153   2.2837657  63.0493876  34.7990759   1.2362006  63.8979157
  34.8856785   1.9881940  63.6928547  34.4757598  13.5983671  66.2476315
  34.9653528  12.8994460  66.0651979  33.9041830  13.3007541  66.8352372
  34.4642128  13.4509895  66.3077355  30.2628349   2.5785210  59.2182830
  30.4192968   2.5132013  60.0738822  30.6028942   3.3533762  59.0061510
  30.3361584   2.6834408  59.3137424  36.8007494   1.9543093  58.0876193
  37.3423039   1.4513474  58.5514814  37.1154053   1.9008288  57.2765678
  36.9271891   1.8722514  58.0360005  40.6724601   6.1645741  75.2003105
  41.4859466   5.8930889  75.3608238  40.5119567   5.8653281  74.3963301
  40.7694550   6.0800667  75.1048511  34.9693943   7.3460445  55.3716221
  35.0386764   6.4874983  55.5109222  35.7482399   7.5632326  55.0435246
  35.0946793   7.2513309  55.3433378  37.9496763  -3.1520602  68.1398494
  38.1638733  -3.7909688  67.5861848  37.3330662  -2.7074778  67.7106355
  37.8902092  -3.1810459  67.9948925  39.3601431   9.7698146  59.5852714
  38.9681223   9.4664861  58.8675581  39.5154503  10.6067236  59.3957668
  39.3255021   9.8481983  59.4509212  40.1135851  -1.5431537  69.0781801
  39.3012533  -1.8505647  69.1594973  40.5725786  -2.0232537  69.6424513
  40.0616236  -1.6595045  69.1736395  39.5241106   6.3348135  59.5258745
  39.1655761   6.5062778  60.3022777  39.0379817   6.7961341  58.9686743
  39.3999803   6.4287106  59.5584014  34.3129471   2.0147300  52.0658979
  34.6021996   2.7912183  52.3402554  34.4001270   1.5036032  52.7673479
  34.3683727   2.0539219  52.2101477  37.2089359  -0.1371466  73.8610503
  37.6788990   0.4870651  74.2478377  37.2551239  -0.8054490  74.4203718
  37.2857234  -0.1436785  74.0010574  40.6845845   7.2252031  70.4725946
  41.3225566   6.7312227  70.1388402  40.0419937   7.1529431  69.8878173
  40.6840072   7.1411039  70.3368301  42.4102845  -0.9258823  65.0391861
  41.9830453  -1.0132475  64.2839961  41.7728898  -0.8181048  65.6246706
  42.2532452  -0.9226163  65.0137303  35.9023922  -5.8183298  70.9788831
  36.7297352  -6.0898149  71.0347445  35.9231768  -5.0222456  71.3352649
  36.0276772  -5.7403544  71.0404014  40.7400102   7.9171839  67.1131303
  41.5292480   7.5660904  67.2333384  40.9143700   8.7308228  66.8507936
  40.8820383   7.9857696  67.0919171  30.4793412   1.3280565  64.1659091
  29.6381419   1.2284439  64.3737985  30.6883420   2.0976045  64.5173412
  30.3858105   1.4272608  64.2486406  39.5933926  -8.0718604  61.6747721
  39.7983519  -8.1396296  62.5204718  39.2660350  -7.2659783  61.6068898
  39.5749174  -7.9632664  61.7907376  34.2910077  -0.7438036  63.4156689
  33.9873215  -1.2982048  64.0167097  33.5889498  -0.5645826  62.9284723
  34.1426287  -0.7993254  63.4326395  33.3476174  -3.4337516  57.9801391
  33.6235908  -4.1518604  57.5678958  33.9474843  -2.8352596  57.7722497
  33.4769439  -3.4517145  57.8882152  32.3528428   6.4711685  68.1228787
  32.2448783   6.4813747  68.9890845  32.5624209   7.2966465  67.9333741
  32.3678539   6.5952760  68.2232878  42.8467614  -7.5186840  61.1550486
  42.2341927  -7.0316438  61.5404218  42.9431788  -8.1943349  61.6988138
  42.7705511  -7.5468531  61.2929345  36.8486695  -5.7623999  56.2547986
  37.3030441  -5.5913438  56.9795830  37.3226740  -6.3755888  55.8545762
  36.9855015  -5.8273113  56.3021747  30.3702220   3.7224327  65.5850724
  29.7790153   4.3633825  65.5553739  31.1323244   4.1461944  65.5582024
  30.3950481   3.8800166  65.5765872  46.4892642   3.5530097  66.5828003
  46.5475765   4.0016746  67.3287979  45.8559109   3.9628910  66.1458083
  46.4043937   3.6803832  66.6280551  40.1291736   9.1733639  63.0182749
  39.9311425   9.6624453  62.3238960  39.5079447   9.3774880  63.5966882
  40.0079301   9.2750177  63.0005972  34.1899715   0.9418536  57.3592993
  34.9341760   1.3292812  57.5975943  34.3360411   0.0975961  57.5233481
  34.3210300   0.8749008  57.4186963  37.1777590  -3.4855991  63.2586912
  36.7037545  -4.0114229  63.7692223  37.5495726  -4.0326518  62.6901774
  37.1627479  -3.6439994  63.2502060  43.4414321   1.5746385  64.6693693
  43.2012544   0.7352800  64.6736119  43.9206328   1.6546551  65.3934466
  43.4766505   1.4627784  64.7768495  39.1061090  -2.5919436  56.3212666
  38.5784109  -2.5090692  55.6318375  39.5656798  -1.8501565  56.3177311
  39.0962941  -2.4698774  56.2187361  45.4419508  -1.6452158  62.6222952
  45.2029278  -1.6856324  61.7843737  45.6053409  -0.7981006  62.7488673
  45.4309812  -1.5260073  62.5176434  42.0465538   2.7397791  68.5527997
  42.7699737   2.2870318  68.3739017  41.7815500   3.0202457  67.7700325
  42.1146811   2.7148760  68.4106713  27.6278082   5.3958425  66.7284641
  27.0978007   4.7050864  66.7779615  27.9003175   5.3868610  65.8997349
  27.5902804   5.2925557  66.6132057  38.6598173   5.9784127  55.4522323
  39.3832371   6.4442240  55.3086897  38.2198764   6.0457737  54.7019920
  38.7013865   6.0567964  55.3207105  37.8284328   2.8381669  66.7023012
  37.2141321   2.2939720  66.9971648  38.3451613   2.3245906  66.2228828
  37.8139990   2.6818078  66.6747241  37.0680625   3.9085939  64.4367311
  36.6408233   3.2835658  64.0032746  37.0605569   3.6260861  65.2626318
  37.0039766   3.7738720  64.4947138  30.1843152  -1.0548888  67.5055745
  30.3436639  -1.8105563  67.9107467  30.0036046  -0.5057948  68.1596483
  30.1808511  -1.0855074  67.6618451  35.3966335  -5.2145306  64.6509845
  35.4208822  -5.7485194  63.9622625  35.6477808  -5.7227997  65.3135435
  35.4376253  -5.3684402  64.6474490  33.8597270   3.0786252  72.1335884
  33.0092900   3.2157966  72.2693529  34.0225397   2.3450030  72.5783585
  33.7581133   2.9900353  72.2191483  33.0982020   0.0286022  66.3289488
  32.2673950   0.1959840  66.1224736  33.0433537  -0.3478027  67.1138374
  32.9671435  -0.0024247  66.4138016  31.4718064  -1.6958386  56.8579606
  31.6121025  -1.1985922  57.5608247  31.9700597  -2.3972092  56.9993820
  31.5659145  -1.7256408  56.9831185  31.5018286  -0.8291275  54.1872183
  32.1363366  -0.2330850  54.1221645  31.5843897  -1.1287818  55.0018053
  31.6074837  -0.7850367  54.2975269  44.4800852   1.7024202  67.0558547
  45.0718692   2.3421453  67.0876745  44.9159847   1.0047239  67.3450614
  44.6319283   1.6942552  67.1039380  36.3094242   6.1241574  67.6816441
  35.8019333   6.6777421  68.1257071  36.0120888   6.1849864  66.8635215
  36.1899127   6.2147886  67.6264898  38.4756424  -5.5105106  66.5241104
  38.9011496  -5.9632580  65.9124630  37.8613417  -6.0645035  66.8005891
  38.4485070  -5.6591130  66.4746129  28.0071274   1.3676565  57.4561729
  28.5163504   1.9641073  57.8373034  28.4805547   1.1002539  56.7738148
  28.1514650   1.4162381  57.4116251  38.9202022  10.0404832  55.6120384
  38.2031332   9.8665694  55.1467622  39.5708760   9.8057404  55.0795870
  38.9103873   9.9800625  55.4649602  41.5049993  -1.0830579  59.3561689
  40.8341183  -0.5400877  59.2274755  42.1989744  -0.6135724  59.1143384
  41.5078861  -0.9332308  59.3017217  35.5536727  11.0566133  64.5873448
  35.3302382  10.2984962  64.9557474  35.0646571  11.0864154  63.8653887
  35.4480176  10.9488357  64.5350189  41.6678121  -4.6274696  62.2652063
  42.0205731  -5.0544973  62.9397861  40.8092922  -4.7123852  62.3953139
  41.5927566  -4.7029955  62.3847073  30.3661806  -1.9967176  60.3234909
  29.6473795  -1.5803044  60.5907773  30.7374168  -1.4312937  59.7726547
  30.3153738  -1.8517895  60.2817716  39.6661387  -1.3639327  66.2136905
  39.6459314  -1.5456032  67.0671684  39.7140588  -0.4927309  66.1896489
  39.6696028  -1.2622789  66.3360200  37.6107717   5.2247865  72.1385381
  37.5703571   4.5797542  71.5530537  38.4231035   5.1684482  72.4510794
  37.7250870   5.1206832  72.0982331  34.2015184  11.2766591  62.0410532
  33.7875583  10.6140721  61.6514374  34.8862558  11.4244449  61.5206227
  34.2413556  11.2007249  61.9067029  37.5680478  10.4356676  62.7934149
  37.1696762  10.5458946  62.0254969  36.9531698  10.6438742  63.3760709
  37.4179368  10.4830244  62.7665448  36.1408380  -2.9569176  55.6608289
  35.5473220  -2.6352180  55.1092856  36.1783658  -3.8028081  55.4529395
  36.0582769  -3.0344848  55.5491060  43.1002181  -9.5056284  63.1936375
  42.5933046 -10.2127144  63.1257553  43.8969615  -9.8363095  63.3237452
  43.1429420  -9.6583133  63.2035370  39.0166197  -2.9989672  59.0910039
  38.7879890  -2.9756970  58.2488397  39.2764273  -3.8232205  59.2105049
  39.0212385  -3.1173592  58.9835237  33.2985425  -1.1455199  68.6935139
  32.7864328  -1.7534016  69.0520170  33.1264922  -0.4298606  69.1609115
  33.1975062  -1.1291899  68.8151363  45.3022321   5.0108643  56.1777240
  45.6855927   5.7599999  56.4075337  44.5066434   5.2574462  55.9189229
  45.2416103   5.1578336  56.1734813  37.1754496  -3.2230954  71.1337395
  37.7325926  -3.4517145  70.5015860  36.8515561  -2.4625288  70.8572607
  37.2100906  -3.1447117  70.9993892  34.8937613  -0.1363301  72.0989402
  35.6448940   0.1788376  72.4128956  35.0860189  -0.3384130  71.2723324
  35.0329027  -0.1195919  72.0232798  34.1137613  -2.3171926  53.7537619
  34.4936577  -2.2992296  52.9688733  33.3730209  -1.8717937  53.6328466
  34.0606450  -2.2490151  53.6201187  41.7422903  -4.0089734  59.3413197
  41.7417130  -4.1641078  60.1997474  41.5379083  -3.1626747  59.2854583
  41.7122681  -3.9069114  59.4601137  39.4663755   0.6707767  62.9949404
  39.9617420  -0.0469238  62.9553424  38.6563531   0.3678565  62.8803891
  39.4207648   0.5205414  62.9723130  34.9122367   4.5205581  55.1446409
  34.1033689   4.1972254  55.0979718  35.4197276   3.8138803  55.0774657
  34.8672033   4.3686897  55.1276703  25.5412644   1.9477774  60.8693773
  24.6758163   1.9363464  60.7576544  25.6411460   1.7607997  61.7164912
  25.4286811   1.9183835  60.9782717  41.5315574   3.4211455  65.6826533
  41.9570646   2.8985877  65.1296958  41.1672494   4.0192292  65.1615156
  41.5402177   3.4321682  65.5235543  31.1669654  11.7175672  64.4423878
  31.4816213  12.5312061  64.4501660  31.5763067  11.3325891  65.1106037
  31.2737752  11.7804375  64.5427970  38.1194173   7.1345719  62.0127690
  38.5905352   7.8485982  62.1817676  38.4554352   6.5344469  62.5487560
  38.2389289   7.1517183  62.1160066  40.2071158   8.7447033  74.1919762
  40.3168124   7.9555593  74.5476510  40.5362055   8.6552969  73.3894100
  40.2723564   8.6152885  74.1262153  38.7568120   6.9263653  68.7755383
  38.2089066   6.3021537  68.5075448  39.2181149   7.1157925  68.0599462
  38.7435329   6.8622703  68.6305814  41.5661984  -5.0050992  66.1606575
  40.9824973  -4.5041786  65.7484143  41.8866278  -5.5121436  65.5270899
  41.5275159  -5.0059157  66.0065082  28.5082674   5.6648781  64.0902487
  29.1127531   5.6244615  63.4616307  28.3009986   6.5119933  64.1206543
  28.5671571   5.7836783  64.0018603  38.3226446   7.9314726  65.3064724
  39.1424820   7.7877692  65.5681019  38.0420524   8.5560925  65.8481162
  38.4023189   8.0025078  65.4252664  23.7433956   4.6483398  63.9601410
  23.6458234   3.8379670  64.2691467  24.5262826   4.6275192  63.5747678
  23.8450093   4.5250489  63.9488273  54.7940096  15.5879578  58.2707600
  54.7634101  16.4424214  58.4425870  55.3921445  15.2874870  58.8293744
  54.8777254  15.6696074  58.3782403  47.9939781  14.6755229  63.0260531
  47.1377677  14.8363727  63.0769648  48.0407435  13.8047293  63.0465592
  47.8738893  14.5706031  63.0366597  42.3780921  24.2117947  58.7897762
  41.6263821  23.8333485  58.5613808  42.8266933  24.2436380  58.0416573
  42.3330588  24.1603554  58.6455265  51.3033498  20.9441754  72.6320987
  52.0100265  20.4493785  72.7607921  51.4921433  21.3850836  71.9023645
  51.4361403  20.9360105  72.5430032  47.8305881  24.6343316  54.2183310
  47.4957249  25.3120238  53.7827532  48.3432751  24.2448627  53.6300181
  47.8571462  24.6767894  54.0670101  47.3710172  26.5857585  60.1594421
  47.7549552  27.1544483  59.6199196  47.3069313  25.8607095  59.6800237
  47.4183599  26.5633048  60.0088284  50.8391602  16.7347273  65.6692183
  51.3847562  17.4132359  65.7286152  50.7808479  16.5934733  64.8093764
  50.9107517  16.8139274  65.5504243  43.9565677  24.2236339  61.0560535
  44.0576040  23.4136693  61.3657663  43.3607422  24.1293285  60.4260213
  43.8838216  24.0901367  61.0086773  52.6156671  18.1631880  56.5425910
  52.4996197  18.9139566  56.9718048  53.4112558  17.9055833  56.7921997
  52.7161260  18.2366727  56.6430002  43.7966417  29.1413928  62.4575391
  44.4403872  29.5827092  62.8471549  44.1222672  28.3367354  62.3705650
  43.9398245  29.0879123  62.5020868  37.1530721  20.2456625  60.6812869
  36.9180906  19.4124278  60.5745137  37.2916362  20.5261291  59.8674070
  37.1386384  20.1640129  60.5455224  39.4520809  12.4142356  63.5797176
  38.8325841  11.8235003  63.4107191  39.3504673  13.0053791  62.9461500
  39.3458484  12.4146438  63.4602166  44.4986997  22.1525903  57.8295253
  44.8202838  22.6931110  57.2256561  45.1459093  21.5822674  57.9617543
  44.6413052  22.1485078  57.7602288  46.5488705  14.1541898  57.9129639
  47.2468869  14.3330025  58.4051103  46.8641037  13.6312237  57.2900029
  46.6984042  14.1035670  57.8931650  39.1789942  15.9594638  65.8240745
  39.0548639  16.5457083  66.4590564  39.8308226  15.4654833  66.1253020
  39.2563591  15.9733442  65.9626675  46.7376640  20.5412343  57.9009431
  47.1770275  19.9329443  58.3464204  46.5881303  20.1619716  57.1294896
  46.7798106  20.3950814  57.8528598  44.2048283  19.1356355  65.1028256
  44.8497285  18.6428798  64.7839205  44.4450060  19.2781141  65.9294335
  44.3358868  19.0833797  65.1777790  46.7434374  21.9811260  64.7535149
  47.0257617  21.1862666  64.5321905  47.4720535  22.4591848  64.7740210
  46.8923938  21.9345857  64.7238164  44.7215568   9.5234294  61.9950914
  44.3918898   9.9745438  61.3254613  44.0460570   9.4450458  62.5423921
  44.5726004   9.5785430  61.9774137  50.3385977  18.8939524  54.8540200
  50.2537272  19.7500491  54.9989769  50.8270360  18.6183848  55.5222359
  50.3974874  18.9796845  54.9742282  51.9291976   5.5119817  60.2400525
  51.6145417   6.2023296  60.6720947  51.4118918   5.4564599  59.5386025
  51.8056446   5.6054706  60.1997474  51.2704410  15.5124318  56.3537935
  50.7415881  15.7283952  57.0135241  51.7929430  16.2060457  56.2738905
  51.2692863  15.6467455  56.4393534  56.7252463  21.0870623  61.7270980
  55.8950166  21.2981266  61.8904396  56.6761715  20.2607677  61.4513263
  56.5959198  20.9960229  61.7108345  43.1604018  19.4087535  55.1545403
  42.5761233  19.9137566  55.5611267  42.7574113  19.1829922  54.4141995
  43.0143321  19.4495783  55.1050428  38.7148046  25.1242296  61.9569075
  38.2315624  25.8492786  61.9328658  39.5271364  25.4218426  62.0679233
  38.7638794  25.2744650  61.9696354  44.7862200  23.9174477  64.5618889
  44.2689142  23.5581892  63.9580197  45.4836591  23.3936651  64.5724955
  44.8127781  23.7872165  64.4749148  48.4425792  24.3669291  70.5235062
  48.5309138  24.1795431  71.3713273  48.8715505  23.7206720  70.1239909
  48.5187895  24.2432299  70.5906814  46.0096252  23.6500451  69.5052724
  45.4467087  23.2373061  70.0292386  46.7717275  23.5753356  69.9245868
  46.0390701  23.5777851  69.6445725  47.6181232  15.6553187  53.6314324
  47.8577236  15.8631171  52.8189667  47.9397073  14.8510696  53.7403268
  47.7018390  15.5667288  53.5274877  42.9271522   7.5846583  57.4773862
  43.6817490   7.9524900  57.2390912  42.7499057   7.9586137  58.2453041
  43.0126001   7.6944771  57.5558750  41.5692243  25.6398472  62.1089355
  42.2712823  25.1250461  62.1662111  41.4889727  25.9672623  62.9136230
  41.6616004  25.6112698  62.2362147  56.2206421  13.7341023  65.5221401
  55.3834842  13.8043210  65.7568996  56.1894652  13.7365518  64.6495703
  56.0924703  13.7451250  65.4280949  42.6171150  15.8774059  71.2369770
  42.7891654  15.7679954  72.0855051  43.1540507  16.5228464  71.0000962
  42.7216154  15.9566061  71.3274866  41.2828587   9.9916902  54.1751975
  41.1004160  10.2088783  53.3492968  42.1454200  10.1055914  54.2310589
  41.3833176  10.0406800  54.0606462  40.8943019  21.8304824  61.6174963
  41.7331918  22.0627757  61.6648724  40.9254788  20.9609135  61.5481998
  41.0224736  21.7361770  61.6139607  41.5195722  22.2505699  65.9188268
  42.0593947  22.1076830  66.5891641  40.8365668  22.6502450  66.2872294
  41.4987876  22.2885370  66.0722690  46.9628306   6.9943312  57.2100999
  47.6914467   6.8159267  56.7639155  47.0523199   7.8361392  57.4208177
  47.0834968   7.0927191  57.1754516  50.9436607  17.9296700  61.1133293
  51.6994122  18.3628214  61.1522201  51.0498931  17.2801470  61.6867929
  51.0706777  17.8974184  61.2031318  53.9816778  21.7569977  61.8635696
  53.5452010  21.7606719  62.6194667  53.6479693  22.4375476  61.4315273
  53.8679398  21.8582433  61.9116528  48.5545851  23.7978310  73.1878846
  49.3386268  23.9109158  73.5534588  48.3542446  22.9719447  73.3837532
  48.6411877  23.6925029  73.2713232  36.9232867  18.4705990  66.0722690
  36.6571282  17.6545107  66.2313680  36.9371431  18.5159145  65.2018205
  36.8857589  18.3562895  65.9676172  53.9014261   8.7983805  64.1065123
  54.5440169   8.8681909  64.6927039  54.1537281   8.1313028  63.6044665
  54.0336393   8.7110154  64.1192403  40.8290614  13.2691074  52.6874448
  40.1148791  12.9829254  53.0996880  41.3134583  13.6087700  53.3280835
  40.7949977  13.2772724  52.8430083  41.6731473  12.0084368  68.7189697
  40.9803270  11.5381348  68.9650429  42.2891801  11.7822673  69.2931405
  41.6616003  11.9051500  68.8398850  48.7116245  25.7088412  66.8345301
  47.9131491  25.4687912  67.0919170  49.1602256  25.7602805  67.5812349
  48.6590856  25.6810803  66.9830226  57.1161124  18.4750897  60.7555333
  57.7777558  17.9141565  60.6551241  56.4752536  17.9802928  61.0808024
  57.1189992  18.3187306  60.7887673  48.0037932  21.7721028  53.0636256
  48.4189080  21.4406052  52.3720752  47.1729861  21.5389931  52.9356393
  47.9425941  21.6892284  52.9427103  37.3326281  19.2564769  63.3534434
  37.1501854  19.2311655  62.5006726  38.0675950  19.7263707  63.3923343
  37.4140344  19.3226132  63.2332352  53.4025955  19.4916279  60.4967322
  53.6381544  19.6361478  59.6694172  53.5515518  20.2558687  60.8898835
  53.4591758  19.6255334  60.4330925  40.3972032  15.9749772  69.8616543
  41.1212005  15.9602803  70.3481437  40.4988169  16.6845127  69.3638511
  40.5190241  16.0774475  69.8595329  55.2316412  18.3317945  58.3336925
  55.5624629  18.8645585  57.7277020  55.8049500  18.3856833  58.9898876
  55.3650091  18.4187514  58.3414707  47.7716982  19.4548857  74.7265490
  46.9789962  19.7692369  74.9118109  47.8865909  19.6700325  73.8886274
  47.6712392  19.5332694  74.6303824  50.4448301  16.1782848  59.0160505
  50.5395155  16.9172142  59.4700131  49.8207144  15.7500323  59.4495070
  50.3657331  16.2244169  59.1468653  48.7000774  19.3569061  69.6650786
  49.2739636  18.7196305  69.8199350  48.6215578  19.3573143  68.7960444
  48.7734009  19.2634172  69.5597197  37.2997191  16.1358270  63.5033501
  37.8770694  15.9994721  64.1425746  36.6011253  15.6794054  63.7579085
  37.2818212  16.0480536  63.6355790  50.6971322  18.0231588  52.2497457
  50.6151484  18.0933775  53.1152444  51.3351042  18.5861332  52.0581198
  50.7791159  18.1170559  52.3487407  44.0564493  17.7892326  61.7171984
  43.7983737  16.9564061  61.6903283  44.1112976  18.0149939  60.8764484
  44.0264271  17.6990097  61.5892121  49.1365543   9.8920776  61.8176076
  48.4321870   9.4029962  61.9759996  49.1850518   9.9043251  60.9464521
  49.0395595   9.8210424  61.7115416  43.0299205  15.3430088  62.2036879
  42.4548797  15.5022257  62.8400839  42.6534882  14.7065497  61.7405329
  42.8902018  15.2727901  62.2291437  46.6972494  13.8153437  67.0629257
  46.3086927  13.3907655  66.4081448  46.0327192  14.0635587  67.5706284
  46.5419422  13.7892159  67.0417125  56.3395763  13.5728442  59.8377087
  56.0832328  12.7608384  59.6474970  57.1825077  13.5806009  59.6107274
  56.4261788  13.4540440  59.7761904  32.7756024  14.9870163  60.2181319
  32.8616276  14.6102031  60.9994849  33.4031822  14.6130609  59.7401277
  32.8812575  14.8755645  60.2626796  50.5198855   7.5128066  64.5753241
  50.9009367   6.8306237  64.9621115  49.7162140   7.2237668  64.3928906
  50.4575317   7.3695115  64.6057297  47.8011432  18.0452042  55.2606064
  48.6152071  18.3366935  55.1488835  47.7370573  17.3911904  54.6864357
  47.9114171  17.9917237  55.1594901  54.0220922  20.7278038  69.6735640
  53.7859560  19.8966103  69.5547700  54.6664151  20.6763645  70.2590484
  54.0815593  20.5975726  69.7421533  43.6719340  21.5173559  60.3878376
  44.3093287  21.2785307  60.9330169  44.0974412  21.7210718  59.6531537
  43.8295507  21.5124570  60.3595533  38.3631983  23.7561896  64.2712680
  38.4036128  24.0276747  63.4432459  38.9226507  24.2803804  64.6870468
  38.4515329  23.8737651  64.2104568  44.3122155  16.7375849  54.7253265
  44.6967308  16.5183556  55.4769811  44.0633776  17.5638795  54.8554342
  44.3324228  16.8273996  54.8554342  44.4790696  10.0182264  74.4415850
  44.1644137  10.7881827  74.1785412  44.1580628   9.4552520  73.8568077
  44.3849615  10.0492533  74.3157200  55.0457343  20.5122487  65.7363934
  54.7403160  21.2450544  66.0977250  54.3263559  20.1060416  65.4556720
  54.8944685  20.5604220  65.7477071  46.0540812  21.9945982  62.0672162
  46.1279821  21.8321154  62.9214012  46.8710319  22.1836172  61.8232644
  46.1857171  21.9982724  62.1570188  60.7459135  17.1515488  65.0632278
  60.6783635  17.1711447  64.1934865  60.7314797  17.9945815  65.2887949
  60.7337892  17.2789222  64.9684755  39.8146569  22.3403845  59.0966606
  38.9884687  22.5865582  58.9700885  39.8758560  22.2615926  59.9628664
  39.7020736  22.3648794  59.2055550  42.0322593   8.4072786  60.0562046
  41.1645018   8.4795385  60.1219655  42.3197797   9.2094865  60.2450021
  41.9462341   8.5366933  60.0936813  51.1555482   8.5550645  68.3873368
  51.9009074   8.3660456  67.9736793  50.7392786   9.0808883  67.8287224
  51.2040456   8.6052791  68.2437941  44.5945398  24.9580725  56.7985636
  44.8843696  24.5669707  56.0744862  45.3248879  25.1397430  57.2390911
  44.7452282  24.9274539  56.7568443  58.5317752  15.9259874  63.3378873
  59.0825674  15.2927943  63.5775965  58.5161868  16.4575267  64.0294377
  58.6102949  15.9108822  63.4757731  45.1840143  19.7598471  67.8838766
  44.6851837  20.4714239  67.9623655  45.9940368  20.0799138  67.8456929
  45.2296250  19.9125320  67.8895335  42.5351314  26.9348108  59.8645785
  42.3151609  26.6445462  60.6572452  42.3145836  26.2763063  59.3363698
  42.4698908  26.7947816  59.9034694  41.4468261  19.0221424  62.1301487
  41.1581509  18.3958895  62.6647214  42.3151609  18.9641712  62.1966168
  41.5328513  18.9208968  62.2192442  52.2346159  14.1656207  62.4483469
  51.8910925  13.4446543  62.7990719  52.3339201  13.9570059  61.6061827
  52.1988201  14.0280411  62.3755149  44.7019269  28.3077498  58.6476478
  45.3543327  27.7753940  58.8767504  44.0044878  27.9546150  59.0344352
  44.6949987  28.1767021  58.7388646  41.6500534  20.6616675  58.0543852
  42.4046502  21.0429714  58.2679315  41.0571147  21.1127819  58.5090549
  41.6737248  20.7845503  58.1526731  52.6959188  20.6281912  57.9907457
  53.2617220  21.2875121  57.9066000  52.0487091  20.9731610  58.4623859
  52.6837944  20.7763853  58.0480214  44.1107201  12.6179516  73.1801064
  43.3006977  12.9237295  73.0690907  44.5881888  13.3385098  73.2953649
  44.0610680  12.7694117  73.1808136  42.9698761  21.8325236  63.4283968
  42.4479514  21.9725528  64.1135832  43.3572781  21.0735901  63.6186085
  42.9502462  21.7410760  63.5585044  39.9589945  11.8831045  57.4978922
  39.6714741  11.5132316  56.7610870  40.6460413  12.3525901  57.2362627
  40.0178842  11.8978015  57.3493998  49.1665766  23.5720696  57.4144536
  48.9252442  22.8388556  57.0071601  49.3467099  24.1207553  56.7610870
  49.1573390  23.5443087  57.2574759  44.3965086  18.8629256  58.8265459
  44.2007869  19.4703990  58.2325762  44.6199432  18.1697200  58.3457133
  44.3999727  18.8506781  58.6681539  42.7943616  15.7483993  58.9446327
  43.5166268  15.9125152  58.4850133  42.3151609  16.4693658  58.8385667
  42.8307347  15.8782223  58.8611941  50.7537124  12.0847792  64.3243012
  49.9148225  12.1109071  64.0881275  50.8241491  12.7318528  64.9048358
  50.6405518  12.1843918  64.3752129  40.4451233  18.1542066  68.0500467
  40.9572330  18.4326319  67.4009227  40.1587576  18.8931360  68.4163280
  40.4786096  18.3044420  68.0090345  49.2006402   8.9833169  59.0570628
  49.9032755   8.7840918  58.5790586  48.9350591   8.2109112  59.3639471
  49.2653035   8.8396135  59.0316069  54.6294648  17.2915779  61.6104254
  54.5428622  17.4471205  62.4639032  54.1745128  17.9353855  61.2363659
  54.5497905  17.4091534  61.6811360  37.5318139  12.6612258  58.3464203
  37.6334276  13.4638419  58.6745179  38.3274026  12.4599594  58.0487284
  37.6646045  12.7498156  58.3499559  43.9634959  10.2468454  68.1101508
  43.7718156  10.2623589  68.9600932  44.8133555  10.4432129  68.0868163
  44.0610680  10.2782806  68.2324803  38.3481872  12.7759436  66.0885325
  38.2067363  11.9243377  66.2129833  38.6322435  12.8188097  65.2647531
  38.3689718  12.6559186  65.9852949  48.5020464  14.6126526  60.2329813
  48.2555178  14.5322277  61.0666602  48.8305587  13.8279994  60.0392341
  48.5141708  14.4852791  60.3277336  52.3968513  21.3209885  64.0216594
  52.2582872  22.0190931  64.5265337  51.6168511  21.1658542  63.6652776
  52.2611740  21.4010052  64.0442869  50.7346598  17.6206261  70.2738976
  50.7294636  16.7486077  70.2781403  51.4407592  17.8194430  69.8008432
  50.8391602  17.5210135  70.2046011  44.4617491  17.3483245  69.6452796
  44.6060867  17.9284453  69.0095906  44.8093140  17.7259541  70.3502651
  44.5344953  17.4903949  69.6551791  46.6337409  16.5473413  67.4277928
  45.8860723  16.7404427  67.0226206  46.7878934  15.7218633  67.1902049
  46.5459836  16.4538524  67.3323334  43.5345246  25.5386017  66.5113823
  43.6834810  24.9788932  65.8587227  44.3145248  25.6178018  66.8946342
  43.6719340  25.4671582  66.4710772  53.8921886  20.6788139  54.7833094
  53.5128694  19.8925277  54.7762383  53.2288131  21.2274996  54.6404738
  53.7380360  20.6432963  54.7613890  46.0598547  25.7100659  67.7898314
  45.9842218  25.0409470  68.3449102  45.9888406  26.4118448  68.3038980
  46.0379154  25.7145567  67.9475162  46.8739186  10.4423964  68.3173332
  47.3311800  11.1747938  68.4446124  46.9495514  10.0190429  69.0760587
  46.9530155  10.4881202  68.4474408  39.1172177  10.6889784  69.4062775
  38.5814366  10.0770142  69.7223543  39.1789942  11.2637920  70.0596442
  39.0467809  10.6836711  69.5498202  51.3466512   3.6213839  62.1867174
  51.4650080   4.0790302  61.4534477  51.1728687   2.8159100  61.9003392
  51.3385683   3.5707611  62.0368108  46.7168794  24.2301658  58.6221920
  47.4818685  23.9611302  58.3004584  46.6146884  23.7451669  59.3391983
  46.8150289  24.1191223  58.6801747  44.7521564  12.4326068  65.1615156
  43.9617638  12.2517528  65.4832491  45.1482186  11.6553020  65.1445450
  44.6938440  12.2913529  65.2067704  49.2387454  21.2613842  50.6021869
  50.0060439  21.3213967  50.1927721  48.7918763  20.6894283  50.1178188
  49.2860882  21.1850418  50.4699579  50.1365250  20.0668498  62.8874601
  49.4610252  19.8353730  63.3887988  50.1457626  19.4589681  62.2616706
  50.0383754  19.9427423  62.8690754  47.2659394  14.9086327  69.6438654
  47.2018535  15.7696283  69.5158791  47.4056582  14.5918320  68.8434206
  47.2774864  14.9886493  69.5066867  52.1381984  22.9233630  55.1184779
  52.2201822  23.7300616  54.7946230  52.6231727  22.9429589  55.8425553
  52.2219142  23.0454293  55.1771678  45.9478488  17.6018466  63.7854857
  45.5240737  17.8022965  63.0493876  45.7723343  16.7547314  63.8979157
  45.8589368  17.5067248  63.6928547  45.4490181  29.1168979  66.2476315
  45.9386111  28.4179768  66.0651979  44.8774413  28.8192849  66.8352372
  45.4374711  28.9695203  66.3077355  41.2360933  18.0970518  59.2182830
  41.3925552  18.0317320  60.0738822  41.5761526  18.8719070  59.0061510
  41.3094168  18.2019716  59.3137424  47.7740077  17.4728401  58.0876193
  48.3155623  16.9698782  58.5514814  48.0886636  17.4193596  57.2765678
  47.9004474  17.3907822  58.0360005  51.6457185  21.6831049  75.2003105
  52.4592050  21.4116197  75.3608238  51.4852151  21.3838589  74.3963301
  51.7427133  21.5985975  75.1048511  45.9426527  22.8645753  55.3716221
  46.0119347  22.0060291  55.5109222  46.7214982  23.0817634  55.0435246
  46.0679377  22.7698617  55.3433378  48.9229347  12.3664706  68.1398494
  49.1371316  11.7275620  67.5861848  48.3063246  12.8110530  67.7106355
  48.8634676  12.3374849  67.9948925  50.3334015  25.2883454  59.5852714
  49.9413806  24.9850169  58.8675581  50.4887087  26.1252544  59.3957668
  50.2987604  25.3667291  59.4509212  37.8095194  15.2805468  59.5343597
  38.1894159  15.6990013  58.8703864  37.2350559  15.8618924  59.8412440
  37.7806519  15.4283327  59.4820338  51.0868435  13.9753771  69.0781801
  50.2745116  13.6679661  69.1594973  51.5458369  13.4952771  69.6424513
  51.0348819  13.8590263  69.1736395  50.4973689  21.8533443  59.5258745
  50.1388344  22.0248086  60.3022777  50.0112400  22.3146649  58.9686743
  50.3732386  21.9472414  59.5584014  48.3144075   5.4764641  63.1285836
  47.4437633   5.4503362  63.0819146  48.5684417   5.3041834  62.3111682
  48.2237635   5.4474785  63.0005973  45.2862055  17.5332608  52.0658979
  45.5754580  18.3097491  52.3402554  45.3733854  17.0221340  52.7673479
  45.3416311  17.5724527  52.2101477  48.1821942  15.3813842  73.8610503
  48.6521573  16.0055959  74.2478377  48.2283822  14.7130818  74.4203718
  48.2589818  15.3748523  74.0010574  45.3393216   7.4870870  64.5859307
  44.8231704   6.7951061  64.7110886  44.7787145   8.1541647  64.5321905
  45.1799729   7.4834127  64.5965373  47.4085449   8.0263830  66.4152159
  47.0217202   8.0512861  67.1965689  46.9218387   7.4605508  65.9626676
  47.2797958   7.9459581  66.4640063  51.6578429  22.7437339  70.4725946
  52.2958149  22.2497534  70.1388402  51.0152520  22.6714739  69.8878173
  51.6572655  22.6596347  70.3368301  53.3835429  14.5926485  65.0391861
  52.9563037  14.5052833  64.2839961  52.7461482  14.7004260  65.6246706
  53.2265036  14.5959145  65.0137303  47.0742591   4.9130815  68.7062419
  47.7035709   5.4491115  68.4283490  47.2428454   4.8208174  69.5575985
  47.1920386   4.9792178  68.7910947  46.8756506   9.7002010  70.9788831
  47.7029935   9.4287159  71.0347445  46.8964352  10.4962852  71.3352649
  47.0009356   9.7781764  71.0404014  51.7132685  23.4357147  67.1131303
  52.5025063  23.0846212  67.2333384  51.8876283  24.2493536  66.8507936
  51.8552967  23.5043004  67.0919171  41.4525996  16.8465873  64.1659091
  40.6114002  16.7469747  64.3737985  41.6616004  17.6161353  64.5173412
  41.3590688  16.9457916  64.2486406  38.9301563  14.4685410  61.9943842
  38.5358260  14.5428422  61.2193952  38.3741680  14.8543356  62.5452204
  38.7904375  14.5367184  61.9611502  50.5666509   7.4466704  61.6747721
  50.7716103   7.3789012  62.5204718  50.2392933   8.2525525  61.6068898
  50.5481757   7.5552644  61.7907376  45.2642661  14.7747272  63.4156689
  44.9605798  14.2203260  64.0167097  44.5622081  14.9539482  62.9284723
  45.1158870  14.7192054  63.4326395  44.3208758  12.0847792  57.9801391
  44.5968492  11.3666704  57.5678958  44.9207427  12.6832712  57.7722497
  44.4502022  12.0668163  57.8882152  43.3261012  21.9896993  68.1228787
  43.2181366  21.9999055  68.9890845  43.5356793  22.8151773  67.9333741
  43.3411123  22.1138068  68.2232878  53.8200197   7.9998468  61.1550486
  53.2074511   8.4868870  61.5404218  53.9164372   7.3241959  61.6988138
  53.7438095   7.9716777  61.2929345  47.8219278   9.7561309  56.2547986
  48.2763025   9.9271870  56.9795830  48.2959324   9.1429420  55.8545762
  47.9587598   9.6912194  56.3021747  41.3434804  19.2409635  65.5850724
  40.7522737  19.8819133  65.5553739  42.1055827  19.6647252  65.5582024
  41.3683064  19.3985474  65.5765872  41.7395426  10.4011633  66.2518742
  42.1996908  10.4750562  66.9893866  41.7851533  11.1992887  65.9018563
  41.8145982  10.5305780  66.3091498  43.3878776  11.0678328  70.8190769
  42.9964341  10.4211675  71.2546547  43.5564639  11.6589763  71.4385024
  43.3549686  11.0592596  70.9753475  57.4625225  19.0715405  66.5828003
  57.5208349  19.5202054  67.3287979  56.8291693  19.4814218  66.1458083
  57.3776520  19.1989139  66.6280551  51.1024320  24.6918947  63.0182749
  50.9044008  25.1809761  62.3238960  50.4812031  24.8960188  63.5966882
  50.9811884  24.7935485  63.0005972  45.1632298  16.4603844  57.3592993
  45.9074343  16.8478120  57.5975943  45.3092994  15.6161269  57.5233481
  45.2942883  16.3934316  57.4186963  47.0811874   8.2554102  62.3924854
  46.2347919   8.4276910  62.2666204  47.0783006   7.4503446  62.7290683
  46.9559024   8.1615131  62.4235981  48.1510174  12.0329317  63.2586912
  47.6770128  11.5071079  63.7692223  48.5228310  11.4858790  62.6901774
  48.1360063  11.8745313  63.2502060  38.5283204  14.0300824  68.6270458
  39.3908817  13.9296533  68.5407788  38.1974987  13.4495533  68.0656030
  38.6068401  13.9292450  68.5315864  54.4146905  17.0931693  64.6693693
  54.1745127  16.2538108  64.6736119  54.8938912  17.1731859  65.3934466
  54.4499088  16.9813092  64.7768495  50.0793674  12.9265871  56.3212666
  49.5516692  13.0094615  55.6318375  50.5389382  13.6683743  56.3177311
  50.0695524  13.0486534  56.2187361  56.4152092  13.8733150  62.6222952
  56.1761862  13.8328984  61.7843737  56.5785993  14.7204302  62.7488673
  56.4042395  13.9925235  62.5176434  53.0198122  18.2583099  68.5527997
  53.7432321  17.8055625  68.3739017  52.7548084  18.5387765  67.7700325
  53.0879395  18.2334068  68.4106713  41.8884990  12.8543273  65.2880876
  41.2638060  12.8661665  64.6806829  41.5530585  13.3303448  65.9372117
  41.7470482  12.9261790  65.2937445  42.0726739  11.1968391  51.3453561
  41.7239543  11.8488116  51.8085111  41.5923185  11.1825504  50.6177433
  41.9496983  11.2911445  51.3064653  38.6010666  20.9143733  66.7284641
  38.0710590  20.2236172  66.7779615  38.8735759  20.9053918  65.8997349
  38.5635388  20.8110864  66.6132057  49.6330756  21.4969435  55.4522323
  50.3564955  21.9627548  55.3086897  49.1931347  21.5643045  54.7019920
  49.6746448  21.5753272  55.3207105  48.8016911  18.3566977  66.7023012
  48.1873904  17.8125028  66.9971648  49.3184196  17.8431214  66.2228828
  48.7872574  18.2003386  66.6747241  48.0413208  19.4271247  64.4367311
  47.6140816  18.8020966  64.0032746  48.0338153  19.1446169  65.2626318
  47.9772350  19.2924028  64.4947138  41.1575736  14.4636420  67.5055745
  41.3169222  13.7079745  67.9107467  40.9768629  15.0127360  68.1596483
  41.1541094  14.4330234  67.6618451  49.0996038   6.6297656  68.0606534
  48.6036600   6.8261330  67.3698101  49.8565101   7.0290324  67.8895336
  49.1382863   6.7175390  67.9326671  46.3698918  10.3040002  64.6509845
  46.3941405   9.7700114  63.9622625  46.6210392   9.7957311  65.3135435
  46.4108837  10.1500906  64.6474490  33.8806508  17.5871497  64.0852989
  33.7749957  17.5418341  63.2205073  33.1306728  17.9325277  64.3667274
  33.7542111  17.6312405  63.9990319  42.6500240   9.0310820  64.0315589
  42.6898612   9.5320027  64.7450297  41.8249905   9.1221214  63.7621512
  42.5339766   9.1192636  64.0966127  44.8329853  18.5971560  72.1335884
  43.9825484  18.7343274  72.2693529  44.9957981  17.8635338  72.5783585
  44.7313717  18.5085661  72.2191483  44.0714604  15.5471330  66.3289488
  43.2406533  15.7145148  66.1224736  44.0166121  15.1707281  67.1138374
  43.9404019  15.5161061  66.4138016  41.8798387   9.0380223  71.9645899
  42.5051090   8.4942356  72.2375331  41.4248867   8.5575140  71.3953689
  41.9046648   8.8869704  71.9207493  42.4450648  13.8226921  56.8579606
  42.5853609  14.3199386  57.5608247  42.9433180  13.1213216  56.9993820
  42.5391728  13.7928900  56.9831185  42.4750870  14.6894032  54.1872183
  43.1095949  15.2854458  54.1221645  42.5576481  14.3897490  55.0018053
  42.5807421  14.7334941  54.2975269  55.4533436  17.2209510  67.0558547
  56.0451276  17.8606761  67.0876745  55.8892430  16.5232547  67.3450614
  55.6051867  17.2127860  67.1039380  44.0529853  10.6208008  54.1617625
  44.3745694  10.1411090  53.5076887  44.3156797  11.4307654  53.9708436
  44.1395878  10.6697906  54.0373117  47.2826826  21.6426882  67.6816441
  46.7751917  22.1962729  68.1257071  46.9853472  21.7035172  66.8635215
  47.1631711  21.7333193  67.6264898  49.4489008  10.0080202  66.5241104
  49.8744079   9.5552728  65.9124630  48.8346001   9.4540273  66.8005891
  49.4217653   9.8594178  66.4746129  38.9803858  16.8861873  57.4561729
  39.4896087  17.4826381  57.8373034  39.4538130  16.6187847  56.7738148
  39.1247233  16.9347689  57.4116251  49.8934606  25.5590140  55.6120384
  49.1763916  25.3851002  55.1467622  50.5441343  25.3242712  55.0795870
  49.8836456  25.4985932  55.4649602  47.8883231   6.4795302  59.9331681
  47.2451549   6.3292948  60.5016819  47.5482638   6.2337647  59.1680785
  47.7428308   6.4207424  59.9034696  52.4782577  14.4354728  59.3561689
  51.8073767  14.9784431  59.2274755  53.1722327  14.9049584  59.1143384
  52.4811445  14.5853000  59.3017217  46.5269311  26.5751440  64.5873448
  46.3034965  25.8170270  64.9557474  46.0379154  26.6049462  63.8653887
  46.4212760  26.4673665  64.5350189  52.6410705  10.8910612  62.2652063
  52.9938315  10.4640335  62.9397861  51.7825506  10.8061456  62.3953139
  52.5660149  10.8155353  62.3847073  41.3394390  13.5218132  60.3234909
  40.6206379  13.9382264  60.5907773  41.7106752  14.0872371  59.7726547
  41.2886321  13.6667413  60.2817716  50.6393970  14.1545981  66.2136905
  50.6191898  13.9729276  67.0671684  50.6873171  15.0257999  66.1896489
  50.6428611  14.2562519  66.3360200  48.5840300  20.7433173  72.1385381
  48.5436155  20.0982850  71.5530537  49.3963618  20.6869790  72.4510794
  48.6983454  20.6392140  72.0982331  45.1747768  26.7951899  62.0410532
  44.7608166  26.1326029  61.6514374  45.8595142  26.9429757  61.5206227
  45.2146139  26.7192557  61.9067029  48.5413062  25.9541984  62.7934149
  48.1429345  26.0644254  62.0254969  47.9264281  26.1624050  63.3760709
  48.3911951  26.0015552  62.7665448  47.1140964  12.5616132  55.6608289
  46.5205803  12.8833128  55.1092856  47.1516242  11.7157227  55.4529395
  47.0315353  12.4840460  55.5491060  54.0734765   6.0129024  63.1936375
  53.5665629   5.3058164  63.1257553  54.8702198   5.6822213  63.3237452
  54.1162004   5.8602175  63.2035370  49.9898780  12.5195636  59.0910039
  49.7612474  12.5428338  58.2488397  50.2496857  11.6953103  59.2105049
  49.9944969  12.4011716  58.9835237  44.2718009  14.3730109  68.6935139
  43.7596912  13.7651292  69.0520170  44.0997505  15.0886702  69.1609115
  44.1707646  14.3893409  68.8151363  39.1183724  12.8167685  71.3437501
  38.9486314  13.4769059  70.7985708  38.6749674  13.0274246  72.0649990
  39.0283057  12.9453667  71.3699130  43.0443543  11.0572183  60.3864235
  43.5200909  11.4189262  59.7514416  42.5432143  11.7128650  60.6664377
  43.0408902  11.2066371  60.3340976  56.2754905  20.5293951  56.1777240
  56.6588510  21.2785307  56.4075337  55.4799018  20.7759770  55.9189229
  56.2148687  20.6763644  56.1734813  48.1487079  12.2954354  71.1337395
  48.7058509  12.0668163  70.5015860  47.8248144  13.0560020  70.8572607
  48.1833489  12.3738191  70.9993892  36.0185788  15.7214550  66.6025991
  35.4712508  15.0515196  66.7206859  36.8078166  15.3544398  66.6669458
  36.0537972  15.5679537  66.6294691  45.8670197  15.3822007  72.0989402
  46.6181524  15.6973684  72.4128956  46.0592773  15.1801178  71.2723324
  46.0061611  15.3989389  72.0232798  45.0870196  13.2013382  53.7537619
  45.4669161  13.2193011  52.9688733  44.3462792  13.6467371  53.6328466
  45.0339034  13.2695157  53.6201187  52.7155487  11.5095573  59.3413197
  52.7149713  11.3544230  60.1997474  52.5111667  12.3558561  59.2854583
  52.6855265  11.6116194  59.4601137  34.7772758  14.9335358  63.7572014
  34.5994519  14.4811967  64.4826929  34.4891780  15.7361519  63.9410491
  34.7085711  14.9857916  63.8915517  50.4396339  16.1893075  62.9949404
  50.9350004  15.4716070  62.9553424  49.6296114  15.8863873  62.8803891
  50.3940232  16.0390722  62.9723130  45.8854950  20.0390889  55.1446409
  45.0766273  19.7157562  55.0979718  46.3929859  19.3324111  55.0774657
  45.8404617  19.8872205  55.1276703  36.5145228  17.4663082  60.8693773
  35.6490747  17.4548772  60.7576544  36.6144043  17.2793305  61.7164912
  36.4019394  17.4369143  60.9782717  52.5048158  18.9396763  65.6826533
  52.9303229  18.4171185  65.1296958  52.1405077  19.5377600  65.1615156
  52.5134760  18.9506990  65.5235543  42.1402237  27.2360980  64.4423878
  42.4548796  28.0497369  64.4501660  42.5495651  26.8511199  65.1106037
  42.2470335  27.2989683  64.5427970  49.0926757  22.6531027  62.0127690
  49.5637935  23.3671290  62.1817676  49.4286936  22.0529777  62.5487560
  49.2121872  22.6702491  62.1160066  51.1803742  24.2632340  74.1919762
  51.2900707  23.4740901  74.5476510  51.5094638  24.1738277  73.3894100
  51.2456147  24.1338193  74.1262153  46.0096252   7.4258498  68.9685785
  46.1424158   6.6289491  69.2966761  46.3941405   7.9524901  69.5484061
  46.0852581   7.3858414  69.1029288  49.7300703  22.4448961  68.7755383
  49.1821649  21.8206845  68.5075448  50.1913732  22.6343233  68.0599462
  49.7167913  22.3808011  68.6305814  49.0828607   4.3488824  65.5666878
  48.2774571   4.2386553  65.8834717  48.9535343   4.4501279  64.7096744
  48.9448740   4.3472494  65.4874919  52.5394568  10.5134316  66.1606575
  51.9557557  11.0143522  65.7484143  52.8598862  10.0063872  65.5270899
  52.5007743  10.5126151  66.0065082  45.0789367   9.4274910  56.4365250
  45.9005061   9.5973223  56.1946945  44.6159018   9.5822171  55.7131548
  45.1320529   9.4756643  56.2936894  43.6684699   7.4217673  67.2163679
  44.2129112   7.0808800  67.8068021  43.7221634   8.2803134  67.3584963
  43.7573818   7.4972932  67.3245552  39.4815258  21.1834089  64.0902487
  40.0860115  21.1429923  63.4616307  39.2742570  22.0305241  64.1206543
  39.5404155  21.3022091  64.0018603  49.2959030  23.4500034  65.3064724
  50.1157403  23.3063000  65.5681019  49.0153107  24.0746233  65.8481162
  49.3755773  23.5210386  65.4252664  34.7166540  20.1668706  63.9601410
  34.6190818  19.3564978  64.2691467  35.4995410  20.1460500  63.5747678
  34.8182676  20.0435796  63.9488273  65.7672680  31.1064886  58.2707600
  65.7366684  31.9609522  58.4425870  66.3654029  30.8060178  58.8293744
  65.8509838  31.1881382  58.3782403  58.9672365  30.1940537  63.0260531
  58.1110260  30.3549035  63.0769648  59.0140019  29.3232601  63.0465592
  58.8471476  30.0891338  63.0366597  53.3513505  39.7303254  58.7897762
  52.5996404  39.3518793  58.5613808  53.7999516  39.7621688  58.0416573
  53.3063171  39.6788862  58.6455265  58.8038464  40.1528624  54.2183310
  58.4689833  40.8305546  53.7827532  59.3165335  39.7633935  53.6300181
  58.8304046  40.1953202  54.0670101  58.3442756  42.1042893  60.1594421
  58.7282135  42.6729791  59.6199196  58.2801897  41.3792403  59.6800237
  58.3916183  42.0818356  60.0088284  61.8124186  32.2532581  65.6692183
  62.3580146  32.9317667  65.7286152  61.7541062  32.1120041  64.8093764
  61.8840100  32.3324582  65.5504243  54.9298261  39.7421647  61.0560535
  55.0308624  38.9322001  61.3657663  54.3340006  39.6478593  60.4260213
  54.8570799  39.6086675  61.0086773  63.5889255  33.6817188  56.5425910
  63.4728780  34.4324874  56.9718048  64.3845141  33.4241141  56.7921997
  63.6893844  33.7552035  56.6430002  54.7699000  44.6599236  62.4575391
  55.4136456  45.1012400  62.8471549  55.0955256  43.8552662  62.3705650
  54.9130829  44.6064431  62.5020868  48.1263305  35.7641933  60.6812869
  47.8913489  34.9309586  60.5745137  48.2648946  36.0446599  59.8674070
  48.1118968  35.6825437  60.5455224  50.4253393  27.9327664  63.5797176
  49.8058424  27.3420311  63.4107191  50.3237256  28.5239099  62.9461500
  50.3191068  27.9331746  63.4602166  55.4719580  37.6711211  57.8295253
  55.7935421  38.2116418  57.2256561  56.1191677  37.1007982  57.9617543
  55.6145635  37.6670386  57.7602288  57.5221288  29.6727206  57.9129639
  58.2201453  29.8515333  58.4051103  57.8373621  29.1497545  57.2900029
  57.6716625  29.6220978  57.8931650  50.1522526  31.4779946  65.8240745
  50.0281222  32.0642391  66.4590564  50.8040810  30.9840141  66.1253020
  50.2296175  31.4918750  65.9626675  57.7109224  36.0597651  57.9009431
  58.1502859  35.4514751  58.3464204  57.5613886  35.6805024  57.1294896
  57.7530689  35.9136122  57.8528598  55.1780867  34.6541662  65.1028256
  55.8229869  34.1614106  64.7839205  55.4182644  34.7966449  65.9294335
  55.3091452  34.6019105  65.1777790  57.7166958  37.4996568  64.7535149
  57.9990201  36.7047974  64.5321905  58.4453118  37.9777156  64.7740210
  57.8656522  37.4531165  64.7238164  55.6948152  25.0419602  61.9950914
  55.3651482  25.4930746  61.3254613  55.0193154  24.9635766  62.5423921
  55.5458588  25.0970737  61.9774137  61.3118560  34.4124832  54.8540200
  61.2269855  35.2685799  54.9989769  61.8002943  34.1369156  55.5222359
  61.3707457  34.4982153  54.9742282  62.9024560  21.0305125  60.2400525
  62.5878001  21.7208604  60.6720947  62.3851501  20.9749907  59.5386025
  62.7789030  21.1240014  60.1997474  62.2436993  31.0309626  56.3537935
  61.7148465  31.2469260  57.0135241  62.7662013  31.7245765  56.2738905
  62.2425446  31.1652763  56.4393534  54.1336601  34.9272843  55.1545403
  53.5493816  35.4322874  55.5611267  53.7306696  34.7015230  54.4141995
  53.9875905  34.9681091  55.1050428  49.6880630  40.6427604  61.9569075
  49.2048208  41.3678094  61.9328658  50.5003948  40.9403734  62.0679233
  49.7371377  40.7929958  61.9696354  55.7594784  39.4359785  64.5618889
  55.2421725  39.0767200  63.9580197  56.4569175  38.9121959  64.5724955
  55.7860365  39.3057473  64.4749148  59.4158376  39.8854599  70.5235062
  59.5041722  39.6980739  71.3713273  59.8448088  39.2392028  70.1239909
  59.4920478  39.7617606  70.5906814  56.9828836  39.1685759  69.5052724
  56.4199670  38.7558369  70.0292386  57.7449859  39.0938664  69.9245868
  57.0123284  39.0963159  69.6445725  58.5913816  31.1738495  53.6314324
  58.8309819  31.3816479  52.8189667  58.9129657  30.3696004  53.7403268
  58.6750973  31.0852596  53.5274877  53.9004106  23.1031891  57.4773862
  54.6550074  23.4710208  57.2390912  53.7231640  23.4771445  58.2453041
  53.9858584  23.2130079  57.5558750  52.5424827  41.1583780  62.1089355
  53.2445406  40.6435769  62.1662111  52.4622310  41.4857931  62.9136230
  52.6348587  41.1298006  62.2362147  67.1939005  29.2526331  65.5221401
  66.3567426  29.3228518  65.7568996  67.1627235  29.2550826  64.6495703
  67.0657287  29.2636558  65.4280949  53.5903734  31.3959367  71.2369770
  53.7624237  31.2865261  72.0855051  54.1273091  32.0413772  71.0000962
  53.6948738  31.4751369  71.3274866  52.2561170  25.5102210  54.1751975
  52.0736744  25.7274090  53.3492968  53.1186783  25.6241222  54.2310589
  52.3565760  25.5592108  54.0606462  51.8675602  37.3490132  61.6174963
  52.7064502  37.5813065  61.6648724  51.8987372  36.4794443  61.5481998
  51.9957320  37.2547078  61.6139607  52.4928305  37.7691007  65.9188268
  53.0326530  37.6262138  66.5891641  51.8098252  38.1687758  66.2872294
  52.4720459  37.8070678  66.0722690  57.9360890  22.5128620  57.2100999
  58.6647050  22.3344575  56.7639155  58.0255783  23.3546700  57.4208177
  58.0567552  22.6112499  57.1754516  61.9169190  33.4482008  61.1133293
  62.6726705  33.8813522  61.1522201  62.0231515  32.7986777  61.6867929
  62.0439361  33.4159492  61.2031318  59.5278435  39.3163618  73.1878846
  60.3118852  39.4294466  73.5534588  59.3275030  38.4904755  73.3837532
  59.6144460  39.2110337  73.2713232  47.8965450  33.9891298  66.0722690
  47.6303866  33.1730415  66.2313680  47.9104015  34.0344453  65.2018205
  47.8590173  33.8748203  65.9676172  64.8746844  24.3169113  64.1065123
  65.5172753  24.3867217  64.6927039  65.1269865  23.6498336  63.6044665
  65.0068976  24.2295461  64.1192403  51.8023197  28.7876382  52.6874448
  51.0881375  28.5014562  53.0996880  52.2867166  29.1273008  53.3280835
  51.7682561  28.7958032  52.8430083  52.6464057  27.5269676  68.7189697
  51.9535854  27.0566656  68.9650429  53.2624384  27.3007981  69.2931405
  52.6348587  27.4236808  68.8398850  59.6848828  41.2273720  66.8345301
  58.8864074  40.9873220  67.0919170  60.1334840  41.2788113  67.5812349
  59.6323440  41.1996111  66.9830226  58.9770515  37.2906336  53.0636256
  59.3921664  36.9591360  52.3720752  58.1462445  37.0575239  52.9356393
  58.9158524  37.2077592  52.9427103  48.3058864  34.7750077  63.3534434
  48.1234437  34.7496963  62.5006726  49.0408533  35.2449015  63.3923343
  48.3872928  34.8411440  63.2332352  64.3758538  35.0101587  60.4967322
  64.6114128  35.1546786  59.6694172  64.5248102  35.7743995  60.8898835
  64.4324342  35.1440642  60.4330925  51.3704616  31.4935080  69.8616543
  52.0944588  31.4788111  70.3481437  51.4720752  32.2030435  69.3638511
  51.4922825  31.5959783  69.8595329  66.2048995  33.8503253  58.3336925
  66.5357212  34.3830893  57.7277020  66.7782083  33.9042141  58.9898876
  66.3382674  33.9372822  58.3414707  58.7449565  34.9734165  74.7265490
  57.9522546  35.2877677  74.9118109  58.8598492  35.1885633  73.8886274
  58.6444976  35.0518001  74.6303824  61.4180884  31.6968156  59.0160505
  61.5127739  32.4357450  59.4700131  60.7939728  31.2685631  59.4495070
  61.3389914  31.7429476  59.1468653  59.6733358  34.8754369  69.6650786
  60.2472220  34.2381613  69.8199350  59.5948162  34.8758451  68.7960444
  59.7466593  34.7819480  69.5597197  48.2729774  31.6543578  63.5033501
  48.8503277  31.5180029  64.1425746  47.5743836  31.1979362  63.7579085
  48.2550796  31.5665844  63.6355790  61.6703906  33.5416896  52.2497457
  61.5884068  33.6119083  53.1152444  62.3083626  34.1046640  52.0581198
  61.7523743  33.6355867  52.3487407  55.0297077  33.3077634  61.7171984
  54.7716321  32.4749368  61.6903283  55.0845559  33.5335247  60.8764484
  54.9996855  33.2175405  61.5892121  60.1098127  25.4106084  61.8176076
  59.4054454  24.9215270  61.9759996  60.1583101  25.4228559  60.9464521
  60.0128178  25.3395732  61.7115416  54.0031789  30.8615396  62.2036879
  53.4281380  31.0207564  62.8400839  53.6267465  30.2250805  61.7405329
  53.8634601  30.7913209  62.2291437  57.6705077  29.3338745  67.0629257
  57.2819510  28.9092963  66.4081448  57.0059776  29.5820895  67.5706284
  57.5152005  29.3077466  67.0417125  67.3128347  29.0913750  59.8377087
  67.0564911  28.2793692  59.6474970  68.1557661  29.0991317  59.6107274
  67.3994372  28.9725748  59.7761904  43.7488608  30.5055471  60.2181319
  43.8348860  30.1287339  60.9994849  44.3764405  30.1315916  59.7401277
  43.8545159  30.3940953  60.2626796  61.4931439  23.0313374  64.5753241
  61.8741951  22.3491545  64.9621115  60.6894723  22.7422976  64.3928906
  61.4307901  22.8880423  64.6057297  58.7744016  33.5637350  55.2606064
  59.5884655  33.8552243  55.1488835  58.7103157  32.9097212  54.6864357
  58.8846755  33.5102545  55.1594901  54.6451924  37.0358867  60.3878376
  55.2825871  36.7970615  60.9330169  55.0706996  37.2396026  59.6531537
  54.8028090  37.0309878  60.3595533  49.3364566  39.2747204  64.2712680
  49.3768712  39.5462055  63.4432459  49.8959090  39.7989112  64.6870468
  49.4247912  39.3922959  64.2104568  55.2854739  32.2561157  54.7253265
  55.6699892  32.0368864  55.4769811  55.0366359  33.0824103  54.8554342
  55.3056812  32.3459303  54.8554342  55.4523279  25.5367572  74.4415850
  55.1376720  26.3067135  74.1785412  55.1313212  24.9737828  73.8568077
  55.3582199  25.5677841  74.3157200  57.0273396  37.5131290  62.0672162
  57.1012404  37.3506462  62.9214012  57.8442902  37.7021480  61.8232644
  57.1589755  37.5168032  62.1570188  50.7879153  37.8589153  59.0966606
  49.9617270  38.1050890  58.9700885  50.8491144  37.7801234  59.9628664
  50.6753320  37.8834102  59.2055550  53.0055176  23.9258094  60.0562046
  52.1377602  23.9980693  60.1219655  53.2930381  24.7280173  60.2450021
  52.9194924  24.0552241  60.0936813  62.1288065  24.0735953  68.3873368
  62.8741657  23.8845764  67.9736793  61.7125370  24.5994191  67.8287224
  62.1773039  24.1238099  68.2437941  55.5677982  40.4766033  56.7985636
  55.8576280  40.0855014  56.0744862  56.2981463  40.6582738  57.2390911
  55.7184866  40.4459847  56.7568443  56.1572727  35.2783779  67.8838766
  55.6584421  35.9899547  67.9623655  56.9672951  35.5984446  67.8456929
  56.2028834  35.4310628  67.8895335  53.5083897  42.4533416  59.8645785
  53.2884193  42.1630770  60.6572452  53.2878419  41.7948371  59.3363698
  53.4431491  42.3133124  59.9034694  52.4200844  34.5406732  62.1301487
  52.1314093  33.9144203  62.6647214  53.2884192  34.4827019  62.1966168
  52.5061096  34.4394276  62.2192442  63.2078742  29.6841515  62.4483469
  62.8643508  28.9631851  62.7990719  63.3071785  29.4755367  61.6061827
  63.1720785  29.5465719  62.3755149  55.6751853  43.8262805  58.6476478
  56.3275911  43.2939248  58.8767504  54.9777462  43.4731458  59.0344352
  55.6682571  43.6952328  58.7388646  52.6233118  36.1801983  58.0543852
  53.3779086  36.5615022  58.2679315  52.0303730  36.6313127  58.5090549
  52.6469831  36.3030810  58.1526731  63.6691771  36.1467219  57.9907457
  64.2349804  36.8060429  57.9066000  63.0219675  36.4916918  58.4623859
  63.6570528  36.2949161  58.0480214  55.0839785  28.1364823  73.1801064
  54.2739561  28.4422603  73.0690907  55.5614472  28.8570406  73.2953649
  55.0343264  28.2879425  73.1808136  53.9431344  37.3510544  63.4283968
  53.4212098  37.4910836  64.1135832  54.3305365  36.5921209  63.6186085
  53.9235045  37.2596068  63.5585044  50.9322528  27.4016353  57.4978922
  50.6447324  27.0317624  56.7610870  51.6192997  27.8711208  57.2362627
  50.9911426  27.4163323  57.3493998  60.1398349  39.0906004  57.4144536
  59.8985025  38.3573864  57.0071601  60.3199682  39.6392861  56.7610870
  60.1305973  39.0628395  57.2574759  55.3697670  34.3814563  58.8265459
  55.1740453  34.9889298  58.2325762  55.5932016  33.6882507  58.3457133
  55.3732311  34.3692089  58.6681539  53.7676200  31.2669301  58.9446327
  54.4898852  31.4310459  58.4850133  53.2884193  31.9878966  58.8385667
  53.8039931  31.3967531  58.8611941  61.7269708  27.6033100  64.3243012
  60.8880808  27.6294379  64.0881275  61.7974075  28.2503836  64.9048358
  61.6138101  27.7029226  64.3752129  51.4183817  33.6727374  68.0500467
  51.9304914  33.9511627  67.4009227  51.1320159  34.4116668  68.4163280
  51.4518680  33.8229727  68.0090345  60.1738986  24.5018477  59.0570628
  60.8765339  24.3026226  58.5790586  59.9083175  23.7294420  59.3639471
  60.2385618  24.3581443  59.0316069  65.6027231  32.8101087  61.6104254
  65.5161206  32.9656513  62.4639032  65.1477711  33.4539162  61.2363659
  65.5230488  32.9276842  61.6811360  48.5050723  28.1797566  58.3464203
  48.6066860  28.9823727  58.6745179  49.3006610  27.9784902  58.0487284
  48.6378629  28.2683464  58.3499559  54.9367542  25.7653762  68.1101508
  54.7450739  25.7808897  68.9600932  55.7866138  25.9617437  68.0868163
  55.0343264  25.7968114  68.2324803  49.3214455  28.2944744  66.0885325
  49.1799947  27.4428685  66.2129833  49.6055019  28.3373404  65.2647531
  49.3422301  28.1744494  65.9852949  59.4753048  30.1311834  60.2329813
  59.2287762  30.0507585  61.0666602  59.8038171  29.3465302  60.0392341
  59.4874291  30.0038099  60.3277336  63.3701096  36.8395193  64.0216594
  63.2315456  37.5376239  64.5265337  62.5901094  36.6843850  63.6652776
  63.2344323  36.9195360  64.0442869  61.7079181  33.1391569  70.2738976
  61.7027220  32.2671385  70.2781403  62.4140175  33.3379738  69.8008432
  61.8124185  33.0395443  70.2046011  55.4350075  32.8668553  69.6452796
  55.5793451  33.4469761  69.0095906  55.7825723  33.2444849  70.3502651
  55.5077536  33.0089257  69.6551791  57.6069992  32.0658721  67.4277928
  56.8593306  32.2589735  67.0226206  57.7611517  31.2403941  67.1902049
  57.5192420  31.9723832  67.3323334  54.5077830  41.0571324  66.5113823
  54.6567394  40.4974240  65.8587227  55.2877832  41.1363326  66.8946342
  54.6451923  40.9856890  66.4710772  64.8654469  36.1973447  54.7833094
  64.4861278  35.4110585  54.7762383  64.2020715  36.7460304  54.6404738
  64.7112944  36.1618271  54.7613890  57.0331130  41.2285967  67.7898314
  56.9574802  40.5594778  68.3449102  56.9620990  41.9303755  68.3038980
  57.0111737  41.2330875  67.9475162  57.8471769  25.9609272  68.3173332
  58.3044383  26.6933246  68.4446124  57.9228098  25.5375737  69.0760587
  57.9262739  26.0066510  68.4474408  50.0904760  26.2075091  69.4062775
  49.5546950  25.5955450  69.7223543  50.1522525  26.7823227  70.0596442
  50.0200393  26.2022019  69.5498202  62.3199095  19.1399147  62.1867174
  62.4382663  19.5975610  61.4534477  62.1461271  18.3344408  61.9003392
  62.3118266  19.0892919  62.0368108  57.6901377  39.7486966  58.6221920
  58.4551268  39.4796610  58.3004584  57.5879467  39.2636977  59.3391983
  57.7882873  39.6376531  58.6801747  55.7254147  27.9511376  65.1615156
  54.9350222  27.7702836  65.4832491  56.1214770  27.1738328  65.1445450
  55.6671023  27.8098837  65.2067704  60.2120038  36.7799150  50.6021869
  60.9793023  36.8399275  50.1927721  59.7651347  36.2079591  50.1178188
  60.2593465  36.7035726  50.4699579  61.1097833  35.5853806  62.8874601
  60.4342835  35.3539038  63.3887988  61.1190210  34.9774989  62.2616706
  61.0116338  35.4612731  62.8690754  58.2391977  30.4271635  69.6438654
  58.1751119  31.2881591  69.5158791  58.3789165  30.1103628  68.8434206
  58.2507447  30.5071801  69.5066867  63.1114568  38.4418938  55.1184779
  63.1934405  39.2485924  54.7946230  63.5964310  38.4614897  55.8425553
  63.1951726  38.5639601  55.1771678  56.9211071  33.1203774  63.7854857
  56.4973320  33.3208273  63.0493876  56.7455926  32.2732622  63.8979157
  56.8321952  33.0252556  63.6928547  56.4222765  44.6354287  66.2476315
  56.9118695  43.9365076  66.0651979  55.8506997  44.3378157  66.8352372
  56.4107295  44.4880511  66.3077355  52.2093516  33.6155826  59.2182830
  52.3658135  33.5502628  60.0738822  52.5494109  34.3904378  59.0061510
  52.2826751  33.7205024  59.3137424  58.7472661  32.9913709  58.0876193
  59.2888206  32.4884090  58.5514814  59.0619220  32.9378904  57.2765678
  58.8737058  32.9093130  58.0360005  56.9159111  38.3831061  55.3716221
  56.9851931  37.5245599  55.5109222  57.6947566  38.6002942  55.0435246
  57.0411961  38.2883925  55.3433378  59.8961930  27.8850014  68.1398494
  60.1103900  27.2460928  67.5861848  59.2795829  28.3295837  67.7106355
  59.8367259  27.8560157  67.9948925  61.3066598  40.8068762  59.5852714
  60.9146390  40.5035477  58.8675581  61.4619670  41.6437852  59.3957668
  61.2720188  40.8852599  59.4509212  48.7827778  30.7990776  59.5343597
  49.1626743  31.2175321  58.8703864  48.2083143  31.3804232  59.8412440
  48.7539103  30.9468635  59.4820338  62.0601018  29.4939079  69.0781801
  61.2477700  29.1864969  69.1594973  62.5190953  29.0138079  69.6424513
  62.0081403  29.3775571  69.1736395  61.4706273  37.3718751  59.5258745
  61.1120928  37.5433394  60.3022777  60.9844984  37.8331956  58.9686743
  61.3464970  37.4657722  59.5584014  59.2876659  20.9949949  63.1285836
  58.4170217  20.9688670  63.0819146  59.5417000  20.8227141  62.3111682
  59.1970219  20.9660093  63.0005973  56.2594638  33.0517916  52.0658979
  56.5487163  33.8282799  52.3402554  56.3466437  32.5406648  52.7673479
  56.3148895  33.0909835  52.2101477  59.1554526  30.8999150  73.8610503
  59.6254157  31.5241267  74.2478377  59.2016406  30.2316126  74.4203718
  59.2322402  30.8933831  74.0010574  56.3125799  23.0056178  64.5859307
  55.7964288  22.3136369  64.7110886  55.7519728  23.6726955  64.5321905
  56.1532313  23.0019435  64.5965373  58.3818033  23.5449138  66.4152159
  57.9949786  23.5698169  67.1965689  57.8950970  22.9790816  65.9626676
  58.2530542  23.4644889  66.4640063  64.3568012  30.1111793  65.0391861
  63.9295620  30.0238141  64.2839961  63.7194065  30.2189568  65.6246706
  64.1997620  30.1144453  65.0137303  58.0475175  20.4316123  68.7062419
  58.6768293  20.9676423  68.4283490  58.2161037  20.3393482  69.5575985
  58.1652969  20.4977486  68.7910947  57.8489089  25.2187318  70.9788831
  58.6762519  24.9472467  71.0347445  57.8696935  26.0148160  71.3352649
  57.9741940  25.2967072  71.0404014  62.6865269  38.9542455  67.1131303
  63.4757647  38.6031520  67.2333384  62.8608867  39.7678843  66.8507936
  62.8285551  39.0228312  67.0919171  52.4258579  32.3651181  64.1659091
  51.5846586  32.2655055  64.3737985  52.6348587  33.1346661  64.5173412
  52.3323272  32.4643224  64.2486406  49.9034146  29.9870718  61.9943842
  49.5090844  30.0613730  61.2193952  49.3474263  30.3728664  62.5452204
  49.7636959  30.0552492  61.9611502  61.5399093  22.9652012  61.6747721
  61.7448686  22.8974320  62.5204718  61.2125517  23.7710833  61.6068898
  61.5214341  23.0737952  61.7907376  56.2375244  30.2932580  63.4156689
  55.9338382  29.7388568  64.0167097  55.5354665  30.4724790  62.9284723
  56.0891454  30.2377362  63.4326395  55.2941341  27.6033100  57.9801391
  55.5701076  26.8852012  57.5678958  55.8940011  28.2018020  57.7722497
  55.4234606  27.5853470  57.8882152  54.2993595  37.5082301  68.1228787
  54.1913950  37.5184363  68.9890845  54.5089377  38.3337081  67.9333741
  54.3143706  37.6323375  68.2232878  64.7932781  23.5183776  61.1550486
  64.1807094  24.0054178  61.5404218  64.8896956  22.8427267  61.6988138
  64.7170678  23.4902085  61.2929345  58.7951862  25.2746617  56.2547986
  59.2495608  25.4457178  56.9795830  59.2691907  24.6614728  55.8545762
  58.9320182  25.2097502  56.3021747  52.3167387  34.7594943  65.5850724
  51.7255320  35.4004441  65.5553739  53.0788411  35.1832560  65.5582024
  52.3415648  34.9170781  65.5765872  52.7128010  25.9196941  66.2518742
  53.1729492  25.9935870  66.9893866  52.7584117  26.7178195  65.9018563
  52.7878565  26.0491088  66.3091498  54.3611360  26.5863636  70.8190769
  53.9696925  25.9396983  71.2546547  54.5297222  27.1775071  71.4385024
  54.3282270  26.5777904  70.9753475  56.1364882  31.9789151  57.3592993
  56.8806927  32.3663428  57.5975943  56.2825578  31.1346577  57.5233481
  56.2675467  31.9119624  57.4186963  58.0544457  23.7739410  62.3924854
  57.2080502  23.9462218  62.2666204  58.0515590  22.9688754  62.7290683
  57.9291607  23.6800439  62.4235981  59.1242758  27.5514625  63.2586912
  58.6502712  27.0256387  63.7692223  59.4960893  27.0044098  62.6901774
  59.1092647  27.3930621  63.2502060  49.5015788  29.5486132  68.6270458
  50.3641401  29.4481841  68.5407788  49.1707571  28.9680841  68.0656030
  49.5800984  29.4477758  68.5315864  65.3879488  32.6117000  64.6693693
  65.1477711  31.7723416  64.6736119  65.8671495  32.6917167  65.3934466
  65.4231672  32.4998400  64.7768495  61.0526257  28.4451179  56.3212666
  60.5249276  28.5279923  55.6318375  61.5121965  29.1869051  56.3177311
  61.0428108  28.5671842  56.2187361  67.3884675  29.3918458  62.6222952
  67.1494445  29.3514292  61.7843737  67.5518576  30.2389610  62.7488673
  67.3774979  29.5110543  62.5176434  63.9930705  33.7768407  68.5527997
  64.7164904  33.3240933  68.3739017  63.7280668  34.0573073  67.7700325
  64.0611979  33.7519375  68.4106713  52.8617574  28.3728581  65.2880876
  52.2370644  28.3846972  64.6806829  52.5263169  28.8488756  65.9372117
  52.7203066  28.4447098  65.2937445  53.0459322  26.7153699  51.3453561
  52.6972127  27.3673424  51.8085111  52.5655768  26.7010812  50.6177433
  52.9229566  26.8096753  51.3064653  49.5743249  36.4329041  66.7284641
  49.0443174  35.7421480  66.7779615  49.8468343  36.4239226  65.8997349
  49.5367972  36.3296172  66.6132057  60.6063340  37.0154743  55.4522323
  61.3297539  37.4812856  55.3086897  60.1663931  37.0828353  54.7019920
  60.6479032  37.0938580  55.3207105  59.7749495  33.8752285  66.7023012
  59.1606488  33.3310336  66.9971648  60.2916780  33.3616522  66.2228828
  59.7605157  33.7188694  66.6747241  59.0145792  34.9456555  64.4367311
  58.5873400  34.3206274  64.0032746  59.0070736  34.6631477  65.2626318
  58.9504933  34.8109336  64.4947138  52.1308319  29.9821728  67.5055745
  52.2901806  29.2265052  67.9107467  51.9501213  30.5312668  68.1596483
  52.1273678  29.9515542  67.6618451  60.0728622  22.1482964  68.0606534
  59.5769183  22.3446638  67.3698101  60.8297684  22.5475632  67.8895336
  60.1115447  22.2360698  67.9326671  57.3431502  25.8225310  64.6509845
  57.3673989  25.2885422  63.9622625  57.5942975  25.3142619  65.3135435
  57.3841420  25.6686214  64.6474490  44.8539091  33.1056805  64.0852989
  44.7482541  33.0603649  63.2205073  44.1039311  33.4510585  64.3667274
  44.7274694  33.1497713  63.9990319  53.6232824  24.5496128  64.0315589
  53.6631196  25.0505335  64.7450297  52.7982489  24.6406522  63.7621512
  53.5072350  24.6377944  64.0966127  55.8062437  34.1156868  72.1335884
  54.9558067  34.2528582  72.2693529  55.9690565  33.3820646  72.5783585
  55.7046300  34.0270969  72.2191483  55.0447187  31.0656638  66.3289488
  54.2139117  31.2330456  66.1224736  54.9898704  30.6892589  67.1138374
  54.9136602  31.0346369  66.4138016  52.8530971  24.5565531  71.9645899
  53.4783674  24.0127664  72.2375331  52.3981450  24.0760448  71.3953689
  52.8779231  24.4055012  71.9207493  53.4183231  29.3412229  56.8579606
  53.5586192  29.8384694  57.5608247  53.9165764  28.6398524  56.9993820
  53.5124312  29.3114208  56.9831185  53.4483454  30.2079340  54.1872183
  54.0828533  30.8039765  54.1221645  53.5309064  29.9082798  55.0018053
  53.5540004  30.2520249  54.2975269  66.4266019  32.7394818  67.0558547
  67.0183860  33.3792068  67.0876745  66.8625014  32.0417855  67.3450614
  66.5784450  32.7313168  67.1039380  55.0262436  26.1393316  54.1617625
  55.3478277  25.6596398  53.5076887  55.2889380  26.9492962  53.9708436
  55.1128462  26.1883214  54.0373117  58.2559409  37.1612190  67.6816441
  57.7484500  37.7148037  68.1257071  57.9586055  37.2220480  66.8635215
  58.1364294  37.2518501  67.6264898  60.4221591  25.5265510  66.5241104
  60.8476663  25.0738036  65.9124630  59.8078584  24.9725580  66.8005891
  60.3950237  25.3779486  66.4746129  49.9536441  32.4047181  57.4561729
  50.4628671  33.0011689  57.8373034  50.4270714  32.1373155  56.7738148
  50.0979817  32.4532997  57.4116251  60.8667189  41.0775448  55.6120384
  60.1496499  40.9036310  55.1467622  61.5173927  40.8428020  55.0795870
  60.8569040  41.0171240  55.4649602  58.8615814  21.9980610  59.9331681
  58.2184132  21.8478256  60.5016819  58.5215221  21.7522955  59.1680785
  58.7160892  21.9392732  59.9034696  63.4515161  29.9540036  59.3561689
  62.7806351  30.4969739  59.2274755  64.1454911  30.4234892  59.1143384
  63.4544028  30.1038308  59.3017217  57.5001894  42.0936748  64.5873448
  57.2767549  41.3355578  64.9557474  57.0111738  42.1234770  63.8653887
  57.3945343  41.9858973  64.5350189  63.6143288  26.4095920  62.2652063
  63.9670898  25.9825643  62.9397861  62.7558090  26.3246764  62.3953139
  63.5392733  26.3340661  62.3847073  52.3126973  29.0403440  60.3234909
  51.5938962  29.4567572  60.5907773  52.6839335  29.6057679  59.7726547
  52.2618905  29.1852721  60.2817716  61.6126554  29.6731289  66.2136905
  61.5924481  29.4914584  67.0671684  61.6605755  30.5443307  66.1896489
  61.6161195  29.7747827  66.3360200  59.5572884  36.2618481  72.1385381
  59.5168739  35.6168158  71.5530537  60.3696202  36.2055098  72.4510794
  59.6716037  36.1577447  72.0982331  56.1480351  42.3137207  62.0410532
  55.7340750  41.6511337  61.6514374  56.8327726  42.4615065  61.5206227
  56.1878723  42.2377865  61.9067029  59.5145645  41.4727292  62.7934149
  59.1161929  41.5829562  62.0254969  58.8996865  41.6809358  63.3760709
  59.3644535  41.5200860  62.7665448  58.0873547  28.0801440  55.6608289
  57.4938387  28.4018436  55.1092856  58.1248825  27.2342535  55.4529395
  58.0047937  28.0025768  55.5491060  65.0467348  21.5314332  63.1936375
  64.5398213  20.8243471  63.1257553  65.8434782  21.2007521  63.3237452
  65.0894587  21.3787483  63.2035370  60.9631364  28.0380944  59.0910039
  60.7345057  28.0613646  58.2488397  61.2229440  27.2138411  59.2105049
  60.9677552  27.9197024  58.9835237  55.2450593  29.8915417  68.6935139
  54.7329496  29.2836600  69.0520170  55.0730089  30.6072010  69.1609115
  55.1440230  29.9078716  68.8151363  50.0916307  28.3352992  71.3437501
  49.9218897  28.9954367  70.7985708  49.6482257  28.5459554  72.0649990
  50.0015641  28.4638975  71.3699130  54.0176127  26.5757490  60.3864235
  54.4933493  26.9374570  59.7514416  53.5164726  27.2313958  60.6664377
  54.0141486  26.7251679  60.3340976  67.2487488  36.0479259  56.1777240
  67.6321094  36.7970615  56.4075337  66.4531601  36.2945078  55.9189229
  67.1881270  36.1948952  56.1734813  59.1219663  27.8139662  71.1337395
  59.6791093  27.5853471  70.5015860  58.7980728  28.5745327  70.8572607
  59.1566073  27.8923499  70.9993892  46.9918372  31.2399858  66.6025991
  46.4445091  30.5700504  66.7206859  47.7810750  30.8729706  66.6669458
  47.0270555  31.0864844  66.6294691  56.8402780  30.9007315  72.0989402
  57.5914107  31.2158992  72.4128956  57.0325357  30.6986486  71.2723324
  56.9794194  30.9174697  72.0232798  56.0602780  28.7198690  53.7537619
  56.4401745  28.7378319  52.9688733  55.3195376  29.1652679  53.6328466
  56.0071617  28.7880465  53.6201187  63.6888070  27.0280881  59.3413197
  63.6882297  26.8729538  60.1997474  63.4844250  27.8743868  59.2854583
  63.6587848  27.1301502  59.4601137  45.7505341  30.4520666  63.7572014
  45.5727102  29.9997275  64.4826929  45.4624363  31.2546827  63.9410491
  45.6818294  30.5043224  63.8915517  61.4128922  31.7078383  62.9949404
  61.9082588  30.9901378  62.9553424  60.6028698  31.4049181  62.8803891
  61.3672816  31.5576029  62.9723130  56.8587534  35.5576196  55.1446409
  56.0498857  35.2342870  55.0979718  57.3662443  34.8509419  55.0774657
  56.8137201  35.4057513  55.1276703  47.4877811  32.9848390  60.8693773
  46.6223331  32.9734080  60.7576544  47.5876627  32.7978612  61.7164912
  47.3751978  32.9554451  60.9782717  63.4780741  34.4582071  65.6826533
  63.9035813  33.9356493  65.1296958  63.1137661  35.0562908  65.1615156
  63.4867344  34.4692298  65.5235543  53.1134821  42.7546288  64.4423878
  53.4281380  43.5682677  64.4501660  53.5228234  42.3696507  65.1106037
  53.2202919  42.8174991  64.5427970  60.0659341  38.1716335  62.0127690
  60.5370519  38.8856598  62.1817676  60.4019519  37.5715085  62.5487560
  60.1854456  38.1887799  62.1160066  56.9828836  22.9443806  68.9685785
  57.1156741  22.1474799  69.2966761  57.3673988  23.4710209  69.5484061
  57.0585164  22.9043722  69.1029288  60.7033287  37.9634269  68.7755383
  60.1554233  37.3392153  68.5075448  61.1646316  38.1528541  68.0599462
  60.6900496  37.8993319  68.6305814  60.0561191  19.8674132  65.5666878
  59.2507154  19.7571861  65.8834717  59.9267926  19.9686587  64.7096744
  59.9181324  19.8657802  65.4874919  63.5127151  26.0319624  66.1606575
  62.9290140  26.5328830  65.7484143  63.8331445  25.5249180  65.5270899
  63.4740327  26.0311459  66.0065082  56.0521950  24.9460218  56.4365250
  56.8737645  25.1158531  56.1946945  55.5891601  25.1007479  55.7131548
  56.1053113  24.9941951  56.2936894  54.6417282  22.9402981  67.2163679
  55.1861695  22.5994107  67.8068021  54.6954218  23.7988442  67.3584963
  54.7306402  23.0158240  67.3245552  50.4547841  36.7019397  64.0902487
  51.0592698  36.6615231  63.4616307  50.2475154  37.5490549  64.1206543
  50.5136738  36.8207399  64.0018603  60.2691613  38.9685342  65.3064724
  61.0889987  38.8248308  65.5681019  59.9885691  39.5931541  65.8481162
  60.3488357  39.0395694  65.4252664  45.6899123  35.6854014  63.9601410
  45.5923401  34.8750286  64.2691467  46.4727993  35.6645808  63.5747678
  45.7915260  35.5621104  63.9488273  59.0995889  51.2827241  60.6812869
  58.8646073  50.4494894  60.5745137  59.2381529  51.5631907  59.8674070
  59.0851551  51.2010745  60.5455224  61.3985976  43.4512972  63.5797176
  60.7791008  42.8605619  63.4107191  61.2969840  44.0424407  62.9461500
  61.2923652  43.4517054  63.4602166  61.1255109  46.9965253  65.8240745
  61.0013806  47.5827699  66.4590564  61.7773394  46.5025449  66.1253020
  61.2028758  47.0104058  65.9626675  64.8736689  38.6217199  57.4773862
  65.6282657  38.9895516  57.2390912  64.6964224  38.9956753  58.2453041
  64.9591168  38.7315386  57.5558750  63.2293754  41.0287518  54.1751975
  63.0469327  41.2459398  53.3492968  64.0919367  41.1426530  54.2310589
  63.3298344  41.0777416  54.0606462  58.8698034  49.5076606  66.0722690
  58.6036449  48.6915722  66.2313680  58.8836598  49.5529761  65.2018205
  58.8322756  49.3933511  65.9676172  59.2791448  50.2935385  63.3534434
  59.0967021  50.2682271  62.5006726  60.0141117  50.7634323  63.3923343
  59.3605512  50.3596747  63.2332352  59.2462358  47.1728886  63.5033501
  59.8235861  47.0365337  64.1425746  58.5476420  46.7164670  63.7579085
  59.2283379  47.0851152  63.6355790  54.7221191  46.0240779  60.2181319
  54.8081443  45.6472647  60.9994849  55.3496989  45.6501224  59.7401277
  54.8277742  45.9126261  60.2626796  61.7611736  53.3774461  59.0966606
  60.9349854  53.6236198  58.9700885  61.8223727  53.2986542  59.9628664
  61.6485903  53.4019410  59.2055550  63.5965701  51.6987291  58.0543852
  64.3511669  52.0800330  58.2679315  63.0036314  52.1498435  58.5090549
  63.6202415  51.8216118  58.1526731  61.9055112  42.9201661  57.4978922
  61.6179908  42.5502932  56.7610870  62.5925580  43.3896516  57.2362627
  61.9644009  42.9348630  57.3493998  62.3916400  49.1912682  68.0500467
  62.9037497  49.4696935  67.4009227  62.1052743  49.9301976  68.4163280
  62.4251263  49.3415035  68.0090345  59.4783307  43.6982874  58.3464203
  59.5799443  44.5009035  58.6745179  60.2739193  43.4970209  58.0487284
  59.6111212  43.7868772  58.3499559  60.2947039  43.8130052  66.0885325
  60.1532531  42.9613992  66.2129833  60.5787602  43.8558712  65.2647531
  60.3154885  43.6929802  65.9852949  75.8387053  51.7158755  54.7833094
  75.4593861  50.9295893  54.7762383  75.1753298  52.2645612  54.6404738
  75.6845528  51.6803579  54.7613890  61.0637344  41.7260399  69.4062775
  60.5279533  41.1140758  69.7223543  61.1255109  42.3008535  70.0596442
  60.9932977  41.7207327  69.5498202  71.1852621  52.2984458  50.6021869
  71.9525607  52.3584583  50.1927721  70.7383930  51.7264899  50.1178188
  71.2326049  52.2221034  50.4699579  63.1826100  49.1341133  59.2182830
  63.3390719  49.0687936  60.0738822  63.5226693  49.9089686  59.0061510
  63.2559335  49.2390332  59.3137424  59.7560361  46.3176084  59.5343597
  60.1359326  46.7360629  58.8703864  59.1815726  46.8989540  59.8412440
  59.7271686  46.4653943  59.4820338  60.8766730  45.5056026  61.9943842
  60.4823428  45.5799037  61.2193952  60.3206847  45.8913972  62.5452204
  60.7369542  45.5737800  61.9611502  60.4748371  45.0671439  68.6270458
  61.3373984  44.9667149  68.5407788  60.1440154  44.4866149  68.0656030
  60.5533568  44.9663066  68.5315864  64.0191906  42.2339007  51.3453561
  63.6704710  42.8858732  51.8085111  63.5388352  42.2196120  50.6177433
  63.8962150  42.3282060  51.3064653  55.8271675  48.6242113  64.0852989
  55.7215124  48.5788957  63.2205073  55.0771895  48.9695893  64.3667274
  55.7007278  48.6683021  63.9990319  60.9269025  47.9232489  57.4561729
  61.4361254  48.5196997  57.8373034  61.4003297  47.6558463  56.7738148
  61.0712401  47.9718305  57.4116251  63.2859557  44.5588748  60.3234909
  62.5671546  44.9752880  60.5907773  63.6571919  45.1242986  59.7726547
  63.2351488  44.7038029  60.2817716  57.9650955  46.7585166  66.6025991
  57.4177675  46.0885812  66.7206859  58.7543333  46.3915014  66.6669458
  58.0003139  46.6050152  66.6294691  56.7237925  45.9705974  63.7572014
  56.5459686  45.5182583  64.4826929  56.4356947  46.7732135  63.9410491
  56.6550878  46.0228532  63.8915517  58.4610395  48.5033698  60.8693773
  57.5955914  48.4919388  60.7576544  58.5609211  48.3163920  61.7164912
  58.3484562  48.4739759  60.9782717  56.6631707  51.2039322  63.9601410
  56.5655985  50.3935594  64.2691467  57.4460577  51.1831115  63.5747678
  56.7647843  51.0806412  63.9488273  75.2978672  70.7673870  58.7897762
  74.5461571  70.3889409  58.5613808  75.7464683  70.7992304  58.0416573
  75.2528339  70.7159477  58.6455265  80.7503632  71.1899240  54.2183310
  80.4155000  71.8676161  53.7827532  81.2630502  70.8004551  53.6300181
  80.7769213  71.2323818  54.0670101  80.2907923  73.1413509  60.1594421
  80.6747302  73.7100407  59.6199196  80.2267064  72.4163019  59.6800237
  80.3381350  73.1188972  60.0088284  76.8763428  70.7792262  61.0560535
  76.9773791  69.9692616  61.3657663  76.2805173  70.6849209  60.4260213
  76.8035967  70.6457291  61.0086773  76.7164168  75.6969852  62.4575391
  77.3601623  76.1383016  62.8471549  77.0420423  74.8923278  62.3705650
  76.8595996  75.6435046  62.5020868  70.0728472  66.8012549  60.6812869
  69.8378657  65.9680201  60.5745137  70.2114113  67.0817215  59.8674070
  70.0584135  66.7196052  60.5455224  71.6345797  71.6798220  61.9569075
  71.1513375  72.4048709  61.9328658  72.4469115  71.9774350  62.0679233
  71.6836545  71.8300574  61.9696354  77.7059951  70.4730401  64.5618889
  77.1886893  70.1137816  63.9580197  78.4034342  69.9492575  64.5724955
  77.7325532  70.3428088  64.4749148  74.4889994  72.1954396  62.1089355
  75.1910573  71.6806385  62.1662111  74.4087477  72.5228547  62.9136230
  74.5813755  72.1668622  62.2362147  73.8140770  68.3860748  61.6174963
  74.6529669  68.6183681  61.6648724  73.8452539  67.5165059  61.5481998
  73.9422487  68.2917694  61.6139607  79.8826057  53.5499236  57.2100999
  80.6112217  53.3715191  56.7639155  79.9720950  54.3917316  57.4208177
  80.0032719  53.6483115  57.1754516  70.2524031  65.8120693  63.3534434
  70.0699605  65.7867579  62.5006726  70.9873700  66.2819631  63.3923343
  70.3338095  65.8782055  63.2332352  83.6169073  64.5787512  52.2497457
  83.5349235  64.6489699  53.1152444  84.2548793  65.1417255  52.0581198
  83.6988910  64.6726483  52.3487407  82.0563294  56.4476700  61.8176076
  81.3519621  55.9585886  61.9759996  82.1048268  56.4599175  60.9464521
  81.9593346  56.3766348  61.7115416  71.2829734  70.3117820  64.2712680
  71.3233879  70.5832671  63.4432459  71.8424258  70.8359728  64.6870468
  71.3713079  70.4293575  64.2104568  78.9738563  68.5501906  62.0672162
  79.0477571  68.3877078  62.9214012  79.7908069  68.7392095  61.8232644
  79.1054922  68.5538648  62.1570188  72.7344320  68.8959769  59.0966606
  71.9082437  69.1421506  58.9700885  72.7956311  68.8171850  59.9628664
  72.6218487  68.9204718  59.2055550  77.5143149  71.5136649  56.7985636
  77.8041447  71.1225630  56.0744862  78.2446630  71.6953354  57.2390911
  77.6650033  71.4830463  56.7568443  75.4549064  73.4904031  59.8645785
  75.2349360  73.2001386  60.6572452  75.2343586  72.8318986  59.3363698
  75.3896659  73.3503740  59.9034694  74.3666012  65.5777348  62.1301487
  74.0779260  64.9514819  62.6647214  75.2349360  65.5197635  62.1966168
  74.4526264  65.4764892  62.2192442  77.6217020  74.8633421  58.6476478
  78.2741078  74.3309864  58.8767504  76.9242629  74.5102074  59.0344352
  77.6147738  74.7322944  58.7388646  75.8896512  68.3881160  63.4283968
  75.3677265  68.5281452  64.1135832  76.2770532  67.6291825  63.6186085
  75.8700212  68.2966684  63.5585044  82.1204153  55.5389093  59.0570628
  82.8230506  55.3396841  58.5790586  81.8548342  54.7665035  59.3639471
  82.1850785  55.3952059  59.0316069  86.8119636  67.2344063  54.7833094
  86.4326445  66.4481201  54.7762383  86.1485882  67.7830920  54.6404738
  86.6578111  67.1988887  54.7613890  79.6366545  70.7857582  58.6221920
  80.4016436  70.5167226  58.3004584  79.5344634  70.3007592  59.3391983
  79.7348040  70.6747147  58.6801747  82.1585205  67.8169766  50.6021869
  82.9258190  67.8769891  50.1927721  81.7116514  67.2450207  50.1178188
  82.2058632  67.7406342  50.4699579  83.0563001  66.6224422  62.8874601
  82.3808002  66.3909654  63.3887988  83.0655377  66.0145605  62.2616706
  82.9581505  66.4983347  62.8690754  85.0579735  69.4789554  55.1184779
  85.1399573  70.2856540  54.7946230  85.5429477  69.4985513  55.8425553
  85.1416893  69.6010216  55.1771678  83.2531765  71.8439378  59.5852714
  82.8611557  71.5406093  58.8675581  83.4084838  72.6808468  59.3957668
  83.2185355  71.9223215  59.4509212  83.4171440  68.4089367  59.5258745
  83.0586095  68.5804010  60.3022777  82.9310151  68.8702572  58.9686743
  83.2930137  68.5028338  59.5584014  78.2059805  64.0888532  52.0658979
  78.4952330  64.8653415  52.3402554  78.2931604  63.5777264  52.7673479
  78.2614062  64.1280450  52.2101477  84.0222071  71.2474871  63.0182749
  83.8241759  71.7365685  62.3238960  83.4009782  71.4516112  63.5966882
  83.9009635  71.3491409  63.0005972  75.3948621  61.2449956  54.1872183
  76.0293700  61.8410381  54.1221645  75.4774231  60.9453414  55.0018053
  75.5005172  61.2890864  54.2975269  76.9727604  57.1763932  54.1617625
  77.2943445  56.6967014  53.5076887  77.2354547  57.9863578  53.9708436
  77.0593629  57.2253830  54.0373117  82.8132357  72.1146064  55.6120384
  82.0961666  71.9406926  55.1467622  83.4639094  71.8798636  55.0795870
  82.8034207  72.0541856  55.4649602  78.0945518  73.3507822  62.0410532
  77.6805917  72.6881953  61.6514374  78.7792893  73.4985681  61.5206227
  78.1343890  73.2748481  61.9067029  81.4610813  72.5097908  62.7934149
  81.0627096  72.6200178  62.0254969  80.8462032  72.7179974  63.3760709
  81.3109702  72.5571476  62.7665448  89.1952655  67.0849874  56.1777240
  89.5786261  67.8341231  56.4075337  88.3996769  67.3315694  55.9189229
  89.1346438  67.2319568  56.1734813  78.0067947  59.7569306  53.7537619
  78.3866912  59.7748935  52.9688733  77.2660543  60.2023295  53.6328466
  77.9536785  59.8251081  53.6201187  82.0124508  69.2086951  62.0127690
  82.4835686  69.9227213  62.1817676  82.3484686  68.6085701  62.5487560
  82.1319623  69.2258415  62.1160066  77.9987118  55.9830834  56.4365250
  78.8202812  56.1529147  56.1946945  77.5356768  56.1378095  55.7131548
  78.0518280  56.0312567  56.2936894  72.4013008  67.7390013  64.0902487
  73.0057866  67.6985847  63.4616307  72.1940321  68.5861165  64.1206543
  72.4601906  67.8578015  64.0018603  67.6364291  66.7224630  63.9601410
  67.5388569  65.9120902  64.2691467  68.4193160  66.7016423  63.5747678
  67.7380427  66.5991720  63.9488273  98.6870431  77.6620809  58.2707600
  98.6564435  78.5165446  58.4425870  99.2851780  77.3616102  58.8293744
  98.7707589  77.7437306  58.3782403  91.8870116  76.7496460  63.0260531
  91.0308011  76.9104959  63.0769648  91.9337769  75.8788524  63.0465592
  91.7669227  76.6447262  63.0366597  86.2711255  86.2859178  58.7897762
  85.5194155  85.9074717  58.5613808  86.7197267  86.3177612  58.0416573
  86.2260922  86.2344785  58.6455265  95.1963832  83.0182986  72.6320987
  95.9030599  82.5235017  72.7607921  95.3851768  83.4592068  71.9023645
  95.3291738  83.0101336  72.5430032  91.7236215  86.7084548  54.2183310
  91.3887584  87.3861469  53.7827532  92.2363086  86.3189859  53.6300181
  91.7501796  86.7509126  54.0670101  91.2640506  88.6598816  60.1594421
  91.6479886  89.2285715  59.6199196  91.1999648  87.9348327  59.6800237
  91.3113934  88.6374280  60.0088284  94.7321937  78.8088504  65.6692183
  95.2777897  79.4873591  65.7286152  94.6738813  78.6675965  64.8093764
  94.8037851  78.8880506  65.5504243  87.8496011  86.2977570  61.0560535
  87.9506374  85.4877924  61.3657663  87.2537757  86.2034517  60.4260213
  87.7768550  86.1642599  61.0086773  96.5087005  80.2373111  56.5425910
  96.3926531  80.9880797  56.9718048  97.3042892  79.9797065  56.7921997
  96.6091595  80.3107958  56.6430002  87.6896751  91.2155160  62.4575391
  88.3334207  91.6568324  62.8471549  88.0153007  90.4108586  62.3705650
  87.8328580  91.1620354  62.5020868  81.0461056  82.3197857  60.6812869
  80.8111240  81.4865509  60.5745137  81.1846697  82.6002523  59.8674070
  81.0316718  82.2381360  60.5455224  83.3451143  74.4883588  63.5797176
  82.7256175  73.8976235  63.4107191  83.2435007  75.0795023  62.9461500
  83.2388819  74.4887670  63.4602166  88.3917331  84.2267134  57.8295253
  88.7133172  84.7672342  57.2256561  89.0389427  83.6563906  57.9617543
  88.5343386  84.2226310  57.7602288  90.4419039  76.2283129  57.9129639
  91.1399204  76.4071257  58.4051103  90.7571371  75.7053469  57.2900029
  90.5914376  76.1776901  57.8931650  83.0720276  78.0335869  65.8240745
  82.9478973  78.6198315  66.4590564  83.7238561  77.5396065  66.1253020
  83.1493926  78.0474674  65.9626675  90.6306974  82.6153574  57.9009431
  91.0700610  82.0070675  58.3464204  90.4811637  82.2360948  57.1294896
  90.6728440  82.4692046  57.8528598  88.0978617  81.2097586  65.1028256
  88.7427620  80.7170029  64.7839205  88.3380394  81.3522373  65.9294335
  88.2289202  81.1575028  65.1777790  90.6364709  84.0552492  64.7535149
  90.9187951  83.2603898  64.5321905  91.3650869  84.5333080  64.7740210
  90.7854272  84.0087089  64.7238164  88.6145902  71.5975526  61.9950914
  88.2849232  72.0486670  61.3254613  87.9390904  71.5191689  62.5423921
  88.4656339  71.6526661  61.9774137  94.2316311  80.9680756  54.8540200
  94.1467606  81.8241722  54.9989769  94.7200694  80.6925080  55.5222359
  94.2905208  81.0538077  54.9742282  95.8222310  67.5861049  60.2400525
  95.5075751  68.2764528  60.6720947  95.3049252  67.5305831  59.5386025
  95.6986781  67.6795937  60.1997474  95.1634744  77.5865550  56.3537935
  94.6346216  77.8025183  57.0135241  95.6859764  78.2801688  56.2738905
  95.1623197  77.7208687  56.4393534 100.6182797  83.1611854  61.7270980
  99.7880500  83.3722498  61.8904396 100.5692049  82.3348909  61.4513263
 100.4889532  83.0701461  61.7108345  87.0534352  81.4828767  55.1545403
  86.4691567  81.9878798  55.5611267  86.6504447  81.2571154  54.4141995
  86.9073656  81.5237015  55.1050428  82.6078380  87.1983528  61.9569075
  82.1245959  87.9234017  61.9328658  83.4201699  87.4959658  62.0679233
  82.6569128  87.3485881  61.9696354  88.6792535  85.9915708  64.5618889
  88.1619476  85.6323123  63.9580197  89.3766926  85.4677883  64.5724955
  88.7058116  85.8613396  64.4749148  92.3356127  86.4410523  70.5235062
  92.4239472  86.2536663  71.3713273  92.7645839  85.7947952  70.1239909
  92.4118229  86.3173530  70.5906814  89.9026586  85.7241683  69.5052724
  89.3397421  85.3114292  70.0292386  90.6647610  85.6494588  69.9245868
  89.9321035  85.6519083  69.6445725  91.5111566  77.7294419  53.6314324
  91.7507570  77.9372402  52.8189667  91.8327407  76.9251927  53.7403268
  91.5948724  77.6408520  53.5274877  86.8201857  69.6587814  57.4773862
  87.5747825  70.0266132  57.2390912  86.6429391  70.0327369  58.2453041
  86.9056335  69.7686002  57.5558750  85.4622578  87.7139704  62.1089355
  86.1643157  87.1991693  62.1662111  85.3820061  88.0413855  62.9136230
  85.5546338  87.6853930  62.2362147 100.1136755  75.8082255  65.5221401
  99.2765176  75.8784442  65.7568996 100.0824986  75.8106750  64.6495703
  99.9855038  75.8192482  65.4280949  86.5101484  77.9515291  71.2369770
  86.6821988  77.8421185  72.0855051  87.0470842  78.5969696  71.0000962
  86.6146488  78.0307292  71.3274866  85.1758921  72.0658133  54.1751975
  84.9934494  72.2830014  53.3492968  86.0384534  72.1797146  54.2310589
  85.2763511  72.1148031  54.0606462  84.7873353  83.9046056  61.6174963
  85.6262253  84.1368988  61.6648724  84.8185122  83.0350367  61.5481998
  84.9155071  83.8103002  61.6139607  85.4126056  84.3246931  65.9188268
  85.9524281  84.1818062  66.5891641  84.7296002  84.7243682  66.2872294
  85.3918210  84.3626602  66.0722690  90.8558640  69.0684544  57.2100999
  91.5844801  68.8900499  56.7639155  90.9453533  69.9102624  57.4208177
  90.9765302  69.1668423  57.1754516  94.8366941  80.0037931  61.1133293
  95.5924456  80.4369446  61.1522201  94.9429266  79.3542701  61.6867929
  94.9637112  79.9715415  61.2031318  97.8747112  83.8311209  61.8635696
  97.4382344  83.8347951  62.6194667  97.5410028  84.5116708  61.4315273
  97.7609732  83.9323665  61.9116528  92.4476186  85.8719542  73.1878846
  93.2316602  85.9850389  73.5534588  92.2472780  85.0460679  73.3837532
  92.5342211  85.7666261  73.2713232  80.8163201  80.5447222  66.0722690
  80.5501616  79.7286338  66.2313680  80.8301765  80.5900377  65.2018205
  80.7787924  80.4304126  65.9676172  97.7944595  70.8725037  64.1065123
  98.4370504  70.9423141  64.6927039  98.0467616  70.2054259  63.6044665
  97.9266727  70.7851385  64.1192403  84.7220948  75.3432306  52.6874448
  84.0079125  75.0570486  53.0996880  85.2064917  75.6828932  53.3280835
  84.6880312  75.3513956  52.8430083  85.5661808  74.0825600  68.7189697
  84.8733604  73.6122580  68.9650429  86.1822135  73.8563904  69.2931405
  85.5546338  73.9792732  68.8398850  92.6046579  87.7829644  66.8345301
  91.8061825  87.5429144  67.0919170  93.0532591  87.8344037  67.5812349
  92.5521190  87.7552035  66.9830226 101.0091458  80.5492129  60.7555333
 101.6707892  79.9882797  60.6551241 100.3682870  80.0544159  61.0808024
 101.0120326  80.3928538  60.7887673  91.8968266  83.8462260  53.0636256
  92.3119415  83.5147284  52.3720752  91.0660196  83.6131162  52.9356393
  91.8356275  83.7633516  52.9427103  81.2256615  81.3306001  63.3534434
  81.0432188  81.3052887  62.5006726  81.9606284  81.8004939  63.3923343
  81.3070679  81.3967363  63.2332352  97.2956289  81.5657511  60.4967322
  97.5311878  81.7102710  59.6694172  97.4445853  82.3299919  60.8898835
  97.3522092  81.6996565  60.4330925  84.2902367  78.0491004  69.8616543
  85.0142339  78.0344035  70.3481437  84.3918503  78.7586359  69.3638511
  84.4120576  78.1515707  69.8595329  99.1246746  80.4059177  58.3336925
  99.4554963  80.9386817  57.7277020  99.6979834  80.4598065  58.9898876
  99.2580425  80.4928746  58.3414707  91.6647316  81.5290089  74.7265490
  90.8720297  81.8433600  74.9118109  91.7796243  81.7441557  73.8886274
  91.5642727  81.6073925  74.6303824  94.3378635  78.2524080  59.0160505
  94.4325489  78.9913374  59.4700131  93.7137478  77.8241555  59.4495070
  94.2587665  78.2985400  59.1468653  92.5931109  81.4310292  69.6650786
  93.1669970  80.7937536  69.8199350  92.5145913  81.4314375  68.7960444
  92.6664344  81.3375404  69.5597197  81.1927525  78.2099502  63.5033501
  81.7701028  78.0735953  64.1425746  80.4941587  77.7535286  63.7579085
  81.1748547  78.1221768  63.6355790  94.5901656  80.0972819  52.2497457
  94.5081819  80.1675007  53.1152444  95.2281377  80.6602563  52.0581198
  94.6721494  80.1911791  52.3487407  87.9494827  79.8633557  61.7171984
  87.6914072  79.0305292  61.6903283  88.0043310  80.0891170  60.8764484
  87.9194605  79.7731329  61.5892121  93.0295878  71.9662008  61.8176076
  92.3252204  71.4771194  61.9759996  93.0780852  71.9784483  60.9464521
  92.9325929  71.8951656  61.7115416  86.9229540  77.4171320  62.2036879
  86.3479131  77.5763488  62.8400839  86.5465216  76.7806729  61.7405329
  86.7832352  77.3469133  62.2291437  90.5902828  75.8894669  67.0629257
  90.2017261  75.4648887  66.4081448  89.9257527  76.1376819  67.5706284
  90.4349756  75.8633390  67.0417125 100.2326097  75.6469674  59.8377087
  99.9762662  74.8349615  59.6474970 101.0755411  75.6547241  59.6107274
 100.3192123  75.5281671  59.7761904  76.6686358  77.0611395  60.2181319
  76.7546610  76.6843263  60.9994849  77.2962156  76.6871840  59.7401277
  76.7742909  76.9496877  60.2626796  94.4129190  69.5869298  64.5753241
  94.7939701  68.9047469  64.9621115  93.6092474  69.2978900  64.3928906
  94.3505651  69.4436346  64.6057297  91.6941766  80.1193274  55.2606064
  92.5082405  80.4108167  55.1488835  91.6300908  79.4653136  54.6864357
  91.8044505  80.0658468  55.1594901  97.9151257  82.8019270  69.6735640
  97.6789894  81.9707335  69.5547700  98.5594486  82.7504877  70.2590484
  97.9745927  82.6716958  69.7421533  87.5649675  83.5914791  60.3878376
  88.2023622  83.3526539  60.9330169  87.9904746  83.7951950  59.6531537
  87.7225841  83.5865801  60.3595533  82.2562317  85.8303128  64.2712680
  82.2966462  86.1017979  63.4432459  82.8156841  86.3545036  64.6870468
  82.3445663  85.9478883  64.2104568  88.2052490  78.8117081  54.7253265
  88.5897642  78.5924788  55.4769811  87.9564110  79.6380026  54.8554342
  88.2254562  78.9015227  54.8554342  88.3721030  72.0923496  74.4415850
  88.0574471  72.8623059  74.1785412  88.0510963  71.5293752  73.8568077
  88.2779949  72.1233765  74.3157200  98.9387677  82.5863719  65.7363934
  98.6333494  83.3191775  66.0977250  98.2193893  82.1801648  65.4556720
  98.7875020  82.6345452  65.7477071  89.9471147  84.0687214  62.0672162
  90.0210155  83.9062386  62.9214012  90.7640653  84.2577403  61.8232644
  90.0787505  84.0723956  62.1570188 104.6389469  79.2256719  65.0632278
 104.5713970  79.2452678  64.1934865 104.6245132  80.0687047  65.2887949
 104.6268226  79.3530454  64.9684755  83.7076903  84.4145077  59.0966606
  82.8815021  84.6606814  58.9700885  83.7688895  84.3357158  59.9628664
  83.5951070  84.4390026  59.2055550  85.9252927  70.4814018  60.0562046
  85.0575353  70.5536617  60.1219655  86.2128131  71.2836097  60.2450021
  85.8392675  70.6108165  60.0936813  95.0485816  70.6291877  68.3873368
  95.7939408  70.4401687  67.9736793  94.6323120  71.1550115  67.8287224
  95.0970790  70.6794022  68.2437941  88.4875732  87.0321957  56.7985636
  88.7774031  86.6410938  56.0744862  89.2179213  87.2138662  57.2390911
  88.6382617  87.0015771  56.7568443 102.4248087  78.0001106  63.3378873
 102.9756008  77.3669175  63.5775965 102.4092202  78.5316498  64.0294377
 102.5033283  77.9850054  63.4757731  89.0770478  81.8339703  67.8838766
  88.5782171  82.5455471  67.9623655  89.8870702  82.1540369  67.8456929
  89.1226584  81.9866551  67.8895335  86.4281648  89.0089339  59.8645785
  86.2081943  88.7186694  60.6572452  86.2076170  88.3504294  59.3363698
  86.3629242  88.8689048  59.9034694  85.3398595  81.0962656  62.1301487
  85.0511844  80.4700127  62.6647214  86.2081943  81.0382943  62.1966168
  85.4258847  80.9950200  62.2192442  96.1276493  76.2397439  62.4483469
  95.7841259  75.5187774  62.7990719  96.2269535  76.0311290  61.6061827
  96.0918536  76.1021642  62.3755149  88.5949604  90.3818729  58.6476478
  89.2473662  89.8495172  58.8767504  87.8975212  90.0287382  59.0344352
  88.5880322  90.2508252  58.7388646  85.5430869  82.7357907  58.0543852
  86.2976837  83.1170946  58.2679315  84.9501481  83.1869051  58.5090549
  85.5667582  82.8586734  58.1526731  96.5889522  82.7023143  57.9907457
  97.1547555  83.3616353  57.9066000  95.9417425  83.0472841  58.4623859
  96.5768278  82.8505085  58.0480214  88.0037536  74.6920747  73.1801064
  87.1937311  74.9978527  73.0690907  88.4812222  75.4126330  73.2953649
  87.9541014  74.8435348  73.1808136  86.8629095  83.9066468  63.4283968
  86.3409849  84.0466760  64.1135832  87.2503115  83.1477133  63.6186085
  86.8432796  83.8151992  63.5585044  83.8520279  73.9572277  57.4978922
  83.5645075  73.5873547  56.7610870  84.5390747  74.4267132  57.2362627
  83.9109176  73.9719246  57.3493998  93.0596100  85.6461927  57.4144536
  92.8182776  84.9129788  57.0071601  93.2397433  86.1948784  56.7610870
  93.0503724  85.6184319  57.2574759  88.2895421  80.9370487  58.8265459
  88.0938203  81.5445222  58.2325762  88.5129766  80.2438431  58.3457133
  88.2930062  80.9248013  58.6681539  86.6873951  77.8225225  58.9446327
  87.4096603  77.9866383  58.4850133  86.2081944  78.5434890  58.8385667
  86.7237681  77.9523455  58.8611941  94.6467458  74.1589024  64.3243012
  93.8078559  74.1850303  64.0881275  94.7171826  74.8059759  64.9048358
  94.5335852  74.2585150  64.3752129  84.3381567  80.2283298  68.0500467
  84.8502664  80.5067551  67.4009227  84.0517910  80.9672592  68.4163280
  84.3716431  80.3785651  68.0090345  93.0936737  71.0574401  59.0570628
  93.7963089  70.8582149  58.5790586  92.8280925  70.2850343  59.3639471
  93.1583369  70.9137367  59.0316069  98.5224982  79.3657011  61.6104254
  98.4358957  79.5212437  62.4639032  98.0675462  80.0095086  61.2363659
  98.4428239  79.4832766  61.6811360  81.4248474  74.7353489  58.3464203
  81.5264610  75.5379651  58.6745179  82.2204361  74.5340825  58.0487284
  81.5576379  74.8239388  58.3499559  87.8565293  72.3209686  68.1101508
  87.6648490  72.3364821  68.9600932  88.7063889  72.5173360  68.0868163
  87.9541015  72.3524037  68.2324803  82.2412206  74.8500668  66.0885325
  82.0997698  73.9984608  66.2129833  82.5252769  74.8929328  65.2647531
  82.2620052  74.7300418  65.9852949  92.3950798  76.6867758  60.2329813
  92.1485513  76.6063509  61.0666602  92.7235921  75.9021226  60.0392341
  92.4072042  76.5594023  60.3277336  96.2898847  83.3951117  64.0216594
  96.1513206  84.0932163  64.5265337  95.5098845  83.2399774  63.6652776
  96.1542074  83.4751284  64.0442869  94.6276932  79.6947493  70.2738976
  94.6224971  78.8227309  70.2781403  95.3337926  79.8935662  69.8008432
  94.7321936  79.5951367  70.2046011  88.3547826  79.4224476  69.6452796
  88.4991201  80.0025685  69.0095906  88.7023474  79.8000773  70.3502651
  88.4275287  79.5645180  69.6551791  90.5267743  78.6214645  67.4277928
  89.7791057  78.8145659  67.0226206  90.6809268  77.7959864  67.1902049
  90.4390170  78.5279756  67.3323334  87.4275581  87.6127248  66.5113823
  87.5765144  87.0530164  65.8587227  88.2075583  87.6919250  66.8946342
  87.5649674  87.5412814  66.4710772  97.7852220  82.7529371  54.7833094
  97.4059029  81.9666509  54.7762383  97.1218465  83.3016228  54.6404738
  97.6310695  82.7174195  54.7613890  89.9528881  87.7841891  67.7898314
  89.8772552  87.1150702  68.3449102  89.8818740  88.4859679  68.3038980
  89.9309488  87.7886798  67.9475162  90.7669520  72.5165195  68.3173332
  91.2242134  73.2489170  68.4446124  90.8425849  72.0931661  69.0760587
  90.8460490  72.5622434  68.4474408  95.2396846  65.6955071  62.1867174
  95.3580414  66.1531534  61.4534477  95.0659022  64.8900332  61.9003392
  95.2316017  65.6448843  62.0368108  90.6099128  86.3042890  58.6221920
  91.3749019  86.0352534  58.3004584  90.5077218  85.8192900  59.3391983
  90.7080624  86.1932455  58.6801747  88.6451898  74.5067299  65.1615156
  87.8547973  74.3258760  65.4832491  89.0412521  73.7294252  65.1445450
  88.5868774  74.3654760  65.2067704  93.1317789  83.3355074  50.6021869
  93.8990774  83.3955199  50.1927721  92.6849098  82.7635515  50.1178188
  93.1791216  83.2591649  50.4699579  94.0295584  82.1409730  62.8874601
  93.3540586  81.9094962  63.3887988  94.0387960  81.5330913  62.2616706
  93.9314089  82.0168655  62.8690754  91.1589728  76.9827559  69.6438654
  91.0948869  77.8437515  69.5158791  91.2986916  76.6659552  68.8434206
  91.1705198  77.0627725  69.5066867  96.0312319  84.9974862  55.1184779
  96.1132156  85.8041848  54.7946230  96.5162061  85.0170821  55.8425553
  96.1149477  85.1195524  55.1771678  89.8408822  79.6759698  63.7854857
  89.4171071  79.8764197  63.0493876  89.6653677  78.8288546  63.8979157
  89.7519703  79.5808479  63.6928547  89.3420515  91.1910211  66.2476315
  89.8316446  90.4921000  66.0651979  88.7704748  90.8934081  66.8352372
  89.3305045  91.0436435  66.3077355  85.1291267  80.1711749  59.2182830
  85.2855886  80.1058552  60.0738822  85.4691860  80.9460302  59.0061510
  85.2024502  80.2760947  59.3137424  91.6670412  79.5469633  58.0876193
  92.2085957  79.0440014  58.5514814  91.9816971  79.4934828  57.2765678
  91.7934809  79.4649054  58.0360005  95.5387519  83.7572280  75.2003105
  96.3522384  83.4857429  75.3608238  95.3782485  83.4579820  74.3963301
  95.6357467  83.6727206  75.1048511  89.8356861  84.9386984  55.3716221
  89.9049682  84.0801523  55.5109222  90.6145316  85.1558865  55.0435246
  89.9609711  84.8439848  55.3433378  92.8159681  74.4405937  68.1398494
  93.0301651  73.8016852  67.5861848  92.1993580  74.8851761  67.7106355
  92.7565010  74.4116081  67.9948925  94.2264349  87.3624686  59.5852714
  93.8344141  87.0591401  58.8675581  94.3817421  88.1993776  59.3957668
  94.1917939  87.4408522  59.4509212  81.7025528  77.3546700  59.5343597
  82.0824493  77.7731245  58.8703864  81.1280893  77.9360155  59.8412440
  81.6736853  77.5024559  59.4820338  94.9798769  76.0495003  69.0781801
  94.1675451  75.7420893  69.1594973  95.4388704  75.5694003  69.6424513
  94.9279154  75.9331495  69.1736395  94.3904024  83.9274675  59.5258745
  94.0318678  84.0989317  60.3022777  93.9042734  84.3887880  58.9686743
  94.2662721  84.0213646  59.5584014  89.1792389  79.6073840  52.0658979
  89.4684914  80.3838722  52.3402554  89.2664188  79.0962571  52.7673479
  89.2346645  79.6465758  52.2101477  92.0752276  77.4555074  73.8610503
  92.5451908  78.0797190  74.2478377  92.1214157  76.7872050  74.4203718
  92.1520152  77.4489754  74.0010574  91.3015784  70.1005062  66.4152159
  90.9147537  70.1254093  67.1965689  90.8148721  69.5346740  65.9626676
  91.1728292  70.0200812  66.4640063  95.5508763  84.8178571  70.4725946
  96.1888484  84.3238766  70.1388402  94.9082855  84.7455971  69.8878173
  95.5502990  84.7337579  70.3368301  97.2765763  76.6667716  65.0391861
  96.8493371  76.5794065  64.2839961  96.6391816  76.7745492  65.6246706
  97.1195370  76.6700376  65.0137303  90.9672925  66.9872047  68.7062419
  91.5966043  67.5232347  68.4283490  91.1358788  66.8949406  69.5575985
  91.0850720  67.0533409  68.7910947  90.7686840  71.7743242  70.9788831
  91.5960270  71.5028391  71.0347445  90.7894686  72.5704083  71.3352649
  90.8939690  71.8522996  71.0404014  95.6063020  85.5098379  67.1131303
  96.3955398  85.1587444  67.2333384  95.7806617  86.3234767  66.8507936
  95.7483301  85.5784236  67.0919171  85.3456330  78.9207105  64.1659091
  84.5044337  78.8210979  64.3737985  85.5546338  79.6902585  64.5173412
  85.2521023  79.0199148  64.2486406  82.8231897  76.5426641  61.9943842
  82.4288595  76.6169653  61.2193952  82.2672014  76.9284588  62.5452204
  82.6834709  76.6108416  61.9611502  94.4596844  69.5207935  61.6747721
  94.6646437  69.4530243  62.5204718  94.1323268  70.3266757  61.6068898
  94.4412092  69.6293876  61.7907376  89.1572995  76.8488504  63.4156689
  88.8536132  76.2944492  64.0167097  88.4552416  77.0280714  62.9284723
  89.0089205  76.7933286  63.4326395  88.2139092  74.1589024  57.9801391
  88.4898826  73.4407936  57.5678958  88.8137761  74.7573943  57.7722497
  88.3432357  74.1409394  57.8882152  87.2191346  84.0638224  68.1228787
  87.1111701  84.0740287  68.9890845  87.4287127  84.8893005  67.9333741
  87.2341457  84.1879299  68.2232878  97.7130531  70.0739700  61.1550486
  97.1004845  70.5610102  61.5404218  97.8094706  69.3983191  61.6988138
  97.6368429  70.0458008  61.2929345  91.7149612  71.8302541  56.2547986
  92.1693359  72.0013101  56.9795830  92.1889658  71.2170652  55.8545762
  91.8517933  71.7653426  56.3021747  85.2365138  81.3150867  65.5850724
  84.6453071  81.9560365  65.5553739  85.9986161  81.7388484  65.5582024
  85.2613398  81.4726705  65.5765872  85.6325761  72.4752865  66.2518742
  86.0927242  72.5491794  66.9893866  85.6781867  73.2734119  65.9018563
  85.7076316  72.6047012  66.3091498  87.2809110  73.1419559  70.8190769
  86.8894676  72.4952907  71.2546547  87.4494973  73.7330995  71.4385024
  87.2480021  73.1333827  70.9753475 101.3555559  81.1456637  66.5828003
 101.4138683  81.5943285  67.3287979 100.7222027  81.5555449  66.1458083
 101.2706855  81.2730371  66.6280551  94.9954654  86.7660178  63.0182749
  94.7974343  87.2550993  62.3238960  94.3742365  86.9701420  63.5966882
  94.8742219  86.8676717  63.0005972  89.0562632  78.5345075  57.3592993
  89.8004677  78.9219352  57.5975943  89.2023329  77.6902501  57.5233481
  89.1873218  78.4675548  57.4186963  90.9742208  70.3295334  62.3924854
  90.1278253  70.5018142  62.2666204  90.9713340  69.5244678  62.7290683
  90.8489358  70.2356363  62.4235981  92.0440508  74.1070549  63.2586912
  91.5700463  73.5812311  63.7692223  92.4158644  73.5600021  62.6901774
  92.0290397  73.9486545  63.2502060  82.4213538  76.1042055  68.6270458
  83.2839151  76.0037764  68.5407788  82.0905321  75.5236765  68.0656030
  82.4998735  76.0033682  68.5315864  98.3077239  79.1672924  64.6693693
  98.0675462  78.3279339  64.6736119  98.7869246  79.2473091  65.3934466
  98.3429423  79.0554324  64.7768495  93.9724008  75.0007103  56.3212666
  93.4447027  75.0835847  55.6318375  94.4319716  75.7424975  56.3177311
  93.9625858  75.1227766  56.2187361 100.3082426  75.9474381  62.6222952
 100.0692196  75.9070216  61.7843737 100.4716327  76.7945533  62.7488673
 100.2972729  76.0666466  62.5176434  96.9128456  80.3324331  68.5527997
  97.6362655  79.8796857  68.3739017  96.6478418  80.6128996  67.7700325
  96.9809729  80.3075299  68.4106713  85.7815324  74.9284504  65.2880876
  85.1568395  74.9402896  64.6806829  85.4460919  75.4044679  65.9372117
  85.6400816  75.0003021  65.2937445  85.9657073  73.2709623  51.3453561
  85.6169877  73.9229348  51.8085111  85.4853519  73.2566736  50.6177433
  85.8427317  73.3652676  51.3064653  82.4941000  82.9884964  66.7284641
  81.9640925  82.2977403  66.7779615  82.7666093  82.9795150  65.8997349
  82.4565722  82.8852096  66.6132057  93.5261090  83.5710667  55.4522323
  94.2495289  84.0368780  55.3086897  93.0861682  83.6384276  54.7019920
  93.5676783  83.6494503  55.3207105  92.6947246  80.4308209  66.7023012
  92.0804239  79.8866259  66.9971648  93.2114530  79.9172445  66.2228828
  92.6802908  80.2744618  66.6747241  91.9343543  81.5012479  64.4367311
  91.5071151  80.8762198  64.0032746  91.9268487  81.2187401  65.2626318
  91.8702684  81.3665260  64.4947138  85.0506070  76.5377652  67.5055745
  85.2099557  75.7820976  67.9107467  84.8698963  77.0868592  68.1596483
  85.0471429  76.5071466  67.6618451  92.9926373  68.7038888  68.0606534
  92.4966934  68.9002562  67.3698101  93.7495435  69.1031556  67.8895336
  93.0313197  68.7916621  67.9326671  90.2629252  72.3781234  64.6509845
  90.2871740  71.8441346  63.9622625  90.5140726  71.8698542  65.3135435
  90.3039171  72.2242137  64.6474490  77.7736842  79.6612729  64.0852989
  77.6680291  79.6159573  63.2205073  77.0237062  80.0066509  64.3667274
  77.6472445  79.7053637  63.9990319  88.7260188  80.6712792  72.1335884
  87.8755818  80.8084506  72.2693529  88.8888315  79.9376570  72.5783585
  88.6244051  80.5826893  72.2191483  87.9644938  77.6212562  66.3289488
  87.1336868  77.7886380  66.1224736  87.9096455  77.2448512  67.1138374
  87.8334353  77.5902293  66.4138016  86.3380982  75.8968153  56.8579606
  86.4783943  76.3940617  57.5608247  86.8363515  75.1954448  56.9993820
  86.4322063  75.8670132  56.9831185  86.3681204  76.7635264  54.1872183
  87.0026284  77.3595689  54.1221645  86.4506815  76.4638722  55.0018053
  86.4737755  76.8076172  54.2975269  99.3463770  79.2950742  67.0558547
  99.9381610  79.9347992  67.0876745  99.7822765  78.5973778  67.3450614
  99.4982201  79.2869092  67.1039380  87.9460187  72.6949240  54.1617625
  88.2676028  72.2152322  53.5076887  88.2087131  73.5048886  53.9708436
  88.0326213  72.7439138  54.0373117  91.1757160  83.7168114  67.6816441
  90.6682251  84.2703961  68.1257071  90.8783806  83.7776404  66.8635215
  91.0562045  83.8074425  67.6264898  93.3419342  72.0821434  66.5241104
  93.7674414  71.6293960  65.9124630  92.7276335  71.5281504  66.8005891
  93.3147987  71.9335410  66.4746129  82.8734192  78.9603105  57.4561729
  83.3826421  79.5567612  57.8373034  83.3468464  78.6929079  56.7738148
  83.0177568  79.0088920  57.4116251  93.7864940  87.6331372  55.6120384
  93.0694250  87.4592234  55.1467622  94.4371678  87.3983944  55.0795870
  93.7766791  87.5727164  55.4649602  91.7813565  68.5536533  59.9331681
  91.1381883  68.4034180  60.5016819  91.4412972  68.3078879  59.1680785
  91.6358642  68.4948656  59.9034696  96.3712911  76.5095960  59.3561689
  95.7004101  77.0525662  59.2274755  97.0652662  76.9790816  59.1143384
  96.3741779  76.6594231  59.3017217  90.4199645  88.6492672  64.5873448
  90.1965300  87.8911501  64.9557474  89.9309488  88.6790693  63.8653887
  90.3143094  88.5414897  64.5350189  96.5341039  72.9651844  62.2652063
  96.8868649  72.5381567  62.9397861  95.6755840  72.8802687  62.3953139
  96.4590484  72.8896584  62.3847073  85.2324724  75.5959364  60.3234909
  84.5136713  76.0123496  60.5907773  85.6037086  76.1613602  59.7726547
  85.1816656  75.7408645  60.2817716  94.5324305  76.2287212  66.2136905
  94.5122232  76.0470508  67.0671684  94.5803505  77.0999231  66.1896489
  94.5358946  76.3303751  66.3360200  92.4770635  82.8174404  72.1385381
  92.4366489  82.1724081  71.5530537  93.2893953  82.7611022  72.4510794
  92.5913788  82.7133371  72.0982331  89.0678102  88.8693130  62.0410532
  88.6538501  88.2067261  61.6514374  89.7525476  89.0170989  61.5206227
  89.1076474  88.7933788  61.9067029  92.4343396  88.0283216  62.7934149
  92.0359679  88.1385486  62.0254969  91.8194616  88.2365282  63.3760709
  92.2842286  88.0756784  62.7665448  91.0071298  74.6357363  55.6608289
  90.4136138  74.9574360  55.1092856  91.0446576  73.7898459  55.4529395
  90.9245687  74.5581692  55.5491060  97.9665099  68.0870256  63.1936375
  97.4595964  67.3799395  63.1257553  98.7632533  67.7563444  63.3237452
  98.0092338  67.9343407  63.2035370  93.8829115  74.5936868  59.0910039
  93.6542808  74.6169569  58.2488397  94.1427191  73.7694335  59.2105049
  93.8875303  74.4752948  58.9835237  88.1648343  76.4471341  68.6935139
  87.6527246  75.8392524  69.0520170  87.9927839  77.1627933  69.1609115
  88.0637980  76.4634640  68.8151363  86.9373877  73.1313414  60.3864235
  87.4131244  73.4930494  59.7514416  86.4362477  73.7869882  60.6664377
  86.9339236  73.2807603  60.3340976 100.1685239  82.6035182  56.1777240
 100.5518845  83.3526538  56.4075337  99.3729352  82.8501002  55.9189229
 100.1079021  82.7504876  56.1734813  92.0417414  74.3695586  71.1337395
  92.5988844  74.1409395  70.5015860  91.7178479  75.1301251  70.8572607
  92.0763824  74.4479422  70.9993892  79.9116122  77.7955782  66.6025991
  79.3642842  77.1256427  66.7206859  80.7008501  77.4285630  66.6669458
  79.9468306  77.6420768  66.6294691  89.7600531  77.4563239  72.0989402
  90.5111858  77.7714916  72.4128956  89.9523107  77.2542410  71.2723324
  89.8991945  77.4730621  72.0232798  88.9800530  75.2754614  53.7537619
  89.3599495  75.2934243  52.9688733  88.2393127  75.7208603  53.6328466
  88.9269368  75.3436389  53.6201187  96.6085821  73.5836805  59.3413197
  96.6080047  73.4285462  60.1997474  96.4042001  74.4299792  59.2854583
  96.5785599  73.6857426  59.4601137  78.6703092  77.0076590  63.7572014
  78.4924853  76.5553199  64.4826929  78.3822114  77.8102751  63.9410491
  78.6016045  77.0599147  63.8915517  94.3326673  78.2634307  62.9949404
  94.8280338  77.5457302  62.9553424  93.5226449  77.9605105  62.8803891
  94.2870566  78.1131953  62.9723130  89.7785285  82.1132120  55.1446409
  88.9696607  81.7898794  55.0979718  90.2860193  81.4065342  55.0774657
  89.7334951  81.9613437  55.1276703  80.4075562  79.5404313  60.8693773
  79.5421081  79.5290004  60.7576544  80.5074378  79.3534536  61.7164912
  80.2949729  79.5110375  60.9782717  96.3978492  81.0137994  65.6826533
  96.8233563  80.4912416  65.1296958  96.0335412  81.6118832  65.1615156
  96.4065094  81.0248222  65.5235543  86.0332572  89.3102212  64.4423878
  86.3479131  90.1238600  64.4501660  86.4425985  88.9252431  65.1106037
  86.1400670  89.3730914  64.5427970  92.9857091  84.7272259  62.0127690
  93.4568270  85.4412521  62.1817676  93.3217270  84.1271009  62.5487560
  93.1052206  84.7443723  62.1160066  95.0734076  86.3373572  74.1919762
  95.1831041  85.5482133  74.5476510  95.4024973  86.2479508  73.3894100
  95.1386482  86.2079425  74.1262153  89.9026586  69.4999729  68.9685785
  90.0354492  68.7030723  69.2966761  90.2871739  70.0266132  69.5484061
  89.9782915  69.4599646  69.1029288  93.6231038  84.5190193  68.7755383
  93.0751984  83.8948077  68.5075448  94.0844066  84.7084465  68.0599462
  93.6098247  84.4549243  68.6305814  92.9758941  66.4230055  65.5666878
  92.1704905  66.3127785  65.8834717  92.8465677  66.5242511  64.7096744
  92.8379074  66.4213726  65.4874919  96.4324902  72.5875547  66.1606575
  95.8487891  73.0884754  65.7484143  96.7529196  72.0805104  65.5270899
  96.3938077  72.5867382  66.0065082  88.9719701  71.5016142  56.4365250
  89.7935396  71.6714455  56.1946945  88.5089352  71.6563403  55.7131548
  89.0250863  71.5497875  56.2936894  83.3745592  83.2575320  64.0902487
  83.9790449  83.2171155  63.4616307  83.1672904  84.1046472  64.1206543
  83.4334489  83.3763323  64.0018603  93.1889364  85.5241266  65.3064724
  94.0087738  85.3804232  65.5681019  92.9083442  86.1487464  65.8481162
  93.2686107  85.5951618  65.4252664  78.6096874  82.2409938  63.9601410
  78.5121152  81.4306209  64.2691467  79.3925744  82.2201731  63.5747678
  78.7113011  82.1177028  63.9488273 109.6603014  93.1806117  58.2707600
 109.6297019  94.0350754  58.4425870 110.2584363  92.8801410  58.8293744
 109.7440172  93.2622614  58.3782403 102.8602699  92.2681768  63.0260531
 102.0040595  92.4290267  63.0769648 102.9070353  91.3973832  63.0465592
 102.7401811  92.1632570  63.0366597  97.2443839 101.8044486  58.7897762
  96.4926738 101.4260025  58.5613808  97.6929851 101.8362920  58.0416573
  97.1993506 101.7530093  58.6455265 106.1696416  98.5368294  72.6320987
 106.8763183  98.0420325  72.7607921 106.3584351  98.9777375  71.9023645
 106.3024321  98.5286644  72.5430032 102.6968799 102.2269856  54.2183310
 102.3620167 102.9046777  53.7827532 103.2095669 101.8375167  53.6300181
 102.7234380 102.2694434  54.0670101 102.2373090 104.1784124  60.1594421
 102.6212469 104.7471023  59.6199196 102.1732231 103.4533635  59.6800237
 102.2846517 104.1559588  60.0088284 105.7054520  94.3273812  65.6692183
 106.2510480  95.0058899  65.7286152 105.6471397  94.1861273  64.8093764
 105.7770435  94.4065814  65.5504243  98.8228595 101.8162878  61.0560535
  98.9238958 101.0063232  61.3657663  98.2270340 101.7219825  60.4260213
  98.7501134 101.6827906  61.0086773 107.4819589  95.7558419  56.5425910
 107.3659115  96.5066105  56.9718048 108.2775476  95.4982373  56.7921997
 107.5824178  95.8293266  56.6430002  98.6629335 106.7340468  62.4575391
  99.3066790 107.1753632  62.8471549  98.9885590 105.9293894  62.3705650
  98.8061163 106.6805662  62.5020868  92.0193639  97.8383165  60.6812869
  91.7843824  97.0050817  60.5745137  92.1579280  98.1187831  59.8674070
  92.0049302  97.7566668  60.5455224  94.3183727  90.0068896  63.5797176
  93.6988758  89.4161543  63.4107191  94.2167590  90.5980331  62.9461500
  94.2121402  90.0072978  63.4602166  99.3649914  99.7452442  57.8295253
  99.6865755 100.2857650  57.2256561 100.0122011  99.1749214  57.9617543
  99.5075970  99.7411618  57.7602288 101.4151622  91.7468437  57.9129639
 102.1131787  91.9256565  58.4051103 101.7303955  91.2238777  57.2900029
 101.5646960  91.6962209  57.8931650  94.0452860  93.5521177  65.8240745
  93.9211557  94.1383623  66.4590564  94.6971144  93.0581373  66.1253020
  94.1226509  93.5659982  65.9626675 101.6039558  98.1338882  57.9009431
 102.0433193  97.5255983  58.3464204 101.4544221  97.7546256  57.1294896
 101.6461024  97.9877353  57.8528598  99.0711201  96.7282894  65.1028256
  99.7160203  96.2355337  64.7839205  99.3112978  96.8707681  65.9294335
  99.2021786  96.6760336  65.1777790 101.6097292  99.5737800  64.7535149
 101.8920535  98.7789206  64.5321905 102.3383453 100.0518387  64.7740210
 101.7586856  99.5272397  64.7238164  99.5878486  87.1160834  61.9950914
  99.2581816  87.5671978  61.3254613  98.9123488  87.0376997  62.5423921
  99.4388922  87.1711969  61.9774137 105.2048894  96.4866064  54.8540200
 105.1200189  97.3427030  54.9989769 105.6933278  96.2110388  55.5222359
 105.2637792  96.5723385  54.9742282 106.7954894  83.1046357  60.2400525
 106.4808335  83.7949835  60.6720947 106.2781835  83.0491139  59.5386025
 106.6719364  83.1981245  60.1997474 106.1367328  93.1050858  56.3537935
 105.6078799  93.3210491  57.0135241 106.6592348  93.7986996  56.2738905
 106.1355781  93.2393995  56.4393534 111.5915381  98.6797162  61.7270980
 110.7613084  98.8907806  61.8904396 111.5424633  97.8534217  61.4513263
 111.4622116  98.5886769  61.7108345  98.0266935  97.0014075  55.1545403
  97.4424151  97.5064106  55.5611267  97.6237031  96.7756461  54.4141995
  97.8806239  97.0422323  55.1050428  93.5810964 102.7168836  61.9569075
  93.0978542 103.4419325  61.9328658  94.3934282 103.0144966  62.0679233
  93.6301712 102.8671189  61.9696354  99.6525118 101.5101016  64.5618889
  99.1352060 101.1508431  63.9580197 100.3499509 100.9863191  64.5724955
  99.6790699 101.3798704  64.4749148 103.3088710 101.9595830  70.5235062
 103.3972056 101.7721971  71.3713273 103.7378423 101.3133260  70.1239909
 103.3850812 101.8358838  70.5906814 100.8759170 101.2426990  69.5052724
 100.3130005 100.8299600  70.0292386 101.6380193 101.1679896  69.9245868
 100.9053618 101.1704391  69.6445725 102.4844150  93.2479727  53.6314324
 102.7240154  93.4557710  52.8189667 102.8059991  92.4437235  53.7403268
 102.5681308  93.1593828  53.5274877  97.7934440  85.1773122  57.4773862
  98.5480408  85.5451439  57.2390912  97.6161975  85.5512677  58.2453041
  97.8788918  85.2871310  57.5558750  96.4355161 103.2325012  62.1089355
  97.1375741 102.7177001  62.1662111  96.3552644 103.5599163  62.9136230
  96.5278922 103.2039238  62.2362147 111.0869339  91.3267563  65.5221401
 110.2497760  91.3969750  65.7568996 111.0557570  91.3292058  64.6495703
 110.9587621  91.3377790  65.4280949  97.4834068  93.4700599  71.2369770
  97.6554572  93.3606493  72.0855051  98.0203425  94.1155004  71.0000962
  97.5879072  93.5492600  71.3274866  96.1491505  87.5843441  54.1751975
  95.9667078  87.8015322  53.3492968  97.0117118  87.6982454  54.2310589
  96.2496094  87.6333339  54.0606462  95.7605937  99.4231364  61.6174963
  96.5994836  99.6554296  61.6648724  95.7917706  98.5535675  61.5481998
  95.8887654  99.3288310  61.6139607  96.3858640  99.8432239  65.9188268
  96.9256865  99.7003370  66.5891641  95.7028586 100.2428990  66.2872294
  96.3650794  99.8811910  66.0722690 101.8291224  84.5869852  57.2100999
 102.5577384  84.4085807  56.7639155 101.9186117  85.4287932  57.4208177
 101.9497886  84.6853730  57.1754516 105.8099525  95.5223239  61.1133293
 106.5657040  95.9554754  61.1522201 105.9161849  94.8728009  61.6867929
 105.9369695  95.4900723  61.2031318 108.8479696  99.3496517  61.8635696
 108.4114928  99.3533259  62.6194667 108.5142611 100.0302016  61.4315273
 108.7342316  99.4508972  61.9116528 103.4208769 101.3904849  73.1878846
 104.2049186 101.5035697  73.5534588 103.2205364 100.5645987  73.3837532
 103.5074795 101.2851569  73.2713232  91.7895785  96.0632530  66.0722690
  91.5234200  95.2471646  66.2313680  91.8034349  96.1085685  65.2018205
  91.7520507  95.9489434  65.9676172 108.7677179  86.3910344  64.1065123
 109.4103087  86.4608449  64.6927039 109.0200199  85.7239567  63.6044665
 108.8999311  86.3036693  64.1192403  95.6953532  90.8617614  52.6874448
  94.9811709  90.5755794  53.0996880  96.1797500  91.2014240  53.3280835
  95.6612895  90.8699264  52.8430083  96.5394391  89.6010908  68.7189697
  95.8466188  89.1307888  68.9650429  97.1554719  89.3749212  69.2931405
  96.5278921  89.4978040  68.8398850 103.5779163 103.3014952  66.8345301
 102.7794408 103.0614452  67.0919170 104.0265174 103.3529344  67.5812349
 103.5253774 103.2737343  66.9830226 111.9824042  96.0677437  60.7555333
 112.6440476  95.5068105  60.6551241 111.3415454  95.5729467  61.0808024
 111.9852909  95.9113846  60.7887673 102.8700850  99.3647568  53.0636256
 103.2851998  99.0332592  52.3720752 102.0392779  99.1316470  52.9356393
 102.8088858  99.2818824  52.9427103  92.1989198  96.8491309  63.3534434
  92.0164772  96.8238195  62.5006726  92.9338867  97.3190247  63.3923343
  92.2803262  96.9152671  63.2332352 108.2688873  97.0842819  60.4967322
 108.5044462  97.2288018  59.6694172 108.4178436  97.8485227  60.8898835
 108.3254676  97.2181873  60.4330925  95.2634950  93.5676312  69.8616543
  95.9874922  93.5529343  70.3481437  95.3651087  94.2771667  69.3638511
  95.3853159  93.6701015  69.8595329 110.0979329  95.9244485  58.3336925
 110.4287546  96.4572125  57.7277020 110.6712418  95.9783373  58.9898876
 110.2313009  96.0114054  58.3414707 102.6379900  97.0475396  74.7265490
 101.8452880  97.3618908  74.9118109 102.7528827  97.2626865  73.8886274
 102.5375310  97.1259233  74.6303824 105.3111219  93.7709388  59.0160505
 105.4058073  94.5098682  59.4700131 104.6870062  93.3426863  59.4495070
 105.2320249  93.8170708  59.1468653 103.5663692  96.9495600  69.6650786
 104.1402554  96.3122844  69.8199350 103.4878496  96.9499683  68.7960444
 103.6396927  96.8560712  69.5597197  92.1660109  93.7284810  63.5033501
  92.7433611  93.5921260  64.1425746  91.4674171  93.2720594  63.7579085
  92.1481130  93.6407076  63.6355790 105.5634240  95.6158127  52.2497457
 105.4814402  95.6860315  53.1152444 106.2013960  96.1787871  52.0581198
 105.6454077  95.7097098  52.3487407  98.9227411  95.3818865  61.7171984
  98.6646655  94.5490600  61.6903283  98.9775894  95.6076478  60.8764484
  98.8927189  95.2916637  61.5892121 104.0028461  87.4847316  61.8176076
 103.2984788  86.9956502  61.9759996 104.0513435  87.4969790  60.9464521
 103.9058513  87.4136964  61.7115416  97.8962123  92.9356628  62.2036879
  97.3211714  93.0948796  62.8400839  97.5197799  92.2992037  61.7405329
  97.7564935  92.8654441  62.2291437 101.5635412  91.4079977  67.0629257
 101.1749845  90.9834195  66.4081448 100.8990110  91.6562127  67.5706284
 101.4082340  91.3818698  67.0417125 111.2058681  91.1654982  59.8377087
 110.9495246  90.3534923  59.6474970 112.0487995  91.1732549  59.6107274
 111.2924706  91.0466979  59.7761904  87.6418942  92.5796703  60.2181319
  87.7279194  92.2028571  60.9994849  88.2694739  92.2057148  59.7401277
  87.7475493  92.4682185  60.2626796 105.3861773  85.1054606  64.5753241
 105.7672285  84.4232777  64.9621115 104.5825058  84.8164208  64.3928906
 105.3238235  84.9621654  64.6057297 102.6674350  95.6378582  55.2606064
 103.4814989  95.9293474  55.1488835 102.6033491  94.9838444  54.6864357
 102.7777089  95.5843776  55.1594901 108.8883840  98.3204578  69.6735640
 108.6522478  97.4892643  69.5547700 109.5327069  98.2690185  70.2590484
 108.9478511  98.1902266  69.7421533  98.5382258  99.1100099  60.3878376
  99.1756205  98.8711847  60.9330169  98.9637330  99.3137258  59.6531537
  98.6958425  99.1051109  60.3595533  93.2294901 101.3488436  64.2712680
  93.2699046 101.6203287  63.4432459  93.7889425 101.8730344  64.6870468
  93.3178247 101.4664191  64.2104568  99.1785073  94.3302389  54.7253265
  99.5630226  94.1110096  55.4769811  98.9296694  95.1565334  54.8554342
  99.1987146  94.4200535  54.8554342  99.3453614  87.6108804  74.4415850
  99.0307055  88.3808367  74.1785412  99.0243546  87.0479060  73.8568077
  99.2512533  87.6419073  74.3157200 109.9120261  98.1049027  65.7363934
 109.6066078  98.8377083  66.0977250 109.1926476  97.6986956  65.4556720
 109.7607603  98.1530760  65.7477071 100.9203730  99.5872522  62.0672162
 100.9942739  99.4247694  62.9214012 101.7373237  99.7762711  61.8232644
 101.0520089  99.5909264  62.1570188 115.6122053  94.7442027  65.0632278
 115.5446553  94.7637986  64.1934865 115.5977715  95.5872354  65.2887949
 115.6000809  94.8715762  64.9684755  94.6809487  99.9330385  59.0966606
  93.8547605 100.1792122  58.9700885  94.7421478  99.8542465  59.9628664
  94.5683654  99.9575334  59.2055550  96.8985511  85.9999326  60.0562046
  96.0307936  86.0721925  60.1219655  97.1860715  86.8021405  60.2450021
  96.8125259  86.1293473  60.0936813 106.0218399  86.1477185  68.3873368
 106.7671991  85.9586995  67.9736793 105.6055704  86.6735423  67.8287224
 106.0703374  86.1979330  68.2437941  99.4608316 102.5507265  56.7985636
  99.7506614 102.1596246  56.0744862 100.1911797 102.7323970  57.2390911
  99.6115200 102.5201079  56.7568443 113.3980670  93.5186413  63.3378873
 113.9488592  92.8854482  63.5775965 113.3824786  94.0501806  64.0294377
 113.4765867  93.5035362  63.4757731 100.0503061  97.3525011  67.8838766
  99.5514755  98.0640778  67.9623655 100.8603285  97.6725677  67.8456929
 100.0959168  97.5051859  67.8895335  97.4014232 104.5274647  59.8645785
  97.1814527 104.2372002  60.6572452  97.1808754 103.8689602  59.3363698
  97.3361826 104.3874356  59.9034694  96.3131179  96.6147964  62.1301487
  96.0244427  95.9885435  62.6647214  97.1814527  96.5568251  62.1966168
  96.3991431  96.5135508  62.2192442 107.1009077  91.7582747  62.4483469
 106.7573842  91.0373082  62.7990719 107.2002119  91.5496598  61.6061827
 107.0651119  91.6206950  62.3755149  99.5682187 105.9004037  58.6476478
 100.2206245 105.3680479  58.8767504  98.8707796 105.5472689  59.0344352
  99.5612905 105.7693560  58.7388646  96.5163452  98.2543215  58.0543852
  97.2709420  98.6356254  58.2679315  95.9234065  98.7054358  58.5090549
  96.5400166  98.3772042  58.1526731 107.5622106  98.2208451  57.9907457
 108.1280138  98.8801661  57.9066000 106.9150009  98.5658149  58.4623859
 107.5500862  98.3690393  58.0480214  98.9770119  90.2106055  73.1801064
  98.1669895  90.5163835  73.0690907  99.4544806  90.9311637  73.2953649
  98.9273598  90.3620656  73.1808136  97.8361679  99.4251776  63.4283968
  97.3142432  99.5652068  64.1135832  98.2235699  98.6662440  63.6186085
  97.8165380  99.3337300  63.5585044  94.8252863  89.4757585  57.4978922
  94.5377658  89.1058855  56.7610870  95.5123331  89.9452440  57.2362627
  94.8841760  89.4904554  57.3493998 104.0328684 101.1647235  57.4144536
 103.7915360 100.4315096  57.0071601 104.2130017 101.7134092  56.7610870
 104.0236308 101.1369627  57.2574759  99.2628004  96.4555795  58.8265459
  99.0670787  97.0630530  58.2325762  99.4862350  95.7623739  58.3457133
  99.2662645  96.4433321  58.6681539  97.6606534  93.3410533  58.9446327
  98.3829186  93.5051691  58.4850133  97.1814527  94.0620198  58.8385667
  97.6970265  93.4708763  58.8611941 105.6200042  89.6774332  64.3243012
 104.7811143  89.7035611  64.0881275 105.6904409  90.3245067  64.9048358
 105.5068435  89.7770458  64.3752129  95.3114151  95.7468605  68.0500467
  95.8235248  96.0252859  67.4009227  95.0250494  96.4857900  68.4163280
  95.3449014  95.8970959  68.0090345 104.0669320  86.5759709  59.0570628
 104.7695673  86.3767457  58.5790586 103.8013509  85.8035651  59.3639471
 104.1315953  86.4322675  59.0316069 109.4957566  94.8842319  61.6104254
 109.4091540  95.0397745  62.4639032 109.0408046  95.5280394  61.2363659
 109.4160822  95.0018074  61.6811360  92.3981057  90.2538797  58.3464203
  92.4997194  91.0564959  58.6745179  93.1936944  90.0526133  58.0487284
  92.5308963  90.3424696  58.3499559  98.8297876  87.8394994  68.1101508
  98.6381073  87.8550129  68.9600932  99.6796472  88.0358668  68.0868163
  98.9273598  87.8709345  68.2324803  93.2144789  90.3685976  66.0885325
  93.0730281  89.5169916  66.2129833  93.4985353  90.4114636  65.2647531
  93.2352636  90.2485726  65.9852949 103.3683382  92.2053066  60.2329813
 103.1218096  92.1248817  61.0666602 103.6968505  91.4206534  60.0392341
 103.3804625  92.0779331  60.3277336 107.2631431  98.9136425  64.0216594
 107.1245790  99.6117471  64.5265337 106.4831429  98.7585082  63.6652776
 107.1274658  98.9936592  64.0442869 105.6009516  95.2132800  70.2738976
 105.5957554  94.3412617  70.2781403 106.3070510  95.4120970  69.8008432
 105.7054520  95.1136675  70.2046011  99.3280409  94.9409784  69.6452796
  99.4723785  95.5210992  69.0095906  99.6756058  95.3186081  70.3502651
  99.4007870  95.0830488  69.6551791 101.5000326  94.1399953  67.4277928
 100.7523640  94.3330967  67.0226206 101.6541852  93.3145172  67.1902049
 101.4122754  94.0465064  67.3323334  98.4008164 103.1312556  66.5113823
  98.5497728 102.5715472  65.8587227  99.1808166 103.2104558  66.8946342
  98.5382258 103.0598122  66.4710772 108.7584803  98.2714679  54.7833094
 108.3791612  97.4851817  54.7762383 108.0951049  98.8201536  54.6404738
 108.6043278  98.2359503  54.7613890 100.9261465 103.3027199  67.7898314
 100.8505136 102.6336010  68.3449102 100.8551324 104.0044987  68.3038980
 100.9042072 103.3072106  67.9475162 101.7402103  88.0350503  68.3173332
 102.1974718  88.7674478  68.4446124 101.8158432  87.6116969  69.0760587
 101.8193073  88.0807742  68.4474408  93.9835095  88.2816323  69.4062775
  93.4477284  87.6696681  69.7223543  94.0452859  88.8564459  70.0596442
  93.9130727  88.2763251  69.5498202 106.2129429  81.2140379  62.1867174
 106.3312998  81.6716842  61.4534477 106.0391605  80.4085640  61.9003392
 106.2048600  81.1634151  62.0368108 101.5831712 101.8228198  58.6221920
 102.3481603 101.5537842  58.3004584 101.4809802 101.3378208  59.3391983
 101.6813207 101.7117763  58.6801747  99.6184481  90.0252607  65.1615156
  98.8280556  89.8444067  65.4832491 100.0145104  89.2479560  65.1445450
  99.5601358  89.8840068  65.2067704 104.1050372  98.8540382  50.6021869
 104.8723357  98.9140507  50.1927721 103.6581681  98.2820823  50.1178188
 104.1523799  98.7776957  50.4699579 105.0028168  97.6595038  62.8874601
 104.3273170  97.4280270  63.3887988 105.0120544  97.0516220  62.2616706
 104.9046672  97.5353963  62.8690754 102.1322312  92.5012866  69.6438654
 102.0681453  93.3622823  69.5158791 102.2719499  92.1844860  68.8434206
 102.1437782  92.5813033  69.5066867 107.0044902 100.5160170  55.1184779
 107.0864740 101.3227156  54.7946230 107.4894644 100.5356129  55.8425553
 107.0882060 100.6380832  55.1771678 100.8141406  95.1945006  63.7854857
 100.3903655  95.3949505  63.0493876 100.6386261  94.3473854  63.8979157
 100.7252286  95.0993787  63.6928547 100.3153099 106.7095519  66.2476315
 100.8049029 106.0106308  66.0651979  99.7437331 106.4119389  66.8352372
 100.3037629 106.5621742  66.3077355  96.1023851  95.6897057  59.2182830
  96.2588470  95.6243860  60.0738822  96.4424444  96.4645610  59.0061510
  96.1757085  95.7946255  59.3137424 102.6402995  95.0654941  58.0876193
 103.1818541  94.5625322  58.5514814 102.9549554  95.0120136  57.2765678
 102.7667392  94.9834362  58.0360005 106.5120103  99.2757588  75.2003105
 107.3254968  99.0042737  75.3608238 106.3515069  98.9765128  74.3963301
 106.6090051  99.1912514  75.1048511 100.8089445 100.4572292  55.3716221
 100.8782265  99.5986831  55.5109222 101.5877900 100.6744173  55.0435246
 100.9342295 100.3625156  55.3433378 103.7892265  89.9591245  68.1398494
 104.0034234  89.3202160  67.5861848 103.1726164  90.4037069  67.7106355
 103.7297594  89.9301389  67.9948925 105.1996932 102.8809994  59.5852714
 104.8076724 102.5776709  58.8675581 105.3550005 103.7179084  59.3957668
 105.1650522 102.9593830  59.4509212  92.6758112  92.8732008  59.5343597
  93.0557077  93.2916553  58.8703864  92.1013477  93.4545463  59.8412440
  92.6469437  93.0209867  59.4820338 105.9531353  91.5680311  69.0781801
 105.1408034  91.2606201  69.1594973 106.4121287  91.0879311  69.6424513
 105.9011737  91.4516803  69.1736395 105.3636607  99.4459983  59.5258745
 105.0051262  99.6174625  60.3022777 104.8775318  99.9073188  58.9686743
 105.2395304  99.5398954  59.5584014 103.1806993  83.0691181  63.1285836
 102.3100551  83.0429902  63.0819146 103.4347334  82.8968373  62.3111682
 103.0900553  83.0401325  63.0005973 100.1524973  95.1259148  52.0658979
 100.4417497  95.9024030  52.3402554 100.2396771  94.6147879  52.7673479
 100.2079229  95.1651066  52.2101477 103.0484860  92.9740382  73.8610503
 103.5184491  93.5982498  74.2478377 103.0946740  92.3057357  74.4203718
 103.1252736  92.9675062  74.0010574 100.2056134  85.0797409  64.5859307
  99.6894622  84.3877601  64.7110886  99.6450063  85.7468186  64.5321905
 100.0462647  85.0760667  64.5965373 102.2748367  85.6190369  66.4152159
 101.8880120  85.6439401  67.1965689 101.7881304  85.0532048  65.9626676
 102.1460876  85.5386120  66.4640063 106.5241347 100.3363878  70.4725946
 107.1621067  99.8424074  70.1388402 105.8815438 100.2641279  69.8878173
 106.5235573 100.2522887  70.3368301 108.2498347  92.1853024  65.0391861
 107.8225955  92.0979373  64.2839961 107.6124400  92.2930800  65.6246706
 108.0927954  92.1885684  65.0137303 101.9405509  82.5057355  68.7062419
 102.5698627  83.0417655  68.4283490 102.1091372  82.4134714  69.5575985
 102.0583303  82.5718717  68.7910947 101.7419424  87.2928550  70.9788831
 102.5692853  87.0213699  71.0347445 101.7627270  88.0889391  71.3352649
 101.8672274  87.3708304  71.0404014 106.5795603 101.0283687  67.1131303
 107.3687981 100.6772751  67.2333384 106.7539201 101.8420075  66.8507936
 106.7215885 101.0969544  67.0919171  96.3188914  94.4392412  64.1659091
  95.4776920  94.3396287  64.3737985  96.5278922  95.2087893  64.5173412
  96.2253606  94.5384456  64.2486406  93.7964481  92.0611949  61.9943842
  93.4021178  92.1354961  61.2193952  93.2404597  92.4469896  62.5452204
  93.6567293  92.1293724  61.9611502 105.4329427  85.0393243  61.6747721
 105.6379021  84.9715551  62.5204718 105.1055851  85.8452065  61.6068898
 105.4144675  85.1479184  61.7907376 100.1305578  92.3673812  63.4156689
  99.8268716  91.8129800  64.0167097  99.4284999  92.5466022  62.9284723
  99.9821788  92.3118594  63.4326395  99.1871676  89.6774331  57.9801391
  99.4631410  88.9593244  57.5678958  99.7870345  90.2759251  57.7722497
  99.3164940  89.6594702  57.8882152  98.1923929  99.5823532  68.1228787
  98.0844284  99.5925595  68.9890845  98.4019711 100.4078313  67.9333741
  98.2074041  99.7064607  68.2232878 108.6863115  85.5925008  61.1550486
 108.0737429  86.0795410  61.5404218 108.7827290  84.9168499  61.6988138
 108.6101013  85.5643316  61.2929345 102.6882196  87.3487849  56.2547986
 103.1425943  87.5198409  56.9795830 103.1622242  86.7355960  55.8545762
 102.8250516  87.2838734  56.3021747  96.2097721  96.8336175  65.5850724
  95.6185655  97.4745673  65.5553739  96.9718745  97.2573792  65.5582024
  96.2345982  96.9912013  65.5765872  96.6058344  87.9938173  66.2518742
  97.0659826  88.0677102  66.9893866  96.6514451  88.7919427  65.9018563
  96.6808900  88.1232320  66.3091498  98.2541694  88.6604867  70.8190769
  97.8627259  88.0138215  71.2546547  98.4227557  89.2516303  71.4385024
  98.2212604  88.6519135  70.9753475 112.3288143  96.6641944  66.5828003
 112.3871267  97.1128593  67.3287979 111.6954611  97.0740757  66.1458083
 112.2439438  96.7915679  66.6280551 105.9687238 102.2845486  63.0182749
 105.7706926 102.7736301  62.3238960 105.3474949 102.4886728  63.5966882
 105.8474802 102.3862025  63.0005972 100.0295216  94.0530383  57.3592993
 100.7737261  94.4404659  57.5975943 100.1755912  93.2087809  57.5233481
 100.1605801  93.9860856  57.4186963 101.9474792  85.8480642  62.3924854
 101.1010837  86.0203450  62.2666204 101.9445924  85.0429986  62.7290683
 101.8221941  85.7541671  62.4235981 103.0173092  89.6255856  63.2586912
 102.5433046  89.0997619  63.7692223 103.3891228  89.0785329  62.6901774
 103.0022981  89.4671853  63.2502060  93.3946122  91.6227363  68.6270458
  94.2571735  91.5223072  68.5407788  93.0637905  91.0422072  68.0656030
  93.4731318  91.5218990  68.5315864 109.2809822  94.6858232  64.6693693
 109.0408045  93.8464647  64.6736119 109.7601830  94.7658399  65.3934466
 109.3162006  94.5739632  64.7768495 104.9456592  90.5192411  56.3212666
 104.4179610  90.6021155  55.6318375 105.4052300  91.2610283  56.3177311
 104.9358442  90.6413073  56.2187361 111.2815010  91.4659689  62.6222952
 111.0424779  91.4255524  61.7843737 111.4448911  92.3130841  62.7488673
 111.2705313  91.5851774  62.5176434 107.8861040  95.8509639  68.5527997
 108.6095239  95.3982165  68.3739017 107.6211002  96.1314304  67.7700325
 107.9542313  95.8260607  68.4106713  96.7547908  90.4469812  65.2880876
  96.1300978  90.4588204  64.6806829  96.4193503  90.9229987  65.9372117
  96.6133400  90.5188329  65.2937445  96.9389657  88.7894931  51.3453561
  96.5902461  89.4414656  51.8085111  96.4586103  88.7752044  50.6177433
  96.8159901  88.8837984  51.3064653  93.4673584  98.5070272  66.7284641
  92.9373508  97.8162711  66.7779615  93.7398677  98.4980458  65.8997349
  93.4298306  98.4037404  66.6132057 104.4993674  99.0895975  55.4522323
 105.2227873  99.5554088  55.3086897 104.0594265  99.1569584  54.7019920
 104.5409366  99.1679811  55.3207105 103.6679829  95.9493517  66.7023012
 103.0536822  95.4051567  66.9971648 104.1847114  95.4357753  66.2228828
 103.6535492  95.7929926  66.6747241 102.9076126  97.0197787  64.4367311
 102.4803734  96.3947506  64.0032746 102.9001071  96.7372709  65.2626318
 102.8435267  96.8850568  64.4947138  96.0238653  92.0562960  67.5055745
  96.1832140  91.3006284  67.9107467  95.8431547  92.6053900  68.1596483
  96.0204012  92.0256774  67.6618451 103.9658956  84.2224196  68.0606534
 103.4699518  84.4187870  67.3698101 104.7228018  84.6216864  67.8895336
 104.0045781  84.3101929  67.9326671 101.2361836  87.8966541  64.6509845
 101.2604323  87.3626654  63.9622625 101.4873310  87.3883850  65.3135435
 101.2771755  87.7427445  64.6474490  88.7469426  95.1798036  64.0852989
  88.6412875  95.1344881  63.2205073  87.9969646  95.5251817  64.3667274
  88.6205029  95.2238945  63.9990319  97.5163158  86.6237360  64.0315589
  97.5561530  87.1246566  64.7450297  96.6912823  86.7147753  63.7621512
  97.4002684  86.7119176  64.0966127  99.6992771  96.1898100  72.1335884
  98.8488402  96.3269814  72.2693529  99.8620899  95.4561878  72.5783585
  99.5976635  96.1012201  72.2191483  98.9377522  93.1397870  66.3289488
  98.1069451  93.3071688  66.1224736  98.8829039  92.7633820  67.1138374
  98.8066936  93.1087601  66.4138016  96.7461305  86.6306762  71.9645899
  97.3714008  86.0868895  72.2375331  96.2911785  86.1501680  71.3953689
  96.7709565  86.4796244  71.9207493  97.3113565  91.4153461  56.8579606
  97.4516527  91.9125925  57.5608247  97.8096098  90.7139755  56.9993820
  97.4054646  91.3855440  56.9831185  97.3413788  92.2820572  54.1872183
  97.9758867  92.8780997  54.1221645  97.4239399  91.9824030  55.0018053
  97.4470339  92.3261480  54.2975269 110.3196354  94.8136049  67.0558547
 110.9114194  95.4533300  67.0876745 110.7555348  94.1159086  67.3450614
 110.4714785  94.8054400  67.1039380  98.9192771  88.2134548  54.1617625
  99.2408612  87.7337630  53.5076887  99.1819714  89.0234194  53.9708436
  99.0058796  88.2624445  54.0373117 102.1489743  99.2353422  67.6816441
 101.6414835  99.7889269  68.1257071 101.8516390  99.2961712  66.8635215
 102.0294628  99.3259733  67.6264898 104.3151926  87.6006741  66.5241104
 104.7406997  87.1479268  65.9124630 103.7008919  87.0466812  66.8005891
 104.2880571  87.4520718  66.4746129  93.8466776  94.4788413  57.4561729
  94.3559005  95.0752920  57.8373034  94.3201048  94.2114387  56.7738148
  93.9910151  94.5274228  57.4116251 104.7597524 103.1516680  55.6120384
 104.0426833 102.9777542  55.1467622 105.4104261 102.9169252  55.0795870
 104.7499374 103.0912472  55.4649602 102.7546149  84.0721841  59.9331681
 102.1114466  83.9219488  60.5016819 102.4145555  83.8264187  59.1680785
 102.6091226  84.0133964  59.9034696 107.3445495  92.0281268  59.3561689
 106.6736685  92.5710970  59.2274755 108.0385245  92.4976123  59.1143384
 107.3474362  92.1779539  59.3017217 101.3932229 104.1677980  64.5873448
 101.1697883 103.4096809  64.9557474 100.9042072 104.1976001  63.8653887
 101.2875678 104.0600205  64.5350189 107.5073622  88.4837152  62.2652063
 107.8601233  88.0566875  62.9397861 106.6488424  88.3987995  62.3953139
 107.4323067  88.4081892  62.3847073  96.2057307  91.1144671  60.3234909
  95.4869297  91.5308804  60.5907773  96.5769670  91.6798910  59.7726547
  96.1549239  91.2593953  60.2817716 105.5056888  91.7472520  66.2136905
 105.4854816  91.5655816  67.0671684 105.5536089  92.6184539  66.1896489
 105.5091529  91.8489059  66.3360200 103.4503218  98.3359712  72.1385381
 103.4099073  97.6909389  71.5530537 104.2626536  98.2796330  72.4510794
 103.5646372  98.2318679  72.0982331 100.0410686 104.3878438  62.0410532
  99.6271084 103.7252568  61.6514374 100.7258060 104.5356297  61.5206227
 100.0809057 104.3119096  61.9067029 103.4075980 103.5468523  62.7934149
 103.0092263 103.6570794  62.0254969 102.7927199 103.7550590  63.3760709
 103.2574869 103.5942092  62.7665448 101.9803882  90.1542671  55.6608289
 101.3868721  90.4759668  55.1092856 102.0179159  89.3083767  55.4529395
 101.8978271  90.0767000  55.5491060 108.9397683  83.6055564  63.1936375
 108.4328547  82.8984703  63.1257553 109.7365116  83.2748752  63.3237452
 108.9824922  83.4528715  63.2035370 104.8561698  90.1122176  59.0910039
 104.6275391  90.1354877  58.2488397 105.1159775  89.2879643  59.2105049
 104.8607886  89.9938256  58.9835237  99.1380927  91.9656649  68.6935139
  98.6259830  91.3577832  69.0520170  98.9660423  92.6813241  69.1609115
  99.0370564  91.9819948  68.8151363  93.9846642  90.4094224  71.3437501
  93.8149232  91.0695599  70.7985708  93.5412591  90.6200785  72.0649990
  93.8945975  90.5380206  71.3699130  97.9106461  88.6498722  60.3864235
  98.3863827  89.0115802  59.7514416  97.4095061  89.3055190  60.6664377
  97.9071820  88.7992911  60.3340976 111.1417822  98.1220490  56.1777240
 111.5251428  98.8711846  56.4075337 110.3461936  98.3686310  55.9189229
 111.0811605  98.2690184  56.1734813 103.0149997  89.8880894  71.1337395
 103.5721427  89.6594703  70.5015860 102.6911062  90.6486559  70.8572607
 103.0496407  89.9664730  70.9993892  90.8848706  93.3141090  66.6025991
  90.3375425  92.6441735  66.7206859  91.6741084  92.9470938  66.6669458
  90.9200890  93.1606076  66.6294691 100.7333114  92.9748547  72.0989402
 101.4844441  93.2900224  72.4128956 100.9255691  92.7727718  71.2723324
 100.8724529  92.9915929  72.0232798  99.9533114  90.7939922  53.7537619
 100.3332079  90.8119551  52.9688733  99.2125710  91.2393911  53.6328466
  99.9001952  90.8621697  53.6201187 107.5818405  89.1022113  59.3413197
 107.5812631  88.9470770  60.1997474 107.3774585  89.9485100  59.2854583
 107.5518182  89.2042734  59.4601137  89.6435676  92.5261898  63.7572014
  89.4657437  92.0738507  64.4826929  89.3554698  93.3288059  63.9410491
  89.5748629  92.5784455  63.8915517 105.3059257  93.7819615  62.9949404
 105.8012922  93.0642610  62.9553424 104.4959032  93.4790413  62.8803891
 105.2603150  93.6317261  62.9723130 100.7517868  97.6317428  55.1446409
  99.9429191  97.3084102  55.0979718 101.2592777  96.9250650  55.0774657
 100.7067535  97.4798745  55.1276703  91.3808145  95.0589621  60.8693773
  90.5153665  95.0475312  60.7576544  91.4806961  94.8719844  61.7164912
  91.2682312  95.0295683  60.9782717 107.3711075  96.5323302  65.6826533
 107.7966147  96.0097724  65.1296958 107.0067995  97.1304140  65.1615156
 107.3797678  96.5433529  65.5235543  97.0065155 104.8287520  64.4423878
  97.3211714 105.6423908  64.4501660  97.4158569 104.4437739  65.1106037
  97.1133253 104.8916222  64.5427970 103.9589675 100.2457567  62.0127690
 104.4300853 100.9597829  62.1817676 104.2949853  99.6456317  62.5487560
 104.0784790 100.2629031  62.1160066 106.0466660 101.8558880  74.1919762
 106.1563625 101.0667441  74.5476510 106.3757556 101.7664816  73.3894100
 106.1119065 101.7264733  74.1262153 100.8759170  85.0185037  68.9685785
 101.0087075  84.2216031  69.2966761 101.2604323  85.5451440  69.5484061
 100.9515499  84.9784954  69.1029288 104.5963621 100.0375501  68.7755383
 104.0484567  99.4133384  68.5075448 105.0576650 100.2269773  68.0599462
 104.5830831  99.9734551  68.6305814 103.9491525  81.9415363  65.5666878
 103.1437489  81.8313093  65.8834717 103.8198261  82.0427819  64.7096744
 103.8111658  81.9399033  65.4874919 107.4057486  88.1060855  66.1606575
 106.8220474  88.6070062  65.7484143 107.7261780  87.5990411  65.5270899
 107.3670661  88.1052690  66.0065082  99.9452285  87.0201450  56.4365250
 100.7667979  87.1899763  56.1946945  99.4821936  87.1748711  55.7131548
  99.9983447  87.0683183  56.2936894  98.5347617  85.0144212  67.2163679
  99.0792030  84.6735339  67.8068021  98.5884552  85.8729674  67.3584963
  98.6236736  85.0899472  67.3245552  94.3478175  98.7760628  64.0902487
  94.9523033  98.7356463  63.4616307  94.1405488  99.6231780  64.1206543
  94.4067073  98.8948631  64.0018603 104.1621948 101.0426574  65.3064724
 104.9820321 100.8989540  65.5681019 103.8816025 101.6672772  65.8481162
 104.2418691 101.1136926  65.4252664  89.5829458  97.7595246  63.9601410
  89.4853736  96.9491517  64.2691467  90.3658327  97.7387039  63.5747678
  89.6845594  97.6362336  63.9488273 120.6335598 108.6991425  58.2707600
 120.6029602 109.5536062  58.4425870 121.2316947 108.3986718  58.8293744
 120.7172756 108.7807922  58.3782403 113.8335283 107.7867076  63.0260531
 112.9773178 107.9475575  63.0769648 113.8802936 106.9159140  63.0465592
 113.7134394 107.6817878  63.0366597 108.2176422 117.3229794  58.7897762
 107.4659322 116.9445332  58.5613808 108.6662434 117.3548228  58.0416573
 108.1726089 117.2715401  58.6455265 116.6787104 109.8459120  65.6692183
 117.2243064 110.5244207  65.7286152 116.6203980 109.7046581  64.8093764
 116.7503018 109.9251122  65.5504243 109.7961179 117.3348186  61.0560535
 109.8971542 116.5248540  61.3657663 109.2002924 117.2405133  60.4260213
 109.7233717 117.2013214  61.0086773 118.4552172 111.2743727  56.5425910
 118.3391698 112.0251413  56.9718048 119.2508059 111.0167681  56.7921997
 118.5556762 111.3478574  56.6430002 102.9926223 113.3568473  60.6812869
 102.7576407 112.5236125  60.5745137 103.1311864 113.6373139  59.8674070
 102.9781885 113.2751976  60.5455224 105.2916310 105.5254203  63.5797176
 104.6721342 104.9346851  63.4107191 105.1900174 106.1165639  62.9461500
 105.1853986 105.5258286  63.4602166 110.3382498 115.2637750  57.8295253
 110.6598339 115.8042958  57.2256561 110.9854594 114.6934522  57.9617543
 110.4808553 115.2596925  57.7602288 112.3884206 107.2653745  57.9129639
 113.0864371 107.4441873  58.4051103 112.7036539 106.7424085  57.2900029
 112.5379543 107.2147517  57.8931650 105.0185443 109.0706485  65.8240745
 104.8944140 109.6568931  66.4590564 105.6703728 108.5766681  66.1253020
 105.0959093 109.0845290  65.9626675 112.5772141 113.6524190  57.9009431
 113.0165777 113.0441291  58.3464204 112.4276804 113.2731564  57.1294896
 112.6193607 113.5062661  57.8528598 110.0443784 112.2468202  65.1028256
 110.6892787 111.7540645  64.7839205 110.2845561 112.3892989  65.9294335
 110.1754370 112.1945644  65.1777790 112.5829876 115.0923108  64.7535149
 112.8653119 114.2974514  64.5321905 113.3116036 115.5703695  64.7740210
 112.7319439 115.0457705  64.7238164 110.5611070 102.6346142  61.9950914
 110.2314400 103.0857285  61.3254613 109.8856071 102.5562305  62.5423921
 110.4121506 102.6897277  61.9774137 116.1781478 112.0051372  54.8540200
 116.0932773 112.8612338  54.9989769 116.6665861 111.7295696  55.5222359
 116.2370375 112.0908693  54.9742282 117.7687477  98.6231665  60.2400525
 117.4540918  99.3135143  60.6720947 117.2514419  98.5676447  59.5386025
 117.6451948  98.7166553  60.1997474 117.1099911 108.6236166  56.3537935
 116.5811383 108.8395799  57.0135241 117.6324931 109.3172304  56.2738905
 117.1088364 108.7579303  56.4393534 108.9999519 112.5199383  55.1545403
 108.4156734 113.0249414  55.5611267 108.5969614 112.2941769  54.4141995
 108.8538823 112.5607631  55.1050428 104.5543548 118.2354144  61.9569075
 104.0711126 118.9604633  61.9328658 105.3666866 118.5330274  62.0679233
 104.6034295 118.3856497  61.9696354 110.6257702 117.0286324  64.5618889
 110.1084643 116.6693739  63.9580197 111.3232093 116.5048499  64.5724955
 110.6523283 116.8984012  64.4749148 111.8491753 116.7612298  69.5052724
 111.2862588 116.3484908  70.0292386 112.6112777 116.6865204  69.9245868
 111.8786202 116.6889699  69.6445725 113.4576733 108.7665035  53.6314324
 113.6972737 108.9743018  52.8189667 113.7792574 107.9622543  53.7403268
 113.5413891 108.6779136  53.5274877 108.7667024 100.6958430  57.4773862
 109.5212992 101.0636747  57.2390912 108.5894558 101.0697985  58.2453041
 108.8521502 100.8056618  57.5558750 107.4087745 118.7510320  62.1089355
 108.1108324 118.2362309  62.1662111 107.3285228 119.0784471  62.9136230
 107.5011505 118.7224546  62.2362147 122.0601922 106.8452871  65.5221401
 121.2230343 106.9155058  65.7568996 122.0290153 106.8477366  64.6495703
 121.9320205 106.8563098  65.4280949 108.4566651 108.9885906  71.2369770
 108.6287155 108.8791801  72.0855051 108.9936009 109.6340312  71.0000962
 108.5611655 109.0677908  71.3274866 107.1224088 103.1028749  54.1751975
 106.9399662 103.3200630  53.3492968 107.9849701 103.2167762  54.2310589
 107.2228678 103.1518647  54.0606462 106.7338520 114.9416672  61.6174963
 107.5727420 115.1739604  61.6648724 106.7650289 114.0720983  61.5481998
 106.8620238 114.8473618  61.6139607 107.3591223 115.3617547  65.9188268
 107.8989448 115.2188678  66.5891641 106.6761170 115.7614298  66.2872294
 107.3383377 115.3997218  66.0722690 112.8023808 100.1055160  57.2100999
 113.5309968  99.9271115  56.7639155 112.8918700 100.9473240  57.4208177
 112.9230470 100.2039038  57.1754516 116.7832108 111.0408547  61.1133293
 117.5389623 111.4740062  61.1522201 116.8894433 110.3913317  61.6867929
 116.9102279 111.0086031  61.2031318 102.7628368 111.5817838  66.0722690
 102.4966784 110.7656954  66.2313680 102.7766933 111.6270993  65.2018205
 102.7253091 111.4674742  65.9676172 119.7409762 101.9095652  64.1065123
 120.3835671 101.9793757  64.6927039 119.9932783 101.2424875  63.6044665
 119.8731894 101.8222001  64.1192403 106.6686115 106.3802922  52.6874448
 105.9544292 106.0941101  53.0996880 107.1530084 106.7199548  53.3280835
 106.6345479 106.3884572  52.8430083 107.5126975 105.1196216  68.7189697
 106.8198772 104.6493196  68.9650429 108.1287302 104.8934520  69.2931405
 107.5011505 105.0163348  68.8398850 113.8433433 114.8832876  53.0636256
 114.2584582 114.5517900  52.3720752 113.0125363 114.6501778  52.9356393
 113.7821442 114.8004132  52.9427103 103.1721782 112.3676617  63.3534434
 102.9897355 112.3423503  62.5006726 103.9071451 112.8375555  63.3923343
 103.2535846 112.4337979  63.2332352 106.2367534 109.0861620  69.8616543
 106.9607506 109.0714650  70.3481437 106.3383670 109.7956975  69.3638511
 106.3585743 109.1886323  69.8595329 113.6112483 112.5660704  74.7265490
 112.8185464 112.8804216  74.9118109 113.7261410 112.7812173  73.8886274
 113.5107894 112.6444541  74.6303824 116.2843802 109.2894696  59.0160505
 116.3790656 110.0283990  59.4700131 115.6602646 108.8612171  59.4495070
 116.2052832 109.3356016  59.1468653 114.5396276 112.4680908  69.6650786
 115.1135138 111.8308152  69.8199350 114.4611080 112.4684991  68.7960444
 114.6129511 112.3746020  69.5597197 103.1392692 109.2470118  63.5033501
 103.7166195 109.1106568  64.1425746 102.4406754 108.7905902  63.7579085
 103.1213714 109.1592384  63.6355790 116.5366823 111.1343435  52.2497457
 116.4546986 111.2045622  53.1152444 117.1746544 111.6973179  52.0581198
 116.6186661 111.2282406  52.3487407 109.8959995 110.9004173  61.7171984
 109.6379239 110.0675908  61.6903283 109.9508477 111.1261786  60.8764484
 109.8659772 110.8101945  61.5892121 114.9761045 103.0032624  61.8176076
 114.2717371 102.5141809  61.9759996 115.0246019 103.0155098  60.9464521
 114.8791096 102.9322272  61.7115416 108.8694707 108.4541936  62.2036879
 108.2944298 108.6134104  62.8400839 108.4930383 107.8177345  61.7405329
 108.7297519 108.3839749  62.2291437 112.5367995 106.9265285  67.0629257
 112.1482428 106.5019503  66.4081448 111.8722694 107.1747435  67.5706284
 112.3814923 106.9004006  67.0417125 122.1791264 106.6840290  59.8377087
 121.9227829 105.8720231  59.6474970 123.0220578 106.6917857  59.6107274
 122.2657290 106.5652287  59.7761904  98.6151526 108.0982011  60.2181319
  98.7011777 107.7213879  60.9994849  99.2427323 107.7242456  59.7401277
  98.7208077 107.9867493  60.2626796 116.3594357 100.6239914  64.5753241
 116.7404869  99.9418085  64.9621115 115.5557641 100.3349516  64.3928906
 116.2970819 100.4806962  64.6057297 113.6406934 111.1563890  55.2606064
 114.4547572 111.4478782  55.1488835 113.5766075 110.5023752  54.6864357
 113.7509673 111.1029084  55.1594901 109.5114842 114.6285407  60.3878376
 110.1488789 114.3897155  60.9330169 109.9369913 114.8322566  59.6531537
 109.6691008 114.6236417  60.3595533 104.2027484 116.8673744  64.2712680
 104.2431630 117.1388595  63.4432459 104.7622008 117.3915652  64.6870468
 104.2910830 116.9849499  64.2104568 110.1517657 109.8487697  54.7253265
 110.5362810 109.6295404  55.4769811 109.9029277 110.6750642  54.8554342
 110.1719729 109.9385843  54.8554342 110.3186197 103.1294112  74.4415850
 110.0039638 103.8993675  74.1785412 109.9976130 102.5664368  73.8568077
 110.2245116 103.1604381  74.3157200 111.8936314 115.1057830  62.0672162
 111.9675322 114.9433002  62.9214012 112.7105820 115.2948019  61.8232644
 112.0252672 115.1094572  62.1570188 105.6542071 115.4515693  59.0966606
 104.8280188 115.6977430  58.9700885 105.7154062 115.3727773  59.9628664
 105.5416237 115.4760641  59.2055550 107.8718094 101.5184634  60.0562046
 107.0040520 101.5907233  60.1219655 108.1593299 102.3206712  60.2450021
 107.7857842 101.6478781  60.0936813 116.9950983 101.6662493  68.3873368
 117.7404575 101.4772303  67.9736793 116.5788288 102.1920731  67.8287224
 117.0435957 101.7164638  68.2437941 111.0235645 112.8710319  67.8838766
 110.5247338 113.5826086  67.9623655 111.8335869 113.1910985  67.8456929
 111.0691751 113.0237167  67.8895335 107.2863762 112.1333272  62.1301487
 106.9977011 111.5070743  62.6647214 108.1547110 112.0753559  62.1966168
 107.3724014 112.0320816  62.2192442 118.0741660 107.2768055  62.4483469
 117.7306426 106.5558390  62.7990719 118.1734703 107.0681906  61.6061827
 118.0383703 107.1392258  62.3755149 107.4896036 113.7728523  58.0543852
 108.2442004 114.1541562  58.2679315 106.8966648 114.2239666  58.5090549
 107.5132749 113.8957350  58.1526731 109.9502703 105.7291363  73.1801064
 109.1402478 106.0349143  73.0690907 110.4277389 106.4496945  73.2953649
 109.9006181 105.8805964  73.1808136 108.8094262 114.9437084  63.4283968
 108.2875016 115.0837376  64.1135832 109.1968283 114.1847748  63.6186085
 108.7897963 114.8522608  63.5585044 105.7985446 104.9942893  57.4978922
 105.5110242 104.6244163  56.7610870 106.4855915 105.4637748  57.2362627
 105.8574344 105.0089862  57.3493998 110.2360588 111.9741103  58.8265459
 110.0403371 112.5815838  58.2325762 110.4594933 111.2809047  58.3457133
 110.2395229 111.9618629  58.6681539 108.6339118 108.8595841  58.9446327
 109.3561770 109.0236999  58.4850133 108.1547111 109.5805506  58.8385667
 108.6702849 108.9894071  58.8611941 116.5932626 105.1959640  64.3243012
 115.7543726 105.2220919  64.0881275 116.6636993 105.8430375  64.9048358
 116.4801019 105.2955766  64.3752129 106.2846735 111.2653913  68.0500467
 106.7967832 111.5438167  67.4009227 105.9983077 112.0043207  68.4163280
 106.3181598 111.4156267  68.0090345 115.0401904 102.0945017  59.0570628
 115.7428257 101.8952765  58.5790586 114.7746093 101.3220959  59.3639471
 115.1048536 101.9507983  59.0316069 120.4690149 110.4027627  61.6104254
 120.3824124 110.5583053  62.4639032 120.0140629 111.0465702  61.2363659
 120.3893406 110.5203382  61.6811360 103.3713641 105.7724105  58.3464203
 103.4729777 106.5750267  58.6745179 104.1669528 105.5711441  58.0487284
 103.5041547 105.8610004  58.3499559 109.8030460 103.3580302  68.1101508
 109.6113657 103.3735436  68.9600932 110.6529056 103.5543976  68.0868163
 109.9006182 103.3894653  68.2324803 104.1877373 105.8871283  66.0885325
 104.0462865 105.0355224  66.2129833 104.4717936 105.9299944  65.2647531
 104.2085219 105.7671034  65.9852949 114.3415965 107.7238374  60.2329813
 114.0950680 107.6434125  61.0666602 114.6701088 106.9391842  60.0392341
 114.3537209 107.5964639  60.3277336 116.5742099 110.7318108  70.2738976
 116.5690138 109.8597925  70.2781403 117.2803093 110.9306278  69.8008432
 116.6787103 110.6321983  70.2046011 110.3012993 110.4595092  69.6452796
 110.4456368 111.0396300  69.0095906 110.6488641 110.8371389  70.3502651
 110.3740454 110.6015796  69.6551791 112.4732910 109.6585261  67.4277928
 111.7256224 109.8516275  67.0226206 112.6274435 108.8330480  67.1902049
 112.3855338 109.5650372  67.3323334 112.7134687 103.5535811  68.3173332
 113.1707301 104.2859786  68.4446124 112.7891016 103.1302277  69.0760587
 112.7925657 103.5993049  68.4474408 104.9567678 103.8001631  69.4062775
 104.4209868 103.1881989  69.7223543 105.0185443 104.3749767  70.0596442
 104.8863311 103.7948559  69.5498202 117.1862013  96.7325687  62.1867174
 117.3045581  97.1902150  61.4534477 117.0124189  95.9270948  61.9003392
 117.1781184  96.6819459  62.0368108 110.5917065 105.5437915  65.1615156
 109.8013140 105.3629375  65.4832491 110.9877688 104.7664868  65.1445450
 110.5333941 105.4025376  65.2067704 115.0782956 114.3725690  50.6021869
 115.8455941 114.4325815  50.1927721 114.6314265 113.8006131  50.1178188
 115.1256383 114.2962265  50.4699579 115.9760751 113.1780345  62.8874601
 115.3005753 112.9465578  63.3887988 115.9853127 112.5701528  62.2616706
 115.8779256 113.0539271  62.8690754 113.1054895 108.0198174  69.6438654
 113.0414036 108.8808131  69.5158791 113.2452083 107.7030168  68.8434206
 113.1170365 108.0998341  69.5066867 111.7873989 110.7130314  63.7854857
 111.3636238 110.9134813  63.0493876 111.6118844 109.8659162  63.8979157
 111.6984870 110.6179095  63.6928547 107.0756434 111.2082365  59.2182830
 107.2321053 111.1429168  60.0738822 107.4157027 111.9830918  59.0061510
 107.1489669 111.3131563  59.3137424 113.6135579 110.5840249  58.0876193
 114.1551124 110.0810630  58.5514814 113.9282138 110.5305443  57.2765678
 113.7399976 110.5019670  58.0360005 111.7822028 115.9757600  55.3716221
 111.8514849 115.1172139  55.5109222 112.5610484 116.1929481  55.0435246
 111.9074879 115.8810464  55.3433378 114.7624848 105.4776553  68.1398494
 114.9766818 104.8387467  67.5861848 114.1458747 105.9222377  67.7106355
 114.7030177 105.4486697  67.9948925 103.6490696 108.3917316  59.5343597
 104.0289660 108.8101861  58.8703864 103.0746060 108.9730771  59.8412440
 103.6202020 108.5395174  59.4820338 116.9263936 107.0865618  69.0781801
 116.1140618 106.7791509  69.1594973 117.3853871 106.6064619  69.6424513
 116.8744321 106.9702111  69.1736395 114.1539577  98.5876489  63.1285836
 113.2833135  98.5615210  63.0819146 114.4079918  98.4153681  62.3111682
 114.0633137  98.5586633  63.0005973 111.1257556 110.6444456  52.0658979
 111.4150081 111.4209338  52.3402554 111.2129355 110.1333187  52.7673479
 111.1811812 110.6836374  52.2101477 114.0217444 108.4925690  73.8610503
 114.4917075 109.1167806  74.2478377 114.0679324 107.8242665  74.4203718
 114.0985319 108.4860370  74.0010574 111.1788717 100.5982717  64.5859307
 110.6627206  99.9062909  64.7110886 110.6182646 101.2653494  64.5321905
 111.0195231 100.5945975  64.5965373 113.2480951 101.1375677  66.4152159
 112.8612704 101.1624709  67.1965689 112.7613888 100.5717356  65.9626676
 113.1193460 101.0571428  66.4640063 119.2230930 107.7038332  65.0391861
 118.7958538 107.6164681  64.2839961 118.5856983 107.8116108  65.6246706
 119.0660537 107.7070992  65.0137303 112.9138092  98.0242663  68.7062419
 113.5431210  98.5602963  68.4283490 113.0823955  97.9320022  69.5575985
 113.0315887  98.0904025  68.7910947 112.7152007 102.8113858  70.9788831
 113.5425437 102.5399006  71.0347445 112.7359853 103.6074699  71.3352649
 112.8404857 102.8893612  71.0404014 107.2921497 109.9577720  64.1659091
 106.4509504 109.8581595  64.3737985 107.5011505 110.7273201  64.5173412
 107.1986190 110.0569764  64.2486406 104.7697064 107.5797257  61.9943842
 104.3753762 107.6540269  61.2193952 104.2137181 107.9655204  62.5452204
 104.6299876 107.6479032  61.9611502 116.4062011 100.5578551  61.6747721
 116.6111604 100.4900859  62.5204718 116.0788435 101.3637373  61.6068898
 116.3877259 100.6664492  61.7907376 111.1038162 107.8859120  63.4156689
 110.8001300 107.3315108  64.0167097 110.4017583 108.0651330  62.9284723
 110.9554372 107.8303902  63.4326395 110.1604259 105.1959639  57.9801391
 110.4363993 104.4778552  57.5678958 110.7602928 105.7944559  57.7722497
 110.2897524 105.1780010  57.8882152 109.1656513 115.1008840  68.1228787
 109.0576868 115.1110902  68.9890845 109.3752295 115.9263621  67.9333741
 109.1806624 115.2249915  68.2232878 119.6595699 101.1110316  61.1550486
 119.0470012 101.5980718  61.5404218 119.7559874 100.4353806  61.6988138
 119.5833596 101.0828624  61.2929345 113.6614780 102.8673157  56.2547986
 114.1158526 103.0383717  56.9795830 114.1354825 102.2541267  55.8545762
 113.7983100 102.8024042  56.3021747 107.1830305 112.3521483  65.5850724
 106.5918238 112.9930981  65.5553739 107.9451329 112.7759100  65.5582024
 107.2078566 112.5097321  65.5765872 107.5790928 103.5123480  66.2518742
 108.0392409 103.5862410  66.9893866 107.6247035 104.3104734  65.9018563
 107.6541483 103.6417628  66.3091498 109.2274278 104.1790175  70.8190769
 108.8359843 103.5323522  71.2546547 109.3960140 104.7701611  71.4385024
 109.1945188 104.1704443  70.9753475 111.0027800 109.5715691  57.3592993
 111.7469845 109.9589967  57.5975943 111.1488496 108.7273116  57.5233481
 111.1338385 109.5046164  57.4186963 112.9207375 101.3665950  62.3924854
 112.0743420 101.5388758  62.2666204 112.9178508 100.5615294  62.7290683
 112.7954525 101.2726979  62.4235981 113.9905675 105.1441164  63.2586912
 113.5165630 104.6182926  63.7692223 114.3623811 104.5970637  62.6901774
 113.9755564 104.9857161  63.2502060 104.3678706 107.1412671  68.6270458
 105.2304319 107.0408380  68.5407788 104.0370489 106.5607380  68.0656030
 104.4463902 107.0404298  68.5315864 120.2542406 110.2043540  64.6693693
 120.0140629 109.3649955  64.6736119 120.7334413 110.2843707  65.3934466
 120.2894590 110.0924940  64.7768495 115.9189175 106.0377719  56.3212666
 115.3912194 106.1206463  55.6318375 116.3784883 106.7795590  56.3177311
 115.9091026 106.1598381  56.2187361 122.2547593 106.9844997  62.6222952
 122.0157363 106.9440831  61.7843737 122.4181494 107.8316149  62.7488673
 122.2437897 107.1037082  62.5176434 118.8593623 111.3694947  68.5527997
 119.5827822 110.9167473  68.3739017 118.5943586 111.6499612  67.7700325
 118.9274897 111.3445915  68.4106713 107.7280492 105.9655120  65.2880876
 107.1033562 105.9773512  64.6806829 107.3926086 106.4415295  65.9372117
 107.5865983 106.0373637  65.2937445 107.9122240 104.3080239  51.3453561
 107.5635045 104.9599964  51.8085111 107.4318686 104.2937352  50.6177433
 107.7892484 104.4023292  51.3064653 104.4406167 114.0255580  66.7284641
 103.9106092 113.3348019  66.7779615 104.7131260 114.0165766  65.8997349
 104.4030889 113.9222712  66.6132057 114.6412413 111.4678825  66.7023012
 114.0269406 110.9236875  66.9971648 115.1579698 110.9543061  66.2228828
 114.6268075 111.3115234  66.6747241 113.8808710 112.5383095  64.4367311
 113.4536318 111.9132814  64.0032746 113.8733654 112.2558017  65.2626318
 113.8167851 112.4035876  64.4947138 106.9971237 107.5748268  67.5055745
 107.1564724 106.8191592  67.9107467 106.8164131 108.1239207  68.1596483
 106.9936596 107.5442082  67.6618451 114.9391540  99.7409503  68.0606534
 114.4432101  99.9373178  67.3698101 115.6960602 100.1402172  67.8895336
 114.9778365  99.8287237  67.9326671 112.2094420 103.4151849  64.6509845
 112.2336907 102.8811962  63.9622625 112.4605893 102.9069158  65.3135435
 112.2504338 103.2612753  64.6474490  99.7202009 110.6983344  64.0852989
  99.6145458 110.6530189  63.2205073  98.9702229 111.0437125  64.3667274
  99.5937612 110.7424253  63.9990319 108.4895742 102.1422668  64.0315589
 108.5294113 102.6431874  64.7450297 107.6645406 102.2333061  63.7621512
 108.3735268 102.2304484  64.0966127 110.6725355 111.7083408  72.1335884
 109.8220985 111.8455122  72.2693529 110.8353482 110.9747186  72.5783585
 110.5709218 111.6197509  72.2191483 109.9110105 108.6583177  66.3289488
 109.0802035 108.8256995  66.1224736 109.8561622 108.2819128  67.1138374
 109.7799520 108.6272909  66.4138016 107.7193888 102.1492070  71.9645899
 108.3446592 101.6054203  72.2375331 107.2644368 101.6686988  71.3953689
 107.7442149 101.9981552  71.9207493 108.2846149 106.9338769  56.8579606
 108.4249110 107.4311233  57.5608247 108.7828682 106.2325063  56.9993820
 108.3787230 106.9040748  56.9831185 108.3146371 107.8005880  54.1872183
 108.9491451 108.3966305  54.1221645 108.3971982 107.5009338  55.0018053
 108.4202922 107.8446788  54.2975269 109.8925354 103.7319855  54.1617625
 110.2141195 103.2522938  53.5076887 110.1552298 104.5419502  53.9708436
 109.9791380 103.7809753  54.0373117 113.1222327 114.7538730  67.6816441
 112.6147418 115.3074577  68.1257071 112.8248973 114.8147020  66.8635215
 113.0027212 114.8445041  67.6264898 115.2884509 103.1192049  66.5241104
 115.7139581 102.6664576  65.9124630 114.6741502 102.5652120  66.8005891
 115.2613155 102.9706026  66.4746129 104.8199359 109.9973721  57.4561729
 105.3291589 110.5938228  57.8373034 105.2933632 109.7299694  56.7738148
 104.9642735 110.0459536  57.4116251 113.7278732  99.5907149  59.9331681
 113.0847050  99.4404796  60.5016819 113.3878139  99.3449494  59.1680785
 113.5823809  99.5319272  59.9034696 118.3178079 107.5466576  59.3561689
 117.6469268 108.0896278  59.2274755 119.0117829 108.0161431  59.1143384
 118.3206946 107.6964847  59.3017217 118.4806206 104.0022460  62.2652063
 118.8333816 103.5752183  62.9397861 117.6221008 103.9173303  62.3953139
 118.4055651 103.9267200  62.3847073 107.1789891 106.6329979  60.3234909
 106.4601880 107.0494112  60.5907773 107.5502253 107.1984218  59.7726547
 107.1281823 106.7779261  60.2817716 116.4789472 107.2657828  66.2136905
 116.4587399 107.0841123  67.0671684 116.5268673 108.1369847  66.1896489
 116.4824113 107.3674367  66.3360200 114.4235802 113.8545020  72.1385381
 114.3831657 113.2094697  71.5530537 115.2359120 113.7981638  72.4510794
 114.5378955 113.7503987  72.0982331 112.9536465 105.6727979  55.6608289
 112.3601305 105.9944976  55.1092856 112.9911743 104.8269075  55.4529395
 112.8710854 105.5952308  55.5491060 119.9130266  99.1240871  63.1936375
 119.4061131  98.4170011  63.1257553 120.7097700  98.7934060  63.3237452
 119.9557505  98.9714023  63.2035370 115.8294282 105.6307484  59.0910039
 115.6007975 105.6540185  58.2488397 116.0892358 104.8064951  59.2105049
 115.8340470 105.5123564  58.9835237 110.1113510 107.4841957  68.6935139
 109.5992413 106.8763140  69.0520170 109.9393007 108.1998549  69.1609115
 110.0103147 107.5005256  68.8151363 104.9579225 105.9279532  71.3437501
 104.7881815 106.5880907  70.7985708 104.5145175 106.1386093  72.0649990
 104.8678559 106.0565514  71.3699130 108.8839044 104.1684030  60.3864235
 109.3596411 104.5301110  59.7514416 108.3827644 104.8240498  60.6664377
 108.8804403 104.3178219  60.3340976 113.9882581 105.4066201  71.1337395
 114.5454011 105.1780011  70.5015860 113.6643646 106.1671867  70.8572607
 114.0228991 105.4850038  70.9993892 101.8581290 108.8326398  66.6025991
 101.3108009 108.1627043  66.7206859 102.6473668 108.4656246  66.6669458
 101.8933473 108.6791384  66.6294691 111.7065698 108.4933855  72.0989402
 112.4577025 108.8085532  72.4128956 111.8988274 108.2913026  71.2723324
 111.8457112 108.5101237  72.0232798 110.9265698 106.3125230  53.7537619
 111.3064662 106.3304859  52.9688733 110.1858294 106.7579219  53.6328466
 110.8734535 106.3807004  53.6201187 118.5550988 104.6207421  59.3413197
 118.5545215 104.4656078  60.1997474 118.3507168 105.4670408  59.2854583
 118.5250766 104.7228042  59.4601137 100.6168259 108.0447205  63.7572014
 100.4390020 107.5923814  64.4826929 100.3287281 108.8473367  63.9410491
 100.5481212 108.0969763  63.8915517 116.2791840 109.3004923  62.9949404
 116.7745505 108.5827918  62.9553424 115.4691616 108.9975721  62.8803891
 116.2335733 109.1502569  62.9723130 111.7250452 113.1502736  55.1446409
 110.9161774 112.8269410  55.0979718 112.2325361 112.4435958  55.0774657
 111.6800118 112.9984052  55.1276703 102.3540729 110.5774929  60.8693773
 101.4886248 110.5660620  60.7576544 102.4539545 110.3905152  61.7164912
 102.2414896 110.5480990  60.9782717 118.3443659 112.0508610  65.6826533
 118.7698731 111.5283032  65.1296958 117.9800579 112.6489448  65.1615156
 118.3530262 112.0618837  65.5235543 111.8491753 100.5370345  68.9685785
 111.9819659  99.7401339  69.2966761 112.2336906 101.0636748  69.5484061
 111.9248082 100.4970262  69.1029288 114.9224109  97.4600671  65.5666878
 114.1170072  97.3498401  65.8834717 114.7930844  97.5613127  64.7096744
 114.7844241  97.4584341  65.4874919 118.3790069 103.6246163  66.1606575
 117.7953058 104.1255370  65.7484143 118.6994363 103.1175719  65.5270899
 118.3403245 103.6237998  66.0065082 110.9184868 102.5386758  56.4365250
 111.7400563 102.7085071  56.1946945 110.4554519 102.6934019  55.7131548
 110.9716031 102.5868491  56.2936894 109.5080200 100.5329520  67.2163679
 110.0524613 100.1920647  67.8068021 109.5617136 101.3914982  67.3584963
 109.5969320 100.6084780  67.3245552 105.3210759 114.2945936  64.0902487
 105.9255616 114.2541770  63.4616307 105.1138072 115.1417088  64.1206543
 105.3799656 114.4133939  64.0018603 100.5562041 113.2780554  63.9601410
 100.4586319 112.4676825  64.2691467 101.3390911 113.2572347  63.5747678
 100.6578178 113.1547644  63.9488273  42.0731745   1.1496078  45.7237809
  41.3214644   0.7711616  45.4953854  42.5217757   1.1814511  44.9756620
  42.0281412   1.0981685  45.5795311  50.9984322  -2.1180115  59.5661034
  51.7051089  -2.6128084  59.6947968  51.1872257  -1.6771033  58.8363692
  51.1312227  -2.1261764  59.4770079  47.5256705   1.5721447  41.1523356
  47.1908073   2.2498369  40.7167579  48.0383575   1.1826759  40.5640228
  47.5522286   1.6146025  41.0010148  47.0660996   3.5235716  47.0934468
  47.4500375   4.0922615  46.5539243  47.0020137   2.7985226  46.6140284
  47.1134423   3.5011179  46.9428331  50.5342426  -6.3274596  52.6032229
  51.0798386  -5.6489510  52.6626199  50.4759303  -6.4687135  51.7433811
  50.6058341  -6.2482595  52.4844290  43.6516501   1.1614470  47.9900582
  43.7526864   0.3514824  48.2997710  43.0558246   1.0671416  47.3600260
  43.5789040   1.0279498  47.9426820  52.3107495  -4.8989989  43.4765957
  52.1947021  -4.1482303  43.9058095  53.1063382  -5.1566036  43.7262044
  52.4112084  -4.8255142  43.5770049  43.4917241   6.0792059  49.3915438
  44.1354696   6.5205223  49.7811596  43.8173496   5.2745485  49.3045697
  43.6349069   6.0257254  49.4360915  36.8481545  -2.8165244  47.6152915
  36.6131730  -3.6497591  47.5085184  36.9867186  -2.5360578  46.8014116
  36.8337208  -2.8981740  47.4795270  44.1937820  -0.9095966  44.7635300
  44.5153662  -0.3690759  44.1596608  44.8409917  -1.4799195  44.8957589
  44.3363876  -0.9136791  44.6942335  38.8740766  -7.1027231  52.7580792
  38.7499463  -6.5164786  53.3930611  39.5259050  -7.5967036  53.0593067
  38.9514415  -7.0888427  52.8966721  46.4327464  -2.5209526  44.8349478
  46.8721099  -3.1292426  45.2804251  46.2832127  -2.9002153  44.0634943
  46.4748930  -2.6671055  44.7868645  43.8999107  -3.9265514  52.0368303
  44.5448109  -4.4193071  51.7179252  44.1400884  -3.7840728  52.8634382
  44.0309692  -3.9788072  52.1117836  46.4385198  -1.0810608  51.6875196
  46.7208441  -1.8759203  51.4661952  47.1671359  -0.6030021  51.7080257
  46.5874762  -1.1276012  51.6578211  50.0336800  -4.1682345  41.7880247
  49.9488096  -3.3121378  41.9329816  50.5221184  -4.4438021  42.4562406
  50.0925698  -4.0825023  41.9082328  50.9655234  -7.5497551  43.2877982
  50.4366705  -7.3337917  43.9475288  51.4880254  -6.8561412  43.2078951
  50.9643687  -7.4154414  43.3733581  56.4203287  -1.9751246  48.6611027
  55.5900990  -1.7640603  48.8244443  56.3712539  -2.8014192  48.3853310
  56.2910022  -2.0661640  48.6448392  42.8554841  -3.6534334  42.0885450
  42.2712057  -3.1484303  42.4951314  42.4524937  -3.8791947  41.3482042
  42.7094145  -3.6126086  42.0390475  38.4098870   2.0620427  48.8909122
  37.9266448   2.7870917  48.8668705  39.2222188   2.3596557  49.0019279
  38.4589618   2.2122781  48.9036401  44.4813024   0.8552608  51.4958936
  43.9639966   0.4960023  50.8920244  45.1787415   0.3314782  51.5065002
  44.5078605   0.7250296  51.4089195  48.1376616   1.3047422  57.4575109
  48.2259962   1.1173562  58.3053319  48.5666329   0.6584852  57.0579956
  48.2138718   1.1810430  57.5246861  45.7047076   0.5878582  56.4392771
  45.1417911   0.1751192  56.9632433  46.4668099   0.5131488  56.8585915
  45.7341525   0.5155983  56.5785772  47.3132056  -7.4068682  40.5654371
  47.5528060  -7.1990698  39.7529714  47.6347897  -8.2111173  40.6743315
  47.3969214  -7.4954581  40.4614924  41.2643067   2.5776603  49.0429401
  41.9663647   2.0628592  49.1002158  41.1840550   2.9050754  49.8476277
  41.3566828   2.5490829  49.1702194  42.3121974  -7.1847810  58.1709817
  42.4842478  -7.2941915  59.0195098  42.8491331  -6.5393404  57.9341009
  42.4166978  -7.1055808  58.2614913  40.5893843  -1.2317045  48.5515009
  41.4282742  -0.9994112  48.5988771  40.6205612  -2.1012733  48.4822045
  40.7175560  -1.3260098  48.5479654  41.2146546  -0.8116170  52.8528315
  41.7544771  -0.9545039  53.5231687  40.5316492  -0.4119419  53.2212341
  41.1938700  -0.7736499  53.0062737  50.6387431  -5.1325169  48.0473339
  51.3944946  -4.6993655  48.0862248  50.7449755  -5.7820399  48.6207975
  50.7657601  -5.1647685  48.1371365  53.6767602  -1.3051892  48.7975742
  53.2402834  -1.3015149  49.5534714  53.3430517  -0.6246393  48.3655320
  53.5630222  -1.2039436  48.8456575  48.2496675   0.7356441  60.1218893
  49.0337092   0.8487289  60.4874635  48.0493270  -0.0902422  60.3177579
  48.3362701   0.6303160  60.2053279  36.6183691  -4.5915879  53.0062737
  36.3522106  -5.4076762  53.1653727  36.6322255  -4.5462723  52.1358252
  36.5808413  -4.7058974  52.9016219  48.4067069   2.6466543  53.7685348
  47.6082314   2.4066043  54.0259217  48.8553080   2.6980936  54.5152396
  48.3541680   2.6188934  53.9170273  56.8111948  -4.5870972  47.6895380
  57.4728382  -5.1480303  47.5891288  56.1703360  -5.0818941  48.0148071
  56.8140816  -4.7434563  47.7227720  47.6988756  -1.2900840  39.9976303
  48.1139904  -1.6215817  39.3060799  46.8680685  -1.5231938  39.8696440
  47.6376764  -1.3729585  39.8767150  37.0277105  -3.8057099  50.2874481
  36.8452678  -3.8310213  49.4346773  37.7626773  -3.3358162  50.3263390
  37.1091168  -3.7395737  50.1672399  53.0976779  -3.5705589  47.4307368
  53.3332368  -3.4260391  46.6034219  53.2466342  -2.8063181  47.8238882
  53.1542582  -3.4366535  47.3670972  40.0922856  -7.0872097  56.7956589
  40.8162829  -7.1019066  57.2821484  40.1938993  -6.3776741  56.2978558
  40.2141065  -6.9847393  56.7935376  54.9267235  -4.7303924  45.2676972
  55.2575453  -4.1976283  44.6617067  55.5000324  -4.6765036  45.9238923
  55.0600915  -4.6434355  45.2754754  47.4667806  -3.6073012  61.6605536
  46.6740786  -3.2929500  61.8458156  47.5816733  -3.3921544  60.8226321
  47.3663216  -3.5289175  61.5643871  50.1399125  -6.8839021  45.9500552
  50.2345979  -6.1449727  46.4040178  49.5157968  -7.3121545  46.3835117
  50.0608155  -6.8377700  46.0808700  48.3951598  -3.7052808  56.5990833
  48.9690460  -4.3425564  56.7539397  48.3166402  -3.7048726  55.7300491
  48.4684833  -3.7987697  56.4937244  50.3922146  -5.0390281  39.1837504
  50.3102308  -4.9688094  40.0492491  51.0301866  -4.4760537  38.9921245
  50.4741983  -4.9451310  39.2827454  43.7515317  -5.2729543  48.6512031
  43.4934561  -6.1057808  48.6243330  43.8063800  -5.0471930  47.8104531
  43.7215095  -5.3631772  48.5232167  42.7250029  -7.7191781  49.1376925
  42.1499620  -7.5599612  49.7740886  42.3485705  -8.3556372  48.6745376
  42.5852842  -7.7893968  49.1631484  47.4962256  -5.0169827  42.1946111
  48.3102895  -4.7254934  42.0828882  47.4321397  -5.6709964  41.6204404
  47.6064995  -5.0704632  42.0934948  53.7171746  -2.3343831  56.6075686
  53.4810384  -3.1655766  56.4887747  54.3614975  -2.3858223  57.1930531
  53.7766417  -2.4646143  56.6761580  43.3670164  -1.5448309  47.3218423
  44.0044111  -1.7836562  47.8670216  43.7925236  -1.3411150  46.5871583
  43.5246331  -1.5497299  47.2935580  38.0582807   0.6940027  51.2052727
  38.0986952   0.9654878  50.3772506  38.6177331   1.2181935  51.6210515
  38.1466153   0.8115782  51.1444615  44.0072979  -6.3246020  41.6593312
  44.3918132  -6.5438313  42.4109857  43.7584600  -5.4983074  41.7894389
  44.0275052  -6.2347873  41.7894389  54.7408167  -2.5499382  52.6703981
  54.4353984  -1.8171325  53.0317296  54.0214383  -2.9561452  52.3896767
  54.5895509  -2.5017649  52.6817118  45.7491636  -1.0675887  49.0012209
  45.8230645  -1.2300715  49.8554059  46.5661143  -0.8785697  48.7572691
  45.8807995  -1.0639144  49.0910235  39.5097393  -0.7218024  46.0306653
  38.6835511  -0.4756287  45.9040931  39.5709384  -0.8005943  46.8968711
  39.3971560  -0.6973075  46.1395597  44.2896222   1.8958856  43.7325682
  44.5794520   1.5047838  43.0084909  45.0199703   2.0775561  44.1730958
  44.4403106   1.8652670  43.6908490  44.8790967  -3.3023398  54.8178813
  44.3802661  -2.5907630  54.8963701  45.6891191  -2.9822731  54.7796975
  44.9247074  -3.1496549  54.8235382  42.2302138   3.8726239  46.7985832
  42.0102433   3.5823593  47.5912499  42.0096660   3.2141194  46.2703745
  42.1649732   3.7325947  46.8374741  41.1419085  -4.0400445  49.0641534
  40.8532333  -4.6662973  49.5987261  42.0102433  -4.0980157  49.1306214
  41.2279337  -4.1412900  49.1532488  44.3970093   5.2455629  45.5816525
  45.0494151   4.7132071  45.8107551  43.6995702   4.8924281  45.9684399
  44.3900811   5.1145152  45.6728692  41.3451358  -2.4005194  44.9883899
  42.0997326  -2.0192155  45.2019361  40.7521971  -1.9494050  45.4430595
  41.3688072  -2.2776366  45.0866777  52.3910012  -2.4339957  44.9247504
  52.9568044  -1.7746747  44.8406047  51.7437915  -2.0890259  45.3963906
  52.3788768  -2.2858016  44.9820260  42.6649585  -1.2296632  50.3624014
  42.1430338  -1.0896341  51.0475879  43.0523605  -1.9885968  50.5526132
  42.6453286  -1.3211108  50.4925091  48.8616590   0.5098827  44.3484583
  48.6203266  -0.2233312  43.9411648  49.0417923   1.0585684  43.6950916
  48.8524214   0.4821218  44.1914806  44.0915910  -4.1992613  45.7605505
  43.8958693  -3.5917879  45.1665808  44.3150256  -4.8924669  45.2797179
  44.0950551  -4.2115088  45.6021586  42.4894440  -7.3137875  45.8786374
  43.2117092  -7.1496717  45.4190180  42.0102433  -6.5928211  45.7725713
  42.5258171  -7.1839646  45.7951988  40.1402057  -4.9079803  54.9840514
  40.6523154  -4.6295550  54.3349273  39.8538400  -4.1690509  55.3503327
  40.1736920  -4.7577449  54.9430392  54.3245472  -5.7706090  48.5444300
  54.2379446  -5.6150664  49.3979079  53.8695952  -5.1268014  48.1703705
  54.2448728  -5.6530335  48.6151407  52.0919337  -1.7411983  50.9556641
  51.9533696  -1.0430938  51.4605384  51.3119335  -1.8963327  50.5992823
  51.9562564  -1.6611817  50.9782915  50.4297422  -5.4415608  57.2079023
  50.4245460  -6.3135791  57.2121449  51.1358416  -5.2427439  56.7348479
  50.5342426  -5.5411734  57.1386058  44.1568315  -5.7138624  56.5792843
  44.3011691  -5.1337416  55.9435953  44.5043964  -5.3362327  57.2842698
  44.2295777  -5.5717920  56.5891838  46.3288233  -6.5148456  54.3617975
  45.5811547  -6.3217441  53.9566253  46.4829758  -7.3403236  54.1242096
  46.2410660  -6.6083344  54.2663380  43.2296070   2.4764148  53.4453870
  43.3785634   1.9167064  52.7927274  44.0096072   2.5556149  53.8286389
  43.3670164   2.4049713  53.4050819  53.5872710  -2.3833730  41.7173140
  53.2079518  -3.1696592  41.7102430  52.9238955  -1.8346873  41.5744785
  53.4331184  -2.4188906  41.6953937  45.7549371   2.6478791  54.7238361
  45.6793042   1.9787601  55.2789149  45.6839230   3.3496579  55.2379027
  45.7329978   2.6523698  54.8815209  46.4119618   1.1679789  45.5561967
  47.1769509   0.8989433  45.2344631  46.3097708   0.6829800  46.2732029
  46.5101113   1.0569354  45.6141794  48.9338278  -1.8008027  37.5361916
  49.7011263  -1.7407902  37.1267768  48.4869587  -2.3727585  37.0518234
  48.9811705  -1.8771451  37.4039626  49.8316074  -2.9953371  49.8214648
  49.1561076  -3.2268139  50.3228035  49.8408450  -3.6032188  49.1956753
  49.7334578  -3.1194446  49.8030801  46.9610218  -8.1535542  56.5778701
  46.8969359  -7.2925586  56.4498838  47.1007405  -8.4703549  55.7774253
  46.9725688  -8.0735375  56.4406914  51.8332808  -0.1388239  42.0524826
  51.9152646   0.6678748  41.7286277  52.3182551  -0.1192279  42.7765600
  51.9169966  -0.0167576  42.1111725  45.6429312  -5.4603403  50.7194904
  45.2191561  -5.2598904  49.9833923  45.4674167  -6.3074555  50.8319204
  45.5540192  -5.5554621  50.6268594  45.1441005   6.0547110  53.1816361
  45.6336935   5.3557900  52.9992026  44.5725237   5.7570980  53.7692419
  45.1325535   5.9073334  53.2417402  40.9311757  -4.9651351  46.1522877
  41.0876376  -5.0304548  47.0078869  41.2712350  -4.1902799  45.9401556
  41.0044991  -4.8602153  46.2477471  47.4690901  -5.5893468  45.0216240
  48.0106447  -6.0923087  45.4854860  47.7837460  -5.6428273  44.2105725
  47.5955298  -5.6714047  44.9700052  51.3408009  -1.3790820  62.1343152
  52.1542874  -1.6505671  62.2948285  51.1802975  -1.6783280  61.3303348
  51.4377957  -1.4635894  62.0388558  45.6377351  -0.1976116  42.3056268
  45.7070171  -1.0561578  42.4449268  46.4165806   0.0195765  41.9775293
  45.7630201  -0.2923252  42.2773425  50.0284838   2.2261585  46.5192761
  49.6364630   1.9228300  45.8015627  50.1837911   3.0630675  46.3297715
  49.9938428   2.3045422  46.3849258  50.1924513  -1.2088426  46.4598792
  49.8339168  -1.0373783  47.2362824  49.7063224  -0.7475220  45.9026790
  50.0683210  -1.1149455  46.4924061  44.9812879  -5.5289261  38.9999026
  45.2705403  -4.7524378  39.2742600  45.0684678  -6.0400529  39.7013526
  45.0367135  -5.4897342  39.1441524  47.8772766  -7.6808026  60.7950550
  48.3472397  -7.0565910  61.1818424  47.9234646  -8.3491051  61.3543764
  47.9540642  -7.6873346  60.9350621  51.3529253  -0.3184530  57.4065993
  51.9908973  -0.8124334  57.0728449  50.7103344  -0.3907130  56.8218220
  51.3523479  -0.4025521  57.2708348  51.4083509   0.3735278  54.0471349
  52.1975887   0.0224343  54.1673431  51.5827107   1.1871667  53.7847983
  51.5503791   0.4421135  54.0259217  41.1476820  -6.2155996  51.0999138
  40.3064826  -6.3152122  51.3078032  41.3566828  -5.4460516  51.4513459
  41.0541512  -6.1163953  51.1826453  44.9593484  -8.2874597  50.3496736
  44.6556622  -8.8418609  50.9507143  44.2572905  -8.1082387  49.8624770
  44.8109694  -8.3429814  50.3666441  43.0211836  -1.0724876  55.0568834
  42.9132190  -1.0622814  55.9230892  43.2307617  -0.2470096  54.8673787
  43.0361947  -0.9483801  55.1572925  41.0385628  -3.8212234  52.5190771
  40.4473561  -3.1802736  52.4893786  41.8006651  -3.3974616  52.4922071
  41.0633888  -3.6636395  52.5105918  57.1576049  -3.9906464  53.5168049
  57.2159173  -3.5419815  54.2628026  56.5242517  -3.5807651  53.0798129
  57.0727344  -3.8632729  53.5620598  50.7975144   1.6297078  49.9522796
  50.5994832   2.1187892  49.2579007  50.1762855   1.8338319  50.5306929
  50.6762708   1.7313616  49.9346019  44.8583122  -6.6018025  44.2933040
  45.6025167  -6.2143749  44.5315990  45.0043818  -7.4460600  44.4573528
  44.9893707  -6.6687552  44.3527010  52.7148946  -4.8038770  55.4868044
  53.4383145  -5.2566243  55.3079064  52.4498908  -4.5234104  54.7040372
  52.7830219  -4.8287801  55.3446759  38.2961490  -2.1478136  53.6624687
  37.7661414  -2.8385697  53.7119662  38.5686583  -2.1567951  52.8337396
  38.2586212  -2.2511004  53.5472103  49.3281580  -1.5652434  42.3862370
  50.0515779  -1.0994321  42.2426943  48.8882171  -1.4978824  41.6359967
  49.3697272  -1.4868597  42.2547151  48.4967735  -4.7054892  53.6363059
  47.8824728  -5.2496841  53.9311694  49.0135020  -5.2190655  53.1568875
  48.4823398  -4.8618483  53.6087287  47.7364032  -3.6350622  51.3707358
  47.3091640  -4.2600903  50.9372793  47.7288977  -3.9175700  52.1966365
  47.6723174  -3.7697841  51.4287185  40.8526559  -8.5985448  54.4395792
  41.0120046  -9.3542124  54.8447514  40.6719453  -8.0494509  55.0936529
  40.8491918  -8.6291635  54.5958498  44.5280677  -4.4650309  59.0675931
  43.6776308  -4.3278594  59.2033576  44.6908805  -5.1986531  59.5123632
  44.4264541  -4.5536208  59.1531530  43.7665428  -7.5150539  53.2629535
  42.9357357  -7.3476721  53.0564783  43.7116945  -7.8914588  54.0478420
  43.6354843  -7.5460808  53.3478063  42.1401471  -9.2394947  43.7919653
  42.2804433  -8.7422483  44.4948294  42.6384004  -9.9408653  43.9333866
  42.2342552  -9.2692969  43.9171232  42.1701694  -8.3727836  41.1212230
  42.8046773  -7.7767411  41.0561691  42.2527305  -8.6724379  41.9358100
  42.2758245  -8.3286928  41.2315316  46.9777650  -1.4194987  54.6156488
  46.4702741  -0.8659140  55.0597118  46.6804296  -1.3586697  53.7975262
  46.8582534  -1.3288675  54.5604944  38.6754682  -6.1759996  44.3901776
  39.1846911  -5.5795488  44.7713081  39.1488954  -6.4434022  43.7078195
  38.8198057  -6.1274180  44.3456298  49.5885430   2.4968271  42.5460431
  48.8714740   2.3229133  42.0807668  50.2392167   2.2620843  42.0135917
  49.5787280   2.4364064  42.3989649  46.2220135   3.5129572  51.5213495
  45.9985789   2.7548401  51.8897521  45.7329978   3.5427593  50.7993934
  46.1163584   3.4051796  51.4690235  41.0345213  -9.5403737  47.2574956
  40.3157203  -9.1239604  47.5247820  41.4057576  -8.9749498  46.7066594
  40.9837145  -9.3954456  47.2157763  48.2791124  -2.3188696  59.0725428
  48.2386979  -2.9639019  58.4870584  49.0914442  -2.3752079  59.3850840
  48.3934278  -2.4229729  59.0322377  44.8698592   3.7330030  48.9750579
  44.4558990   3.0704160  48.5854421  45.5545966   3.8807889  48.4546273
  44.9096963   3.6570688  48.8407076  48.2363886   2.8920115  49.7274196
  47.8380169   3.0022385  48.9595016  47.6215105   3.1002181  50.3100756
  48.0862775   2.9393683  49.7005495  43.9668833  -8.6891760  55.6275186
  43.4547736  -9.2970577  55.9860217  43.7948329  -7.9735167  56.0949162
  43.8658470  -8.6728460  55.7491410  55.9705729  -2.5327918  43.1117286
  56.3539334  -1.7836562  43.3415383  55.1749842  -2.2862099  42.8529275
  55.9099511  -2.3858224  43.1074860  45.5621020  -7.6799862  59.0329449
  46.3132347  -7.3648185  59.3469003  45.7543597  -7.8820691  58.2063370
  45.7012435  -7.6632480  58.9572844  50.1347163  -6.8728794  49.9289451
  50.6300828  -7.5905798  49.8893471  49.3246938  -7.1757996  49.8143938
  50.0891056  -7.0231147  49.9063177  45.5805774  -3.0230980  42.0786455
  44.7717097  -3.3464307  42.0319765  46.0880683  -3.7297758  42.0114704
  45.5355441  -3.1749664  42.0616750  36.2096051  -5.5958787  47.8033820
  35.3441571  -5.6073097  47.6916591  36.3094867  -5.7828564  48.6504959
  36.0970218  -5.6252726  47.9122764  52.1998982  -4.1225106  52.6166580
  52.6254053  -4.6450684  52.0637005  51.8355901  -3.5244269  52.0955203
  52.2085584  -4.1114879  52.4575589  41.8353061   4.1739111  51.3763925
  42.1499620   4.9875500  51.3841707  42.2446475   3.7889330  52.0446084
  41.9421159   4.2367814  51.4768017  48.7877581  -0.4090842  48.9467737
  49.2588759   0.3049421  49.1157722  49.1237759  -1.0092092  49.4827607
  48.9072696  -0.3919377  49.0500113  50.8754566   1.2010472  61.1259809
  50.9851531   0.4119032  61.4816556  51.2045462   1.1116408  60.3234147
  50.9406971   1.0716325  61.0602200  49.4251527  -0.6172908  55.7095430
  48.8772473  -1.2415024  55.4415495  49.8864556  -0.4278636  54.9939509
  49.4118737  -0.6813857  55.5645861  39.1766081  -1.8787780  51.0242534
  39.7810939  -1.9191946  50.3956354  38.9693394  -1.0316628  51.0546589
  39.2354979  -1.7599778  50.9358650  48.9909854   0.3878165  52.2404771
  49.8108227   0.2441131  52.5021066  48.7103931   1.0124364  52.7821209
  49.0706597   0.4588517  52.3592710  34.4117364  -2.8953163  50.8941457
  34.3141642  -3.7056891  51.2031513  35.1946233  -2.9161369  50.5087725
  34.5133500  -3.0186072  50.8828320  65.4623504   8.0443017  45.2047647
  65.4317508   8.8987653  45.3765917  66.0604853   7.7438309  45.7633791
  65.5460662   8.1259513  45.3122450  58.6623189   7.1318668  49.9600578
  57.8061084   7.2927166  50.0109695  58.7090843   6.2610732  49.9805639
  58.5422300   7.0269470  49.9706644  53.0464329  16.6681386  45.7237809
  52.2947228  16.2896924  45.4953854  53.4950340  16.6999819  44.9756620
  53.0013995  16.6166993  45.5795311  61.9716905  13.4005193  59.5661034
  62.6783673  12.9057224  59.6947968  62.1604841  13.8414275  58.8363692
  62.1044811  13.3923544  59.4770079  58.4989288  17.0906755  41.1523356
  58.1640657  17.7683677  40.7167579  59.0116159  16.7012066  40.5640228
  58.5254870  17.1331333  41.0010148  58.0393580  19.0421024  47.0934468
  58.4232959  19.6107922  46.5539243  57.9752721  18.3170534  46.6140284
  58.0867007  19.0196487  46.9428331  61.5075010   9.1910712  52.6032229
  62.0530970   9.8695798  52.6626199  61.4491886   9.0498173  51.7433811
  61.5790924   9.2702713  52.4844290  54.6249085  16.6799778  47.9900582
  54.7259448  15.8700132  48.2997710  54.0290830  16.5856724  47.3600260
  54.5521623  16.5464806  47.9426820  63.2840079  10.6195319  43.4765957
  63.1679604  11.3703005  43.9058095  64.0795965  10.3619272  43.7262044
  63.3844668  10.6930166  43.5770049  54.4649824  21.5977367  49.3915438
  55.1087280  22.0390531  49.7811596  54.7906080  20.7930793  49.3045697
  54.6081653  21.5442562  49.4360915  47.8214129  12.7020064  47.6152915
  47.5864313  11.8687717  47.5085184  47.9599770  12.9824730  46.8014116
  47.8069791  12.6203568  47.4795270  50.1204216   4.8705795  50.5137223
  49.5009248   4.2798442  50.3447238  50.0188080   5.4617230  49.8801546
  50.0141892   4.8709877  50.3942213  55.1670404  14.6089342  44.7635300
  55.4886245  15.1494549  44.1596608  55.8142501  14.0386113  44.8957589
  55.3096459  14.6048517  44.6942335  57.2172112   6.6105337  44.8469686
  57.9152277   6.7893464  45.3391150  57.5324445   6.0875676  44.2240076
  57.3667449   6.5599109  44.8271696  49.8473349   8.4158077  52.7580792
  49.7232046   9.0020522  53.3930611  50.4991634   7.9218272  53.0593067
  49.9246999   8.4296881  52.8966721  57.4060047  12.9975782  44.8349478
  57.8453683  12.3892882  45.2804251  57.2564710  12.6183155  44.0634943
  57.4481513  12.8514253  44.7868645  54.8731690  11.5919794  52.0368303
  55.5180693  11.0992237  51.7179252  55.1133468  11.7344580  52.8634382
  55.0042276  11.5397236  52.1117836  57.4117782  14.4374699  51.6875196
  57.6941025  13.6426105  51.4661952  58.1403942  14.9155287  51.7080257
  57.5607346  14.3909296  51.6578211  55.3898976   1.9797733  48.9290961
  55.0602306   2.4308877  48.2594660  54.7143977   1.9013897  49.4763967
  55.2409412   2.0348869  48.9114184  61.0069384  11.3502963  41.7880247
  60.9220679  12.2063930  41.9329816  61.4953767  11.0747287  42.4562406
  61.0658281  11.4360284  41.9082328  62.5975383  -2.0316744  47.1740572
  62.2828824  -1.3413265  47.6060994  62.0802325  -2.0871961  46.4726072
  62.4739854  -1.9381855  47.1337521  61.9387817   7.9687757  43.2877982
  61.4099289   8.1847391  43.9475288  62.4612837   8.6623896  43.2078951
  61.9376270   8.1030894  43.3733581  67.3935870  13.5434062  48.6611027
  66.5633573  13.7544705  48.8244443  67.3445122  12.7171116  48.3853310
  67.2642606  13.4523668  48.6448392  53.8287425  11.8650974  42.0885450
  53.2444640  12.3701005  42.4951314  53.4257520  11.6393361  41.3482042
  53.6826729  11.9059222  42.0390475  49.3831454  17.5805735  48.8909122
  48.8999032  18.3056225  48.8668705  50.1954772  17.8781865  49.0019279
  49.4322201  17.7308089  48.9036401  55.4545608  16.3737916  51.4958936
  54.9372549  16.0145331  50.8920244  56.1519999  15.8500090  51.5065002
  55.4811189  16.2435604  51.4089195  59.1109200  16.8232730  57.4575109
  59.1992546  16.6358870  58.3053319  59.5398912  16.1770159  57.0579956
  59.1871302  16.6995738  57.5246861  56.6779659  16.1063890  56.4392771
  56.1150494  15.6936500  56.9632433  57.4400683  16.0316796  56.8585915
  56.7074108  16.0341290  56.5785772  58.2864639   8.1116626  40.5654371
  58.5260643   8.3194610  39.7529714  58.6080480   7.3074135  40.6743315
  58.3701797   8.0230727  40.4614924  53.5954930   0.0410022  44.4113909
  54.3500898   0.4088339  44.1730959  53.4182464   0.4149576  45.1793088
  53.6809408   0.1508210  44.4898797  52.2375651  18.0961911  49.0429401
  52.9396230  17.5813900  49.1002158  52.1573134  18.4236062  49.8476277
  52.3299411  18.0676137  49.1702194  66.8889828   6.1904462  52.4561448
  66.0518250   6.2606649  52.6909042  66.8578059   6.1928957  51.5835750
  66.7608111   6.2014689  52.3620996  53.2854557   8.3337498  58.1709817
  53.4575061   8.2243393  59.0195098  53.8223915   8.9791903  57.9341009
  53.3899561   8.4129500  58.2614913  51.9511994   2.4480341  41.1092022
  51.7687568   2.6652222  40.2833014  52.8137607   2.5619354  41.1650636
  52.0516584   2.4970239  40.9946509  51.5626426  14.2868263  48.5515009
  52.4015326  14.5191196  48.5988771  51.5938196  13.4172574  48.4822045
  51.6908144  14.1925210  48.5479654  52.1879129  14.7069138  52.8528315
  52.7277354  14.5640269  53.5231687  51.5049076  15.1065889  53.2212341
  52.1671283  14.7448809  53.0062737  57.6311714  -0.5493248  44.1441045
  58.3597874  -0.7277294  43.6979202  57.7206606   0.2924831  44.3548224
  57.7518376  -0.4509370  44.1094563  61.6120014  10.3860139  48.0473339
  62.3677529  10.8191653  48.0862248  61.7182339   9.7364909  48.6207975
  61.7390185  10.3537623  48.1371365  64.6500185  14.2133416  48.7975742
  64.2135417  14.2170159  49.5534714  64.3163101  14.8938915  48.3655320
  64.5362805  14.3145872  48.8456575  59.2229259  16.2541749  60.1218893
  60.0069676  16.3672597  60.4874635  59.0225854  15.4282886  60.3177579
  59.3095284  16.1488468  60.2053279  47.5916274  10.9269429  53.0062737
  47.3254690  10.1108546  53.1653727  47.6054839  10.9722585  52.1358252
  47.5540997  10.8126334  52.9016219  64.5697668   1.2547244  51.0405170
  65.2123577   1.3245349  51.6267086  64.8220689   0.5876467  50.5384712
  64.7019800   1.1673593  51.0532450  51.4974021   5.7254513  39.6214495
  50.7832199   5.4392693  40.0336927  51.9817990   6.0651139  40.2620882
  51.4633385   5.7336163  39.7770130  52.3414881   4.4647807  55.6529744
  51.6486678   3.9944787  55.8990476  52.9575208   4.2386112  56.2271451
  52.3299411   4.3614939  55.7738897  59.3799652  18.1651851  53.7685348
  58.5814898  17.9251351  54.0259217  59.8285664  18.2166244  54.5152396
  59.3274264  18.1374242  53.9170273  67.7844532  10.9314336  47.6895380
  68.4460966  10.3705004  47.5891288  67.1435944  10.4366367  48.0148071
  67.7873399  10.7750745  47.7227720  58.6721339  14.2284467  39.9976303
  59.0872488  13.8969491  39.3060799  57.8413269  13.9953370  39.8696440
  58.6109348  14.1455723  39.8767150  48.0009688  11.7128208  50.2874481
  47.8185261  11.6875094  49.4346773  48.7359357  12.1827146  50.3263390
  48.0823752  11.7789571  50.1672399  64.0709362  11.9479718  47.4307368
  64.3064951  12.0924917  46.6034219  64.2198926  12.7122126  47.8238882
  64.1275166  12.0818773  47.3670972  51.0655440   8.4313211  56.7956589
  51.7895412   8.4166242  57.2821484  51.1671576   9.1408567  56.2978558
  51.1873649   8.5337915  56.7935376  65.8999819  10.7881384  45.2676972
  66.2308036  11.3209025  44.6617067  66.4732907  10.8420272  45.9238923
  66.0333498  10.8750953  45.2754754  58.4400389  11.9112296  61.6605536
  57.6473370  12.2255808  61.8458156  58.5549316  12.1263764  60.8226321
  58.3395800  11.9896133  61.5643871  61.1131708   8.6346287  45.9500552
  61.2078563   9.3735581  46.4040178  60.4890552   8.2063763  46.3835117
  61.0340738   8.6807608  46.0808700  59.3684182  11.8132500  56.5990833
  59.9423044  11.1759744  56.7539397  59.2898986  11.8136582  55.7300491
  59.4417417  11.7197611  56.4937244  47.9680598   8.5921709  50.4373547
  48.5454101   8.4558160  51.0765793  47.2694660   8.1357493  50.6919132
  47.9501620   8.5043975  50.5695837  61.3654729  10.4795027  39.1837504
  61.2834892  10.5497214  40.0492491  62.0034450  11.0424771  38.9921245
  61.4474567  10.5733998  39.2827454  54.7247901  10.2455765  48.6512031
  54.4667145   9.4127500  48.6243330  54.7796383  10.4713378  47.8104531
  54.6947678  10.1553536  48.5232167  59.8048951   2.3484215  48.7516123
  59.1005277   1.8593401  48.9100042  59.8533925   2.3606690  47.8804568
  59.7079002   2.2773863  48.6455463  53.6982613   7.7993527  49.1376925
  53.1232204   7.9585696  49.7740886  53.3218289   7.1628936  48.6745376
  53.5585425   7.7291340  49.1631484  57.3655901   6.2716877  53.9969304
  56.9770334   5.8471094  53.3421495  56.7010600   6.5199026  54.5046330
  57.2102829   6.2455598  53.9757172  67.0079171   6.0291881  46.7717134
  66.7515735   5.2171823  46.5815017  67.8508485   6.0369448  46.5447321
  67.0945196   5.9103879  46.7101951  43.4439432   7.4433602  47.1521366
  43.5299683   7.0665470  47.9334896  44.0715229   7.0694048  46.6741324
  43.5495983   7.3319084  47.1966843  61.1882263  -0.0308495  51.5093288
  61.5692775  -0.7130324  51.8961162  60.3845547  -0.3198893  51.3268952
  61.1258725  -0.1741446  51.5397344  58.4694840  10.5015481  42.1946111
  59.2835478  10.7930374  42.0828882  58.4053981   9.8475343  41.6204404
  58.5797579  10.4480676  42.0934948  64.6904330  13.1841477  56.6075686
  64.4542967  12.3529542  56.4887747  65.3347559  13.1327084  57.1930531
  64.7499001  13.0539165  56.6761580  54.3402748  13.9736999  47.3218423
  54.9776695  13.7348746  47.8670216  54.7657819  14.1774158  46.5871583
  54.4978914  13.9688009  47.2935580  49.0315390  16.2125335  51.2052727
  49.0719536  16.4840186  50.3772506  49.5909914  16.7367243  51.6210515
  49.1198736  16.3301090  51.1444615  54.9805563   9.1939288  41.6593312
  55.3650716   8.9746995  42.4109857  54.7317183  10.0202234  41.7894389
  55.0007636   9.2837435  41.7894389  55.1474103   2.4745704  61.3755896
  54.8327544   3.2445266  61.1125459  54.8264036   1.9115960  60.7908123
  55.0533022   2.5055972  61.2497246  65.7140750  12.9685926  52.6703981
  65.4086568  13.7013983  53.0317296  64.9946966  12.5623856  52.3896767
  65.5628093  13.0167659  52.6817118  56.7224220  14.4509421  49.0012209
  56.7963228  14.2884593  49.8554059  57.5393726  14.6399611  48.7572691
  56.8540578  14.4546164  49.0910235  71.4142543   9.6078927  51.9972325
  71.3467043   9.6274886  51.1274912  71.3998205  10.4509254  52.2227996
  71.4021299   9.7352661  51.9024802  50.4829977  14.7967284  46.0306653
  49.6568094  15.0429021  45.9040931  50.5441968  14.7179365  46.8968711
  50.3704144  14.8212233  46.1395597  52.7006000   0.8636225  46.9902093
  51.8328426   0.9358825  47.0559702  52.9881205   1.6658304  47.1790068
  52.6145748   0.9930372  47.0276859  61.8238889   1.0114084  55.3213415
  62.5692481   0.8223895  54.9076840  61.4076194   1.5372322  54.7627271
  61.8723863   1.0616230  55.1777988  55.2628806  17.4144164  43.7325682
  55.5527104  17.0233146  43.0084909  55.9932286  17.5960869  44.1730958
  55.4135690  17.3837978  43.6908490  69.2001160   8.3823313  50.2718920
  69.7509081   7.7491382  50.5116012  69.1845275   8.9138706  50.9634424
  69.2786356   8.3672261  50.4097778  55.8523551  12.2161910  54.8178813
  55.3535244  12.9277678  54.8963701  56.6623775  12.5362577  54.7796975
  55.8979657  12.3688759  54.8235382  53.2034721  19.3911547  46.7985832
  52.9835017  19.1008901  47.5912499  52.9829243  18.7326502  46.2703745
  53.1382315  19.2511255  46.8374741  52.1151668  11.4784863  49.0641534
  51.8264917  10.8522334  49.5987261  52.9835016  11.4205151  49.1306214
  52.2011920  11.3772407  49.1532488  62.9029566   6.6219647  49.3823516
  62.5594332   5.9009982  49.7330765  63.0022609   6.4133498  48.5401874
  62.8671609   6.4843850  49.3095196  55.3702677  20.7640937  45.5816525
  56.0226735  20.2317379  45.8107551  54.6728286  20.4109589  45.9684399
  55.3633395  20.6330460  45.6728692  52.3183942  13.1180114  44.9883899
  53.0729910  13.4993153  45.2019361  51.7254554  13.5691258  45.4430595
  52.3420655  13.2408942  45.0866777  63.3642595  13.0845351  44.9247504
  63.9300628  13.7438561  44.8406047  62.7170499  13.4295049  45.3963906
  63.3521352  13.2327292  44.9820260  54.7790609   5.0742955  60.1141111
  53.9690385   5.3800734  60.0030954  55.2565295   5.7948537  60.2293695
  54.7294088   5.2257556  60.1148182  53.6382168  14.2888676  50.3624014
  53.1162922  14.4288967  51.0475879  54.0256189  13.5299340  50.5526132
  53.6185869  14.1974199  50.4925091  50.6273352   4.3394484  44.4318969
  50.3398148   3.9695755  43.6950916  51.3143821   4.8089340  44.1702674
  50.6862250   4.3541454  44.2834045  59.8349173  16.0284135  44.3484583
  59.5935849  15.2951996  43.9411648  60.0150506  16.5770992  43.6950916
  59.8256797  16.0006526  44.1914806  55.0648494  11.3192695  45.7605505
  54.8691277  11.9267429  45.1665808  55.2882840  10.6260639  45.2797179
  55.0683135  11.3070220  45.6021586  53.4627024   8.2047433  45.8786374
  54.1849676   8.3688591  45.4190180  52.9835017   8.9257097  45.7725713
  53.4990755   8.3345662  45.7951988  61.4220532   4.5411231  51.2583059
  60.5831632   4.5672510  51.0221322  61.4924899   5.1881967  51.8388405
  61.3088925   4.6407357  51.3092176  51.1134641  10.6105505  54.9840514
  51.6255738  10.8889758  54.3349273  50.8270983  11.3494799  55.3503327
  51.1469504  10.7607859  54.9430392  59.8689810   1.4396608  45.9910675
  60.5716163   1.2404357  45.5130633  59.6033999   0.6672551  46.2979518
  59.9336442   1.2959574  45.9656116  65.2978055   9.7479218  48.5444300
  65.2112030   9.9034644  49.3979079  64.8428535  10.3917294  48.1703705
  65.2181312   9.8654973  48.6151407  48.2001547   5.1175697  45.2804250
  48.3017683   5.9201858  45.6085226  48.9957434   4.9163033  44.9827331
  48.3329453   5.2061596  45.2839605  54.6318366   2.7031894  55.0441555
  54.4401563   2.7187028  55.8940979  55.4816962   2.8995568  55.0208210
  54.7294088   2.7346245  55.1664850  49.0165279   5.2322875  53.0225372
  48.8750771   4.3806816  53.1469880  49.3005842   5.2751536  52.1987578
  49.0373125   5.1122625  52.9192996  59.1703871   7.0689965  47.1669860
  58.9238586   6.9885716  48.0006649  59.4988995   6.2843433  46.9732387
  59.1825115   6.9416231  47.2617383  63.0651920  13.7773325  50.9556641
  62.9266280  14.4754370  51.4605384  62.2851918  13.6221981  50.5992823
  62.9295147  13.8573491  50.9782915  61.4030005  10.0769700  57.2079023
  61.3978044   9.2049516  57.2121449  62.1090999  10.2757869  56.7348479
  61.5075009   9.9773574  57.1386058  55.1300899   9.8046684  56.5792843
  55.2744274  10.3847892  55.9435953  55.4776547  10.1822981  57.2842698
  55.2028360   9.9467388  56.5891838  57.3020816   9.0036852  54.3617975
  56.5544130   9.1967867  53.9566253  57.4562341   8.1782072  54.1242096
  57.2143244   8.9101964  54.2663380  54.2028654  17.9949456  53.4453870
  54.3518217  17.4352372  52.7927274  54.9828656  18.0741457  53.8286389
  54.3402747  17.9235021  53.4050819  64.5605293  13.1351578  41.7173140
  64.1812102  12.3488716  41.7102430  63.8971539  13.6838435  41.5744785
  64.4063768  13.0996402  41.6953937  56.7281954  18.1664099  54.7238361
  56.6525625  17.4972909  55.2789149  56.6571813  18.8681887  55.2379027
  56.7062561  18.1709006  54.8815209  57.5422593   2.8987403  55.2513378
  57.9995207   3.6311377  55.3786171  57.6178922   2.4753868  56.0100634
  57.6213563   2.9444641  55.3814455  49.7855584   3.1453223  56.3402822
  49.2497774   2.5333581  56.6563589  49.8473349   3.7201359  56.9936489
  49.7151217   3.1400150  56.4838249  57.3852201  16.6865097  45.5561967
  58.1502092  16.4174741  45.2344631  57.2830291  16.2015108  46.2732029
  57.4833697  16.5754662  45.6141794  55.4204971   4.8889507  52.0955202
  54.6301046   4.7080967  52.4172538  55.8165594   4.1116459  52.0785497
  55.3621847   4.7476968  52.1407751  59.9070862  13.7177281  37.5361916
  60.6743847  13.7777406  37.1267768  59.4602171  13.1457723  37.0518234
  59.9544289  13.6413857  37.4039626  60.8048657  12.5231937  49.8214648
  60.1293659  12.2917169  50.3228035  60.8141033  11.9153120  49.1956753
  60.7067162  12.3990862  49.8030801  57.9342801   7.3649766  56.5778701
  57.8701943   8.2259722  56.4498838  58.0739989   7.0481759  55.7774253
  57.9458271   7.4449933  56.4406914  62.8065392  15.3797069  42.0524826
  62.8885229  16.1864056  41.7286277  63.2915134  15.3993029  42.7765600
  62.8902550  15.5017732  42.1111725  56.6161895  10.0581905  50.7194904
  56.1924144  10.2586404  49.9833923  56.4406750   9.2110753  50.8319204
  56.5272776   9.9630687  50.6268594  56.1173589  21.5732418  53.1816361
  56.6069519  20.8743208  52.9992026  55.5457821  21.2756288  53.7692419
  56.1058119  21.4258642  53.2417402  51.9044340  10.5533957  46.1522877
  52.0608959  10.4880760  47.0078869  52.2444933  11.3282509  45.9401556
  51.9777575  10.6583155  46.2477471  58.4423485   9.9291840  45.0216240
  58.9839030   9.4262221  45.4854860  58.7570044   9.8757035  44.2105725
  58.5687882   9.8471261  44.9700052  62.3140592  14.1394488  62.1343152
  63.1275457  13.8679637  62.2948285  62.1535559  13.8402028  61.3303348
  62.4110541  14.0549414  62.0388558  56.6109934  15.3209192  42.3056268
  56.6802755  14.4623730  42.4449268  57.3898390  15.5381073  41.9775293
  56.7362785  15.2262056  42.2773425  59.5912754   4.8228145  55.0738540
  59.8054724   4.1839059  54.5201894  58.9746653   5.2673969  54.6446402
  59.5318083   4.7938289  54.9288971  61.0017422  17.7446893  46.5192761
  60.6097214  17.4413608  45.8015627  61.1570494  18.5815983  46.3297715
  60.9671012  17.8230730  46.3849258  48.4778602   7.7368907  46.4683644
  48.8577567   8.1553452  45.8043911  47.9033966   8.3182363  46.7752487
  48.4489927   7.8846766  46.4160385  61.7551842   6.4317210  56.0121847
  60.9428524   6.1243100  56.0935020  62.2141777   5.9516210  56.5764560
  61.7032227   6.3153702  56.1076442  61.1657097  14.3096882  46.4598792
  60.8071752  14.4811525  47.2362824  60.6795808  14.7710088  45.9026790
  61.0415794  14.4035853  46.4924061  58.9827483  -2.0671920  50.0625883
  58.1121041  -2.0933198  50.0159193  59.2367824  -2.2394727  49.2451729
  58.8921043  -2.0961776  49.9346020  55.9545462   9.9896047  38.9999026
  56.2437987  10.7660930  39.2742600  56.0417261   9.4784779  39.7013526
  56.0099718  10.0287966  39.1441524  58.8505350   7.8377281  60.7950550
  59.3204981   8.4619398  61.1818424  58.8967230   7.1694257  61.3543764
  58.9273226   7.8311962  60.9350621  56.0076623  -0.0565691  51.5199354
  55.4915112  -0.7485500  51.6450933  55.4470552   0.6105086  51.4661952
  55.8483137  -0.0602433  51.5305420  58.0768857   0.4827269  53.3492206
  57.6900610   0.5076300  54.1305736  57.5901794  -0.0831052  52.8966723
  57.9481366   0.4023020  53.3980110  62.3261836  15.2000778  57.4065993
  62.9641557  14.7060974  57.0728449  61.6835928  15.1278178  56.8218220
  62.3256063  15.1159786  57.2708348  64.0518836   7.0489924  51.9731908
  63.6246444   6.9616272  51.2180008  63.4144889   7.1567699  52.5586752
  63.8948444   7.0522584  51.9477350  57.7425999  -2.6305746  55.6402466
  58.3719116  -2.0945446  55.3623536  57.9111861  -2.7228387  56.4916032
  57.8603793  -2.5644383  55.7250994  57.5439913   2.1565449  57.9128878
  58.3713343   1.8850598  57.9687492  57.5647759   2.9526291  58.2692696
  57.6692763   2.2345203  57.9744061  62.3816093  15.8920586  54.0471349
  63.1708471  15.5409651  54.1673431  62.5559691  16.7056975  53.7847983
  62.5236374  15.9606443  54.0259217  52.1209403   9.3029312  51.0999138
  51.2797410   9.2033186  51.3078032  52.3299411  10.0724792  51.4513459
  52.0274096   9.4021355  51.1826453  49.5984970   6.9248849  48.9283889
  49.2041668   6.9991861  48.1533999  49.0425087   7.3106795  49.4792251
  49.4587783   6.9930624  48.8951549  61.2349917  -0.0969857  48.6087768
  61.4399510  -0.1647549  49.4544765  60.9076341   0.7088964  48.5408945
  61.2165165   0.0116083  48.7247423  55.9326068   7.2310711  50.3496736
  55.6289206   6.6766699  50.9507143  55.2305489   7.4102921  49.8624770
  55.7842278   7.1755493  50.3666441  54.9892165   4.5411231  44.9141438
  55.2651900   3.8230143  44.5019005  55.5890835   5.1396151  44.7062544
  55.1185430   4.5231602  44.8222199  53.9944419  14.4460432  55.0568834
  53.8864774  14.4562494  55.9230892  54.2040201  15.2715212  54.8673787
  54.0094530  14.5701507  55.1572925  64.4883605   0.4561907  48.0890533
  63.8757918   0.9432309  48.4744265  64.5847780  -0.2194602  48.6328184
  64.4121502   0.4280216  48.2269392  58.4902686   2.2124748  43.1888033
  58.9446432   2.3835309  43.9135877  58.9642731   1.5992859  42.7885808
  58.6271006   2.1475634  43.2361794  52.0118211  11.6973074  52.5190771
  51.4206144  12.3382572  52.4893786  52.7739235  12.1210692  52.4922071
  52.0366472  11.8548913  52.5105918  52.4078834   2.8575072  53.1858789
  52.8680315   2.9314001  53.9233913  52.4534941   3.6556326  52.8358610
  52.4829389   2.9869219  53.2431545  54.0562184   3.5241767  57.7530816
  53.6647749   2.8775114  58.1886594  54.2248046   4.1153202  58.3725071
  54.0233094   3.5156035  57.9093522  68.1308633  11.5278844  53.5168049
  68.1891756  11.9765493  54.2628026  67.4975100  11.9377657  53.0798129
  68.0459928  11.6552579  53.5620598  61.7707727  17.1482386  49.9522796
  61.5727416  17.6373200  49.2579007  61.1495438  17.3523627  50.5306929
  61.6495292  17.2498924  49.9346019  55.8315706   8.9167283  44.2933040
  56.5757751   9.3041559  44.5315990  55.9776402   8.0724708  44.4573528
  55.9626291   8.8497755  44.3527010  57.7495281   0.7117542  49.3264901
  56.9031326   0.8840349  49.2006251  57.7466414  -0.0933115  49.6630730
  57.6242431   0.6178571  49.3576028  58.8193582   4.4892756  50.1926959
  58.3453536   3.9634518  50.7032270  59.1911717   3.9422229  49.6241821
  58.8043470   4.3308753  50.1842106  49.1966612   6.4864263  55.5610505
  50.0592225   6.3859972  55.4747835  48.8658395   5.9058972  54.9996077
  49.2751808   6.3855889  55.4655911  65.0830312   9.5495132  51.6033740
  64.8428535   8.7101547  51.6076166  65.5622319   9.6295298  52.3274513
  65.1182496   9.4376531  51.7108542  60.7477081   5.3829311  43.2552713
  60.2200100   5.4658055  42.5658422  61.2072789   6.1247182  43.2517358
  60.7378932   5.5049973  43.1527408  67.0835499   6.3296589  49.5562999
  66.8445269   6.2892423  48.7183783  67.2469400   7.1767741  49.6828720
  67.0725803   6.4488674  49.4516481  63.6881529  10.7146538  55.4868044
  64.4115728  10.2619065  55.3079064  63.4231492  10.9951204  54.7040372
  63.7562803  10.6897507  55.3446759  52.5568398   5.3106712  52.2220923
  51.9321468   5.3225104  51.6146876  52.2213993   5.7866887  52.8712163
  52.4153889   5.3825229  52.2277492  52.7410146   3.6531830  38.2793608
  52.3922951   4.3051555  38.7425158  52.2606592   3.6388943  37.5517479
  52.6180390   3.7474884  38.2404699  49.2694073  13.3707172  53.6624687
  48.7393998  12.6799611  53.7119662  49.5419167  13.3617357  52.8337396
  49.2318796  13.2674304  53.5472103  60.3014164  13.9532874  42.3862370
  61.0248363  14.4190987  42.2426943  59.8614755  14.0206484  41.6359967
  60.3429856  14.0316711  42.2547151  59.4700319  10.8130416  53.6363059
  58.8557312  10.2688467  53.9311694  59.9867604  10.2994653  53.1568875
  59.4555981  10.6566825  53.6087287  58.7096616  11.8834686  51.3707358
  58.2824224  11.2584405  50.9372793  58.7021560  11.6009608  52.1966365
  58.6455757  11.7487467  51.4287185  51.8259143   6.9199859  54.4395792
  51.9852630   6.1643184  54.8447514  51.6452037   7.4690799  55.0936529
  51.8224502   6.8893673  54.5958498  59.7679446  -0.9138905  54.9946581
  59.2720007  -0.7175231  54.3038148  60.5248508  -0.5146237  54.8235383
  59.8066271  -0.8261171  54.8666718  57.0382326   2.7603441  51.5849892
  57.0624813   2.2263553  50.8962672  57.2893799   2.2520750  52.2475482
  57.0792244   2.6064345  51.5814536  44.5489915  10.0434936  51.0193036
  44.4433365   9.9981780  50.1545120  43.7990135  10.3888716  51.3007321
  44.4225518  10.0875844  50.9330365  53.3183648   1.4874259  50.9655636
  53.3582019   1.9883466  51.6790343  52.4933313   1.5784653  50.6961559
  53.2023174   1.5756076  51.0306174  55.5013261  11.0534999  59.0675931
  54.6508891  11.1906713  59.2033576  55.6641388  10.3198777  59.5123632
  55.3997124  10.9649100  59.1531530  54.7398011   8.0034769  53.2629535
  53.9089941   8.1708587  53.0564783  54.6849528   7.6270720  54.0478420
  54.6087426   7.9724500  53.3478063  52.5481794   1.4943662  58.8985946
  53.1734498   0.9505795  59.1715378  52.0932274   1.0138580  58.3293736
  52.5730055   1.3433143  58.8547540  53.1134055   6.2790361  43.7919653
  53.2537016   6.7762825  44.4948294  53.6116588   5.5776655  43.9333866
  53.2075136   6.2492339  43.9171232  53.1434277   7.1457472  41.1212230
  53.7779357   7.7417897  41.0561691  53.2259888   6.8460929  41.9358100
  53.2490828   7.1898380  41.2315316  66.1216843   9.6772949  53.9898594
  66.7134683  10.3170200  54.0216792  66.5575838   8.9795986  54.2790661
  66.2735274   9.6691299  54.0379426  54.7213260   3.0771447  41.0957672
  55.0429101   2.5974530  40.4416934  54.9840204   3.8871093  40.9048483
  54.8079286   3.1261345  40.9713164  57.9510233  14.0990321  54.6156488
  57.4435324  14.6526168  55.0597118  57.6536879  14.1598611  53.7975262
  57.8315118  14.1896633  54.5604944  60.1172415   2.4643641  53.4581151
  60.5427487   2.0116167  52.8464677  59.5029408   1.9103712  53.7345938
  60.0901061   2.3157617  53.4086176  49.6487265   9.3425312  44.3901776
  50.1579495   9.9389820  44.7713081  50.1221538   9.0751286  43.7078195
  49.7930641   9.3911128  44.3456298  60.5618013  18.0153579  42.5460431
  59.8447323  17.8414441  42.0807668  61.2124751  17.7806151  42.0135917
  60.5519864  17.9549372  42.3989649  58.5566638  -1.0641259  46.8671728
  57.9134956  -1.2143613  47.4356866  58.2166045  -1.3098914  46.1020832
  58.4111715  -1.1229137  46.8374743  63.1465985   6.8918168  46.2901736
  62.4757174   7.4347870  46.1614802  63.8405735   7.3613023  46.0483431
  63.1494852   7.0416439  46.2357264  57.1952718  19.0314880  51.5213495
  56.9718373  18.2733709  51.8897521  56.7062562  19.0612901  50.7993934
  57.0896167  18.9237104  51.4690235  63.3094112   3.3474051  49.1992109
  63.6621722   2.9203774  49.8737908  62.4508914   3.2624895  49.3293186
  63.2343557   3.2718792  49.3187120  52.0077797   5.9781571  47.2574956
  51.2889786   6.3945703  47.5247820  52.3790159   6.5435810  46.7066594
  51.9569729   6.1230852  47.2157763  61.3077378   6.6109420  53.1476952
  61.2875305   6.4292715  54.0011731  61.3556579   7.4821438  53.1236535
  61.3112019   6.7125958  53.2700246  59.2523708  13.1996612  59.0725428
  59.2119563  12.5546289  58.4870584  60.0647026  13.1433229  59.3850840
  59.3666861  13.0955579  59.0322377  55.8431175  19.2515338  48.9750579
  55.4291574  18.5889468  48.5854421  56.5278550  19.3993196  48.4546273
  55.8829547  19.1755996  48.8407076  59.2096469  18.4105423  49.7274196
  58.8112753  18.5207693  48.9595016  58.5947689  18.6187489  50.3100756
  59.0595359  18.4578991  49.7005495  57.7824371   5.0179571  42.5948335
  57.1889211   5.3396567  42.0432902  57.8199649   4.1720666  42.3869442
  57.6998761   4.9403899  42.4831107  64.7418172  -1.5307537  50.1276422
  64.2349037  -2.2378397  50.0597599  65.5385606  -1.8614348  50.2577499
  64.7845411  -1.6834386  50.1375417  60.6582188   4.9759075  46.0250086
  60.4295881   4.9991777  45.1828444  60.9180264   4.1516542  46.1445096
  60.6628376   4.8575155  45.9175283  54.9401416   6.8293548  55.6275186
  54.4280320   6.2214731  55.9860217  54.7680913   7.5450141  56.0949162
  54.8391053   6.8456848  55.7491410  49.7867131   5.2731124  58.2777548
  49.6169721   5.9332498  57.7325754  49.3433081   5.4837685  58.9990037
  49.6966465   5.4017106  58.3039177  53.7126951   3.5135622  47.3204281
  54.1884317   3.8752701  46.6854462  53.2115550   4.1692089  47.6004424
  53.7092309   3.6629810  47.2681022  66.9438312  12.9857390  43.1117286
  67.3271918  13.7348746  43.3415383  66.1482425  13.2323209  42.8529275
  66.8832094  13.1327084  43.1074860  58.8170487   4.7517793  58.0677441
  59.3741917   4.5231603  57.4355907  58.4931552   5.5123459  57.7912654
  58.8516897   4.8301630  57.9333939  46.6869196   8.1777989  53.5366038
  46.1395915   7.5078635  53.6546906  47.4761574   7.8107837  53.6009505
  46.7221379   8.0242976  53.5634738  56.5353604   7.8385446  59.0329449
  57.2864931   8.1537123  59.3469003  56.7276181   7.6364617  58.2063370
  56.6745018   7.8552828  58.9572844  55.7553604   5.6576821  40.6877665
  56.1352569   5.6756451  39.9028780  55.0146200   6.1030810  40.5668513
  55.7022441   5.7258596  40.5541234  63.3838894   3.9659013  46.2753244
  63.3833121   3.8107669  47.1337520  63.1795074   4.8122000  46.2194630
  63.3538672   4.0679633  46.3941183  45.4456165   7.3898797  50.6912061
  45.2677926   6.9375406  51.4166976  45.1575187   8.1924958  50.8750538
  45.3769118   7.4421355  50.8255563  61.1079746   8.6456514  49.9289451
  61.6033412   7.9279509  49.8893471  60.2979522   8.3427312  49.8143938
  61.0623640   8.4954161  49.9063177  56.5538358  12.4954328  42.0786455
  55.7449680  12.1721001  42.0319765  57.0613267  11.7887550  42.0114704
  56.5088025  12.3435644  42.0616750  47.1828635   9.9226521  47.8033820
  46.3174154   9.9112211  47.6916591  47.2827451   9.7356744  48.6504959
  47.0702802   9.8932582  47.9122764  63.1731565  11.3960202  52.6166580
  63.5986637  10.8734624  52.0637005  62.8088485  11.9941039  52.0955203
  63.1818168  11.4070429  52.4575589  52.8085645  19.6924419  51.3763925
  53.1232204  20.5060808  51.3841707  53.2179058  19.3074638  52.0446084
  52.9153743  19.7553122  51.4768017  59.7610165  15.1094466  48.9467737
  60.2321343  15.8234729  49.1157722  60.0970343  14.5093216  49.4827607
  59.8805280  15.1265930  49.0500113  61.8487149  16.7195780  61.1259809
  61.9584115  15.9304340  61.4816556  62.1778046  16.6301716  60.3234147
  61.9139555  16.5901632  61.0602200  56.6779660  -0.1178063  55.9025832
  56.8107565  -0.9147070  56.2306807  57.0624812   0.4088340  56.4824108
  56.7535988  -0.1578147  56.0369335  60.3984111  14.9012400  55.7095430
  59.8505057  14.2770284  55.4415495  60.8597140  15.0906672  54.9939509
  60.3851320  14.8371450  55.5645861  59.7512015  -3.1947737  52.5006925
  58.9457978  -3.3050007  52.8174763  59.6218750  -3.0935281  51.6436791
  59.6132148  -3.1964067  52.4214966  63.2077975   2.9697755  53.0946622
  62.6240964   3.4706961  52.6824189  63.5282269   2.4627311  52.4610945
  63.1691151   2.9689590  52.9405129  55.7472774   1.8838350  43.3705297
  56.5688469   2.0536662  43.1286992  55.2842425   2.0385611  42.6471594
  55.8003937   1.9320083  43.2276941  54.3368106  -0.1218888  54.1503726
  54.8812519  -0.4627761  54.7408067  54.3905042   0.7366573  54.2925010
  54.4257226  -0.0463629  54.2585599  50.1498665  13.6397528  51.0242534
  50.7543522  13.5993362  50.3956354  49.9425978  14.4868680  51.0546589
  50.2087562  13.7585530  50.9358650  59.9642437  15.9063473  52.2404771
  60.7840811  15.7626439  52.5021066  59.6836515  16.5309672  52.7821209
  60.0439181  15.9773825  52.3592710  45.3849947  12.6232145  50.8941457
  45.2874225  11.8128417  51.2031513  46.1678817  12.6023939  50.5087725
  45.4866084  12.4999236  50.8828320  76.4356088  23.5628325  45.2047647
  76.4050092  24.4172961  45.3765917  77.0337436  23.2623617  45.7633791
  76.5193245  23.6444821  45.3122450  69.6355772  22.6503976  49.9600578
  68.7793668  22.8112474  50.0109695  69.6823426  21.7796040  49.9805639
  69.5154884  22.5454778  49.9706644  64.0196912  32.1866694  45.7237809
  63.2679812  31.8082232  45.4953854  64.4682924  32.2185127  44.9756620
  63.9746579  32.1352301  45.5795311  69.4721872  32.6092063  41.1523356
  69.1373240  33.2868985  40.7167579  69.9848742  32.2197374  40.5640228
  69.4987453  32.6516641  41.0010148  65.5981668  32.1985086  47.9900582
  65.6992031  31.3885440  48.2997710  65.0023414  32.1042032  47.3600260
  65.5254207  32.0650114  47.9426820  74.2572662  26.1380627  43.4765957
  74.1412188  26.8888313  43.9058095  75.0528549  25.8804580  43.7262044
  74.3577252  26.2115474  43.5770049  65.4382408  37.1162675  49.3915438
  66.0819863  37.5575839  49.7811596  65.7638663  36.3116101  49.3045697
  65.5814237  37.0627870  49.4360915  58.7946713  28.2205372  47.6152915
  58.5596897  27.3873025  47.5085184  58.9332353  28.5010038  46.8014116
  58.7802375  28.1388876  47.4795270  61.0936800  20.3891103  50.5137223
  60.4741832  19.7983750  50.3447238  60.9920664  20.9802538  49.8801546
  60.9874476  20.3895185  50.3942213  66.1402988  30.1274650  44.7635300
  66.4618829  30.6679857  44.1596608  66.7875084  29.5571421  44.8957589
  66.2829043  30.1233825  44.6942335  68.1904696  22.1290645  44.8469686
  68.8884860  22.3078772  45.3391150  68.5057028  21.6060984  44.2240076
  68.3400033  22.0784417  44.8271696  60.8205933  23.9343385  52.7580792
  60.6964630  24.5205830  53.3930611  61.4724218  23.4403580  53.0593067
  60.8979582  23.9482189  52.8966721  68.3792631  28.5161090  44.8349478
  68.8186267  27.9078190  45.2804251  68.2297294  28.1368463  44.0634943
  68.4214097  28.3699561  44.7868645  65.8464274  27.1105102  52.0368303
  66.4913277  26.6177545  51.7179252  66.0866051  27.2529888  52.8634382
  65.9774859  27.0582544  52.1117836  66.3631559  17.4983041  48.9290961
  66.0334889  17.9494185  48.2594660  65.6876561  17.4199205  49.4763967
  66.2141996  17.5534177  48.9114184  71.9801968  26.8688271  41.7880247
  71.8953263  27.7249238  41.9329816  72.4686351  26.5932595  42.4562406
  72.0390865  26.9545592  41.9082328  73.5707967  13.4868564  47.1740572
  73.2561408  14.1772043  47.6060994  73.0534909  13.4313347  46.4726072
  73.4472437  13.5803453  47.1337521  72.9120401  23.4873065  43.2877982
  72.3831872  23.7032699  43.9475288  73.4345421  24.1809204  43.2078951
  72.9108854  23.6216202  43.3733581  78.3668454  29.0619370  48.6611027
  77.5366157  29.2730013  48.8244443  78.3177706  28.2356424  48.3853310
  78.2375189  28.9708976  48.6448392  64.8020009  27.3836282  42.0885450
  64.2177224  27.8886313  42.4951314  64.3990104  27.1578669  41.3482042
  64.6559312  27.4244530  42.0390475  60.3564037  33.0991043  48.8909122
  59.8731615  33.8241533  48.8668705  61.1687356  33.3967173  49.0019279
  60.4054785  33.2493397  48.9036401  69.2597223  23.6301934  40.5654371
  69.4993227  23.8379918  39.7529714  69.5813064  22.8259443  40.6743315
  69.3434381  23.5416035  40.4614924  64.5687513  15.5595330  44.4113909
  65.3233481  15.9273647  44.1730959  64.3915048  15.9334884  45.1793088
  64.6541992  15.6693518  44.4898797  63.2108235  33.6147219  49.0429401
  63.9128814  33.0999208  49.1002158  63.1305718  33.9421370  49.8476277
  63.3031995  33.5861445  49.1702194  77.8622412  21.7089770  52.4561448
  77.0250833  21.7791957  52.6909042  77.8310643  21.7114265  51.5835750
  77.7340694  21.7199997  52.3620996  64.2587141  23.8522806  58.1709817
  64.4307645  23.7428701  59.0195098  64.7956499  24.4977211  57.9341009
  64.3632145  23.9314808  58.2614913  62.9244578  17.9665649  41.1092022
  62.7420151  18.1837530  40.2833014  63.7870191  18.0804661  41.1650636
  63.0249167  18.0155547  40.9946509  62.5359010  29.8053571  48.5515009
  63.3747909  30.0376504  48.5988771  62.5670779  28.9357882  48.4822045
  62.6640728  29.7110517  48.5479654  63.1611713  30.2254446  52.8528315
  63.7009938  30.0825577  53.5231687  62.4781659  30.6251197  53.2212341
  63.1403867  30.2634117  53.0062737  68.6044297  14.9692059  44.1441045
  69.3330458  14.7908014  43.6979202  68.6939190  15.8110139  44.3548224
  68.7250959  15.0675938  44.1094563  72.5852598  25.9045447  48.0473339
  73.3410113  26.3376961  48.0862248  72.6914922  25.2550217  48.6207975
  72.7122768  25.8722931  48.1371365  75.6232769  29.7318724  48.7975742
  75.1868001  29.7355466  49.5534714  75.2895684  30.4124223  48.3655320
  75.5095389  29.8331180  48.8456575  58.5648858  26.4454737  53.0062737
  58.2987273  25.6293854  53.1653727  58.5787422  26.4907893  52.1358252
  58.5273580  26.3311642  52.9016219  75.5430252  16.7732552  51.0405170
  76.1856160  16.8430656  51.6267086  75.7953273  16.1061775  50.5384712
  75.6752384  16.6858901  51.0532450  62.4706605  21.2439821  39.6214495
  61.7564782  20.9578001  40.0336927  62.9550574  21.5836447  40.2620882
  62.4365968  21.2521471  39.7770130  63.3147464  19.9833115  55.6529744
  62.6219261  19.5130095  55.8990476  63.9307792  19.7571420  56.2271451
  63.3031994  19.8800247  55.7738897  78.7577115  26.4499644  47.6895380
  79.4193549  25.8890312  47.5891288  78.1168527  25.9551675  48.0148071
  78.7605983  26.2936053  47.7227720  69.6453923  29.7469775  39.9976303
  70.0605071  29.4154799  39.3060799  68.8145853  29.5138678  39.8696440
  69.5841932  29.6641031  39.8767150  58.9742272  27.2313516  50.2874481
  58.7917845  27.2060402  49.4346773  59.7091941  27.7012454  50.3263390
  59.0556336  27.2974879  50.1672399  75.0441946  27.4665026  47.4307368
  75.2797535  27.6110225  46.6034219  75.1931510  28.2307434  47.8238882
  75.1007749  27.6004081  47.3670972  62.0388023  23.9498519  56.7956589
  62.7627996  23.9351550  57.2821484  62.1404160  24.6593875  56.2978558
  62.1606232  24.0523222  56.7935376  76.8732403  26.3066692  45.2676972
  77.2040620  26.8394332  44.6617067  77.4465491  26.3605580  45.9238923
  77.0066082  26.3936261  45.2754754  72.0864292  24.1531595  45.9500552
  72.1811146  24.8920889  46.4040178  71.4623135  23.7249070  46.3835117
  72.0073322  24.1992916  46.0808700  58.9413182  24.1107017  50.4373547
  59.5186685  23.9743468  51.0765793  58.2427244  23.6542801  50.6919132
  58.9234203  24.0229283  50.5695837  72.3387313  25.9980335  39.1837504
  72.2567476  26.0682522  40.0492491  72.9767034  26.5610079  38.9921245
  72.4207150  26.0919306  39.2827454  65.6980484  25.7641073  48.6512031
  65.4399728  24.9312808  48.6243330  65.7528967  25.9898686  47.8104531
  65.6680262  25.6738844  48.5232167  70.7781534  17.8669523  48.7516123
  70.0737861  17.3778709  48.9100042  70.8266509  17.8791998  47.8804568
  70.6811586  17.7959171  48.6455463  64.6715196  23.3178835  49.1376925
  64.0964788  23.4771004  49.7740886  64.2950873  22.6814244  48.6745376
  64.5318009  23.2476648  49.1631484  68.3388485  21.7902184  53.9969304
  67.9502918  21.3656402  53.3421495  67.6743183  22.0384334  54.5046330
  68.1835413  21.7640906  53.9757172  77.9811754  21.5477189  46.7717134
  77.7248319  20.7357131  46.5815017  78.8241068  21.5554756  46.5447321
  78.0677780  21.4289187  46.7101951  54.4172015  22.9618910  47.1521366
  54.5032267  22.5850778  47.9334896  55.0447813  22.5879356  46.6741324
  54.5228566  22.8504392  47.1966843  72.1614847  15.4876813  51.5093288
  72.5425358  14.8054984  51.8961162  71.3578131  15.1986415  51.3268952
  72.0991308  15.3443862  51.5397344  69.4427423  26.0200789  42.1946111
  70.2568062  26.3115682  42.0828882  69.3786565  25.3660651  41.6204404
  69.5530162  25.9665984  42.0934948  65.3135332  29.4922307  47.3218423
  65.9509278  29.2534054  47.8670216  65.7390403  29.6959465  46.5871583
  65.4711498  29.4873317  47.2935580  60.0047974  31.7310643  51.2052727
  60.0452119  32.0025494  50.3772506  60.5642498  32.2552551  51.6210515
  60.0931320  31.8486398  51.1444615  65.9538147  24.7124596  41.6593312
  66.3383299  24.4932303  42.4109857  65.7049767  25.5387542  41.7894389
  65.9740219  24.8022743  41.7894389  66.1206687  17.9931011  61.3755896
  65.8060128  18.7630574  61.1125459  65.7996620  17.4301268  60.7908123
  66.0265606  18.0241280  61.2497246  82.3875126  25.1264235  51.9972325
  82.3199626  25.1460194  51.1274912  82.3730789  25.9694562  52.2227996
  82.3753883  25.2537969  51.9024802  61.4562560  30.3152592  46.0306653
  60.6300678  30.5614329  45.9040931  61.5174551  30.2364673  46.8968711
  61.3436727  30.3397541  46.1395597  63.6738584  16.3821533  46.9902093
  62.8061009  16.4544132  47.0559702  63.9613788  17.1843612  47.1790068
  63.5878332  16.5115680  47.0276859  72.7971473  16.5299392  55.3213415
  73.5425065  16.3409203  54.9076840  72.3808777  17.0557630  54.7627271
  72.8456447  16.5801538  55.1777988  66.2361389  32.9329472  43.7325682
  66.5259688  32.5418454  43.0084909  66.9664870  33.1146177  44.1730958
  66.3868273  32.9023286  43.6908490  80.1733744  23.9008621  50.2718920
  80.7241665  23.2676690  50.5116012  80.1577859  24.4324014  50.9634424
  80.2518940  23.8857569  50.4097778  64.1767305  34.9096855  46.7985832
  63.9567600  34.6194209  47.5912499  63.9561827  34.2511810  46.2703745
  64.1114899  34.7696563  46.8374741  63.0884252  26.9970171  49.0641534
  62.7997501  26.3707642  49.5987261  63.9567600  26.9390459  49.1306214
  63.1744504  26.8957715  49.1532488  73.8762150  22.1404955  49.3823516
  73.5326916  21.4195290  49.7330765  73.9755192  21.9318806  48.5401874
  73.8404193  22.0029158  49.3095196  66.3435260  36.2826245  45.5816525
  66.9959318  35.7502687  45.8107551  65.6460869  35.9294897  45.9684399
  66.3365978  36.1515768  45.6728692  63.2916525  28.6365422  44.9883899
  64.0462493  29.0178461  45.2019361  62.6987138  29.0876566  45.4430595
  63.3153239  28.7594250  45.0866777  74.3375179  28.6030659  44.9247504
  74.9033211  29.2623868  44.8406047  73.6903082  28.9480357  45.3963906
  74.3253935  28.7512600  44.9820260  65.7523192  20.5928263  60.1141111
  64.9422968  20.8986042  60.0030954  66.2297879  21.3133845  60.2293695
  65.7026671  20.7442864  60.1148182  64.6114752  29.8073984  50.3624014
  64.0895505  29.9474275  51.0475879  64.9988772  29.0484648  50.5526132
  64.5918453  29.7159507  50.4925091  61.6005936  19.8579792  44.4318969
  61.3130732  19.4881063  43.6950916  62.2876404  20.3274648  44.1702674
  61.6594833  19.8726762  44.2834045  70.8081757  31.5469443  44.3484583
  70.5668433  30.8137303  43.9411648  70.9883090  32.0956300  43.6950916
  70.7989381  31.5191834  44.1914806  66.0381078  26.8378003  45.7605505
  65.8423860  27.4452737  45.1665808  66.2615423  26.1445947  45.2797179
  66.0415719  26.8255528  45.6021586  64.4359608  23.7232741  45.8786374
  65.1582259  23.8873899  45.4190180  63.9567600  24.4442405  45.7725713
  64.4723338  23.8530970  45.7951988  72.3953115  20.0596539  51.2583059
  71.5564216  20.0857818  51.0221322  72.4657482  20.7067275  51.8388405
  72.2821509  20.1592665  51.3092176  62.0867224  26.1290813  54.9840514
  62.5988321  26.4075066  54.3349273  61.8003567  26.8680107  55.3503327
  62.1202087  26.2793167  54.9430392  70.8422393  16.9581916  45.9910675
  71.5448746  16.7589665  45.5130633  70.5766582  16.1857859  46.2979518
  70.9069026  16.8144882  45.9656116  76.2710639  25.2664526  48.5444300
  76.1844614  25.4219952  49.3979079  75.8161119  25.9102602  48.1703705
  76.1913896  25.3840281  48.6151407  59.1734131  20.6361005  45.2804250
  59.2750267  21.4387166  45.6085226  59.9690017  20.4348341  44.9827331
  59.3062036  20.7246904  45.2839605  65.6050950  18.2217201  55.0441555
  65.4134147  18.2372336  55.8940979  66.4549546  18.4180876  55.0208210
  65.7026672  18.2531553  55.1664850  59.9897863  20.7508183  53.0225372
  59.8483354  19.8992124  53.1469880  60.2738426  20.7936844  52.1987578
  60.0105709  20.6307933  52.9192996  70.1436455  22.5875273  47.1669860
  69.8971169  22.5071024  48.0006649  70.4721578  21.8028741  46.9732387
  70.1557699  22.4601538  47.2617383  66.1033482  25.3231992  56.5792843
  66.2476858  25.9033200  55.9435953  66.4509131  25.7008288  57.2842698
  66.1760944  25.4652696  56.5891838  75.5337877  28.6536886  41.7173140
  75.1544685  27.8674024  41.7102430  74.8704122  29.2023743  41.5744785
  75.3796351  28.6181710  41.6953937  68.5155177  18.4172711  55.2513378
  68.9727791  19.1496685  55.3786171  68.5911505  17.9939176  56.0100634
  68.5946147  18.4629949  55.3814455  60.7588168  18.6638531  56.3402822
  60.2230357  18.0518889  56.6563589  60.8205933  19.2386667  56.9936489
  60.6883801  18.6585458  56.4838249  72.9882503  11.5962586  49.1207221
  73.1066071  12.0539049  48.3874524  72.8144678  10.7907847  48.8343439
  72.9801674  11.5456358  48.9708155  68.3584785  32.2050405  45.5561967
  69.1234676  31.9360049  45.2344631  68.2562875  31.7200416  46.2732029
  68.4566280  32.0939970  45.6141794  66.3937555  20.4074815  52.0955202
  65.6033629  20.2266275  52.4172538  66.7898177  19.6301767  52.0785497
  66.3354431  20.2662276  52.1407751  70.8803445  29.2362589  37.5361916
  71.6476431  29.2962714  37.1267768  70.4334754  28.6643031  37.0518234
  70.9276873  29.1599165  37.4039626  68.9075385  22.8835074  56.5778701
  68.8434526  23.7445030  56.4498838  69.0472573  22.5667067  55.7774253
  68.9190855  22.9635241  56.4406914  73.7797975  30.8982377  42.0524826
  73.8617813  31.7049363  41.7286277  74.2647718  30.9178337  42.7765600
  73.8635133  31.0203040  42.1111725  67.5894479  25.5767213  50.7194904
  67.1656728  25.7771712  49.9833923  67.4139334  24.7296061  50.8319204
  67.5005359  25.4815995  50.6268594  62.8776924  26.0719265  46.1522877
  63.0341543  26.0066067  47.0078869  63.2177517  26.8467817  45.9401556
  62.9510159  26.1768463  46.2477471  69.4156068  25.4477148  45.0216240
  69.9571614  24.9447529  45.4854860  69.7302627  25.3942343  44.2105725
  69.5420465  25.3656569  44.9700052  67.5842518  30.8394500  42.3056268
  67.6535338  29.9809038  42.4449268  68.3630973  31.0566381  41.9775293
  67.7095368  30.7447364  42.2773425  70.5645338  20.3413453  55.0738540
  70.7787307  19.7024367  54.5201894  69.9479237  20.7859277  54.6446402
  70.5050667  20.3123596  54.9288971  59.4511185  23.2554215  46.4683644
  59.8310150  23.6738760  45.8043911  58.8766550  23.8367671  46.7752487
  59.4222510  23.4032074  46.4160385  72.7284426  21.9502518  56.0121847
  71.9161107  21.6428408  56.0935020  73.1874360  21.4701518  56.5764560
  72.6764811  21.8339010  56.1076442  69.9560066  13.4513388  50.0625883
  69.0853624  13.4252110  50.0159193  70.2100408  13.2790581  49.2451729
  69.8653626  13.4223532  49.9346020  66.9278046  25.5081355  38.9999026
  67.2170571  26.2846238  39.2742600  67.0149845  24.9970087  39.7013526
  66.9832302  25.5473274  39.1441524  69.8237933  23.3562589  60.7950550
  70.2937564  23.9804706  61.1818424  69.8699813  22.6879565  61.3543764
  69.9005809  23.3497270  60.9350621  66.9809207  15.4619617  51.5199354
  66.4647695  14.7699808  51.6450933  66.4203136  16.1290394  51.4661952
  66.8215720  15.4582874  51.5305420  69.0501440  16.0012577  53.3492206
  68.6633193  16.0261608  54.1305736  68.5634378  15.4354256  52.8966723
  68.9213949  15.9208328  53.3980110  75.0251420  22.5675232  51.9731908
  74.5979028  22.4801580  51.2180008  74.3877473  22.6753007  52.5586752
  74.8681027  22.5707892  51.9477350  68.7158582  12.8879562  55.6402466
  69.3451700  13.4239862  55.3623536  68.8844445  12.7956921  56.4916032
  68.8336377  12.9540925  55.7250994  68.5172497  17.6750757  57.9128878
  69.3445926  17.4035906  57.9687492  68.5380343  18.4711599  58.2692696
  68.6425347  17.7530511  57.9744061  63.0941987  24.8214620  51.0999138
  62.2529993  24.7218494  51.3078032  63.3031995  25.5910100  51.4513459
  63.0006679  24.9206663  51.1826453  60.5717554  22.4434157  48.9283889
  60.1774251  22.5177169  48.1533999  60.0157671  22.8292103  49.4792251
  60.4320366  22.5115931  48.8951549  72.2082501  15.4215451  48.6087768
  72.4132094  15.3537759  49.4544765  71.8808925  16.2274272  48.5408945
  72.1897748  15.5301391  48.7247423  66.9058652  22.7496019  50.3496736
  66.6021789  22.1952007  50.9507143  66.2038072  22.9288229  49.8624770
  66.7574861  22.6940801  50.3666441  65.9624749  20.0596539  44.9141438
  66.2384483  19.3415451  44.5019005  66.5623418  20.6581459  44.7062544
  66.0918013  20.0416910  44.8222199  64.9677003  29.9645740  55.0568834
  64.8597358  29.9747802  55.9230892  65.1772784  30.7900520  54.8673787
  64.9827114  30.0886815  55.1572925  75.4616188  15.9747215  48.0890533
  74.8490502  16.4617617  48.4744265  75.5580363  15.2990706  48.6328184
  75.3854086  15.9465524  48.2269392  69.4635269  17.7310056  43.1888033
  69.9179016  17.9020617  43.9135877  69.9375315  17.1178167  42.7885808
  69.6003589  17.6660941  43.2361794  62.9850795  27.2158382  52.5190771
  62.3938728  27.8567880  52.4893786  63.7471818  27.6395999  52.4922071
  63.0099055  27.3734221  52.5105918  63.3811417  18.3760380  53.1858789
  63.8412899  18.4499309  53.9233913  63.4267524  19.1741634  52.8358610
  63.4561973  18.5054527  53.2431545  65.0294767  19.0427075  57.7530816
  64.6380332  18.3960422  58.1886594  65.1980630  19.6338510  58.3725071
  64.9965678  19.0341343  57.9093522  79.1041216  27.0464152  53.5168049
  79.1624340  27.4950801  54.2628026  78.4707684  27.4562965  53.0798129
  79.0192511  27.1737887  53.5620598  66.8048289  24.4352591  44.2933040
  67.5490334  24.8226867  44.5315990  66.9508985  23.5910016  44.4573528
  66.9358874  24.3683063  44.3527010  68.7227865  16.2302850  49.3264901
  67.8763910  16.4025657  49.2006251  68.7198997  15.4252193  49.6630730
  68.5975015  16.1363878  49.3576028  69.7926165  20.0078064  50.1926959
  69.3186119  19.4819826  50.7032270  70.1644301  19.4607537  49.6241821
  69.7776054  19.8494061  50.1842106  60.1699195  22.0049571  55.5610505
  61.0324808  21.9045280  55.4747835  59.8390978  21.4244280  54.9996077
  60.2484392  21.9041197  55.4655911  76.0562896  25.0680440  51.6033740
  75.8161119  24.2286855  51.6076166  76.5354903  25.1480606  52.3274513
  76.0915079  24.9561839  51.7108542  71.7209665  20.9014618  43.2552713
  71.1932683  20.9843362  42.5658422  72.1805373  21.6432490  43.2517358
  71.7111515  21.0235281  43.1527408  78.0568083  21.8481897  49.5562999
  77.8177853  21.8077731  48.7183783  78.2201984  22.6953049  49.6828720
  78.0458386  21.9673982  49.4516481  63.5300981  20.8292020  52.2220923
  62.9054051  20.8410412  51.6146876  63.1946576  21.3052195  52.8712163
  63.3886473  20.9010537  52.2277492  63.7142730  19.1717138  38.2793608
  63.3655534  19.8236863  38.7425158  63.2339176  19.1574251  37.5517479
  63.5912974  19.2660192  38.2404699  60.2426657  28.8892480  53.6624687
  59.7126581  28.1984919  53.7119662  60.5151750  28.8802665  52.8337396
  60.2051379  28.7859612  53.5472103  71.2746747  29.4718182  42.3862370
  71.9980946  29.9376295  42.2426943  70.8347338  29.5391792  41.6359967
  71.3162439  29.5502019  42.2547151  62.7991727  22.4385167  54.4395792
  62.9585213  21.6828492  54.8447514  62.6184620  22.9876107  55.0936529
  62.7957086  22.4078981  54.5958498  70.7412030  14.6046403  54.9946581
  70.2452591  14.8010077  54.3038148  71.4981092  15.0039071  54.8235383
  70.7798854  14.6924137  54.8666718  68.0114909  18.2788749  51.5849892
  68.0357396  17.7448861  50.8962672  68.2626383  17.7706058  52.2475482
  68.0524828  18.1249653  51.5814536  55.5222499  25.5620244  51.0193036
  55.4165948  25.5167088  50.1545120  54.7722719  25.9074024  51.3007321
  55.3958102  25.6061152  50.9330365  64.2916231  17.0059567  50.9655636
  64.3314603  17.5068774  51.6790343  63.4665896  17.0969961  50.6961559
  64.1755757  17.0941383  51.0306174  66.4745844  26.5720307  59.0675931
  65.6241475  26.7092021  59.2033576  66.6373972  25.8384085  59.5123632
  66.3729708  26.4834408  59.1531530  65.7130595  23.5220077  53.2629535
  64.8822524  23.6893895  53.0564783  65.6582112  23.1456028  54.0478420
  65.5820010  23.4909808  53.3478063  63.5214378  17.0128970  58.8985946
  64.1467081  16.4691103  59.1715378  63.0664858  16.5323887  58.3293736
  63.5462639  16.8618451  58.8547540  64.0866639  21.7975669  43.7919653
  64.2269600  22.2948133  44.4948294  64.5849171  21.0961963  43.9333866
  64.1807720  21.7677647  43.9171232  64.1166861  22.6642780  41.1212230
  64.7511940  23.2603205  41.0561691  64.1992472  22.3646237  41.9358100
  64.2223412  22.7083688  41.2315316  77.0949427  25.1958257  53.9898594
  77.6867267  25.8355508  54.0216792  77.5308421  24.4981294  54.2790661
  77.2467858  25.1876607  54.0379426  65.6945844  18.5956755  41.0957672
  66.0161685  18.1159837  40.4416934  65.9572788  19.4056401  40.9048483
  65.7811869  18.6446653  40.9713164  71.0904999  17.9828949  53.4581151
  71.5160070  17.5301475  52.8464677  70.4761992  17.4289020  53.7345938
  71.0633644  17.8342925  53.4086176  60.6219849  24.8610620  44.3901776
  61.1312078  25.4575128  44.7713081  61.0954121  24.5936594  43.7078195
  60.7663225  24.9096436  44.3456298  69.5299222  14.4544049  46.8671728
  68.8867540  14.3041695  47.4356866  69.1898629  14.2086394  46.1020832
  69.3844299  14.3956171  46.8374743  74.1198568  22.4103476  46.2901736
  73.4489758  22.9533178  46.1614802  74.8138318  22.8798331  46.0483431
  74.1227436  22.5601747  46.2357264  74.2826696  18.8659359  49.1992109
  74.6354306  18.4389082  49.8737908  73.4241497  18.7810203  49.3293186
  74.2076140  18.7904100  49.3187120  62.9810381  21.4966879  47.2574956
  62.2622370  21.9131011  47.5247820  63.3522743  22.0621118  46.7066594
  62.9302312  21.6416160  47.2157763  72.2809961  22.1294728  53.1476952
  72.2607889  21.9478023  54.0011731  72.3289162  23.0006746  53.1236535
  72.2844602  22.2311266  53.2700246  68.7556955  20.5364879  42.5948335
  68.1621794  20.8581875  42.0432902  68.7932233  19.6905974  42.3869442
  68.6731344  20.4589207  42.4831107  75.7150756  13.9877771  50.1276422
  75.2081620  13.2806911  50.0597599  76.5118189  13.6570960  50.2577499
  75.7577995  13.8350922  50.1375417  71.6314772  20.4944383  46.0250086
  71.4028465  20.5177085  45.1828444  71.8912848  19.6701850  46.1445096
  71.6360960  20.3760463  45.9175283  65.9134000  22.3478856  55.6275186
  65.4012903  21.7400039  55.9860217  65.7413496  23.0635449  56.0949162
  65.8123637  22.3642156  55.7491410  60.7599715  20.7916432  58.2777548
  60.5902305  21.4517806  57.7325754  60.3165665  21.0022993  58.9990037
  60.6699048  20.9202414  58.3039177  64.6859534  19.0320930  47.3204281
  65.1616900  19.3938009  46.6854462  64.1848134  19.6877397  47.6004424
  64.6824893  19.1815118  47.2681022  77.9170896  28.5042698  43.1117286
  78.3004501  29.2534054  43.3415383  77.1215009  28.7508517  42.8529275
  77.8564678  28.6512391  43.1074860  69.7903070  20.2703101  58.0677441
  70.3474501  20.0416910  57.4355907  69.4664135  21.0308767  57.7912654
  69.8249481  20.3486938  57.9333939  57.6601779  23.6963297  53.5366038
  57.1128499  23.0263943  53.6546906  58.4494157  23.3293145  53.6009505
  57.6953963  23.5428284  53.5634738  67.5086188  23.3570754  59.0329449
  68.2597515  23.6722431  59.3469003  67.7008764  23.1549925  58.2063370
  67.6477602  23.3738136  58.9572844  66.7286187  21.1762129  40.6877665
  67.1085152  21.1941759  39.9028780  65.9878783  21.6216118  40.5668513
  66.6755025  21.2443904  40.5541234  74.3571478  19.4844321  46.2753244
  74.3565704  19.3292977  47.1337520  74.1527658  20.3307308  46.2194630
  74.3271256  19.5864941  46.3941183  56.4188749  22.9084105  50.6912061
  56.2410510  22.4560714  51.4166976  56.1307771  23.7110266  50.8750538
  56.3501702  22.9606663  50.8255563  72.0812330  24.1641822  49.9289451
  72.5765995  23.4464817  49.8893471  71.2712106  23.8612620  49.8143938
  72.0356223  24.0139469  49.9063177  67.5270941  28.0139636  42.0786455
  66.7182264  27.6906309  42.0319765  68.0345850  27.3072858  42.0114704
  67.4820608  27.8620952  42.0616750  58.1561219  25.4411829  47.8033820
  57.2906738  25.4297519  47.6916591  58.2560034  25.2542052  48.6504959
  58.0435386  25.4117890  47.9122764  63.7818228  35.2109727  51.3763925
  64.0964787  36.0246116  51.3841707  64.1911642  34.8259946  52.0446084
  63.8886326  35.2738430  51.4768017  67.6512243  15.4007245  55.9025832
  67.7840149  14.6038238  56.2306807  68.0357396  15.9273648  56.4824108
  67.7268572  15.3607161  56.0369335  70.7244598  12.3237571  52.5006925
  69.9190562  12.2135300  52.8174763  70.5951334  12.4250027  51.6436791
  70.5864731  12.3221241  52.4214966  74.1810559  18.4883063  53.0946622
  73.5973548  18.9892269  52.6824189  74.5014853  17.9812619  52.4610945
  74.1423734  18.4874898  52.9405129  66.7205358  17.4023658  43.3705297
  67.5421052  17.5721970  43.1286992  66.2575009  17.5570918  42.6471594
  66.7736520  17.4505390  43.2276941  65.3100690  15.3966420  54.1503726
  65.8545103  15.0557547  54.7408067  65.3637626  16.2551881  54.2925010
  65.3989809  15.4721679  54.2585599  61.1231249  29.1582836  51.0242534
  61.7276106  29.1178670  50.3956354  60.9158561  30.0053988  51.0546589
  61.1820146  29.2770838  50.9358650  56.3582531  28.1417453  50.8941457
  56.2606809  27.3313725  51.2031513  57.1411401  28.1209247  50.5087725
  56.4598667  28.0184543  50.8828320  87.4088671  39.0813633  45.2047647
  87.3782675  39.9358269  45.3765917  88.0070020  38.7808925  45.7633791
  87.4925829  39.1630129  45.3122450  80.4454456  48.1277371  41.1523356
  80.1105824  48.8054293  40.7167579  80.9581326  47.7382682  40.5640228
  80.4720037  48.1701949  41.0010148  79.9858747  50.0791640  47.0934468
  80.3698126  50.6478538  46.5539243  79.9217888  49.3541150  46.6140284
  80.0332174  50.0567103  46.9428331  85.2305246  41.6565935  43.4765957
  85.1144772  42.4073621  43.9058095  86.0261132  41.3989888  43.7262044
  85.3309835  41.7300782  43.5770049  76.4114991  52.6347983  49.3915438
  77.0552447  53.0761147  49.7811596  76.7371247  51.8301409  49.3045697
  76.5546820  52.5813178  49.4360915  82.9534551  42.3873579  41.7880247
  82.8685846  43.2434546  41.9329816  83.4418934  42.1117903  42.4562406
  83.0123448  42.4730900  41.9082328  84.5440551  29.0053872  47.1740572
  84.2293992  29.6957351  47.6060994  84.0267492  28.9498654  46.4726072
  84.4205021  29.0988761  47.1337521  83.8852984  39.0058373  43.2877982
  83.3564456  39.2218007  43.9475288  84.4078004  39.6994512  43.2078951
  83.8841437  39.1401510  43.3733581  89.3401037  44.5804678  48.6611027
  88.5098740  44.7915321  48.8244443  89.2910290  43.7541732  48.3853310
  89.2107773  44.4894284  48.6448392  71.3296621  48.6176351  48.8909122
  70.8464199  49.3426841  48.8668705  72.1419939  48.9152481  49.0019279
  71.3787369  48.7678705  48.9036401  75.5420097  31.0780638  44.4113909
  76.2966065  31.4458955  44.1730959  75.3647631  31.4520192  45.1793088
  75.6274575  31.1878826  44.4898797  88.8354996  37.2275078  52.4561448
  87.9983417  37.2977265  52.6909042  88.8043227  37.2299573  51.5835750
  88.7073278  37.2385305  52.3620996  79.5776881  30.4877367  44.1441045
  80.3063041  30.3093322  43.6979202  79.6671774  31.3295447  44.3548224
  79.6983543  30.5861246  44.1094563  83.5585181  41.4230755  48.0473339
  84.3142696  41.8562269  48.0862248  83.6647506  40.7735524  48.6207975
  83.6855352  41.3908239  48.1371365  86.5965353  45.2504032  48.7975742
  86.1600584  45.2540774  49.5534714  86.2628268  45.9309531  48.3655320
  86.4827972  45.3516488  48.8456575  86.5162835  32.2917860  51.0405170
  87.1588744  32.3615964  51.6267086  86.7685856  31.6247083  50.5384712
  86.6484968  32.2044208  51.0532450  89.7309699  41.9684952  47.6895380
  90.3926133  41.4075620  47.5891288  89.0901111  41.4736983  48.0148071
  89.7338566  41.8121361  47.7227720  80.6186506  45.2655083  39.9976303
  81.0337655  44.9340107  39.3060799  79.7878436  45.0323986  39.8696440
  80.5574515  45.1826339  39.8767150  86.0174529  42.9850334  47.4307368
  86.2530119  43.1295533  46.6034219  86.1664093  43.7492742  47.8238882
  86.0740333  43.1189389  47.3670972  87.8464986  41.8252000  45.2676972
  88.1773203  42.3579640  44.6617067  88.4198074  41.8790888  45.9238923
  87.9798665  41.9121569  45.2754754  83.3119897  41.5165643  39.1837504
  83.2300059  41.5867830  40.0492491  83.9499617  42.0795387  38.9921245
  83.3939734  41.6104614  39.2827454  88.9544338  37.0662497  46.7717134
  88.6980903  36.2542439  46.5815017  89.7973652  37.0740064  46.5447321
  89.0410363  36.9474495  46.7101951  65.3904599  38.4804218  47.1521366
  65.4764851  38.1036086  47.9334896  66.0180396  38.1064664  46.6741324
  65.4961150  38.3689700  47.1966843  83.1347430  31.0062121  51.5093288
  83.5157942  30.3240292  51.8961162  82.3310714  30.7171723  51.3268952
  83.0723892  30.8629170  51.5397344  93.3607710  40.6449543  51.9972325
  93.2932210  40.6645502  51.1274912  93.3463372  41.4879870  52.2227996
  93.3486466  40.7723277  51.9024802  77.2093973  48.4514780  43.7325682
  77.4992271  48.0603761  43.0084909  77.9397454  48.6331485  44.1730958
  77.3600857  48.4208594  43.6908490  91.1466327  39.4193929  50.2718920
  91.6974249  38.7861998  50.5116012  91.1310442  39.9509322  50.9634424
  91.2251523  39.4042877  50.4097778  75.1499888  50.4282163  46.7985832
  74.9300184  50.1379517  47.5912499  74.9294410  49.7697118  46.2703745
  75.0847483  50.2881871  46.8374741  84.8494733  37.6590262  49.3823516
  84.5059499  36.9380598  49.7330765  84.9487776  37.4504114  48.5401874
  84.8136776  37.5214466  49.3095196  77.3167844  51.8011552  45.5816525
  77.9691902  51.2687995  45.8107551  76.6193453  51.4480205  45.9684399
  77.3098562  51.6701075  45.6728692  85.3107762  44.1215967  44.9247504
  85.8765795  44.7809176  44.8406047  84.6635666  44.4665665  45.3963906
  85.2986519  44.2697908  44.9820260  81.7814340  47.0654751  44.3484583
  81.5401016  46.3322611  43.9411648  81.9615673  47.6141608  43.6950916
  81.7721964  47.0377142  44.1914806  87.2443223  40.7849834  48.5444300
  87.1577197  40.9405260  49.3979079  86.7893702  41.4287910  48.1703705
  87.1646479  40.9025589  48.6151407  86.5070460  44.1722194  41.7173140
  86.1277269  43.3859332  41.7102430  85.8436706  44.7209051  41.5744785
  86.3528935  44.1367018  41.6953937  83.9615086  27.1147894  49.1207221
  84.0798654  27.5724357  48.3874524  83.7877262  26.3093155  48.8343439
  83.9534257  27.0641666  48.9708155  81.8536029  44.7547897  37.5361916
  82.6209014  44.8148022  37.1267768  81.4067338  44.1828338  37.0518234
  81.9009456  44.6784473  37.4039626  84.7530559  46.4167685  42.0524826
  84.8350396  47.2234671  41.7286277  85.2380301  46.4363644  42.7765600
  84.8367717  46.5388348  42.1111725  78.0638756  52.6103034  53.1816361
  78.5534686  51.9113823  52.9992026  77.4922988  52.3126904  53.7692419
  78.0523286  52.4629258  53.2417402  78.5575102  46.3579808  42.3056268
  78.6267922  45.4994346  42.4449268  79.3363557  46.5751689  41.9775293
  78.6827952  46.2632672  42.2773425  82.9482589  48.7817509  46.5192761
  82.5562381  48.4784224  45.8015627  83.1035661  49.6186599  46.3297715
  82.9136179  48.8601346  46.3849258  83.1122264  45.3467498  46.4598792
  82.7536919  45.5182141  47.2362824  82.6260975  45.8080703  45.9026790
  82.9880961  45.4406469  46.4924061  80.9292650  28.9698696  50.0625883
  80.0586208  28.9437417  50.0159193  81.1832991  28.7975889  49.2451729
  80.8386210  28.9408840  49.9346020  77.9541790  30.9804925  51.5199354
  77.4380279  30.2885116  51.6450933  77.3935719  31.6475702  51.4661952
  77.7948304  30.9768182  51.5305420  80.0234024  31.5197885  53.3492206
  79.6365777  31.5446916  54.1305736  79.5366961  30.9539563  52.8966723
  79.8946533  31.4393636  53.3980110  79.6891166  28.4064870  55.6402466
  80.3184284  28.9425170  55.3623536  79.8577028  28.3142229  56.4916032
  79.8068960  28.4726233  55.7250994  83.1815084  30.9400759  48.6087768
  83.3864677  30.8723067  49.4544765  82.8541508  31.7459580  48.5408945
  83.1630332  31.0486699  48.7247423  86.4348772  31.4932523  48.0890533
  85.8223085  31.9802925  48.4744265  86.5312947  30.8176014  48.6328184
  86.3586669  31.4650832  48.2269392  83.7172894  48.1853002  49.9522796
  83.5192583  48.6743816  49.2579007  83.0960606  48.3894243  50.5306929
  83.5960459  48.2869540  49.9346019  87.0295479  40.5865748  51.6033740
  86.7893702  39.7472163  51.6076166  87.5087486  40.6665914  52.3274513
  87.0647663  40.4747147  51.7108542  89.0300666  37.3667205  49.5562999
  88.7910436  37.3263039  48.7183783  89.1934568  38.2138357  49.6828720
  89.0190970  37.4859290  49.4516481  82.2479331  44.9903490  42.3862370
  82.9713530  45.4561603  42.2426943  81.8079922  45.0577100  41.6359967
  82.2895023  45.0687327  42.2547151  66.4955083  41.0805552  51.0193036
  66.3898532  41.0352396  50.1545120  65.7455303  41.4259332  51.3007321
  66.3690686  41.1246460  50.9330365  82.5083181  49.0524195  42.5460431
  81.7912490  48.8785057  42.0807668  83.1589918  48.8176767  42.0135917
  82.4985031  48.9919987  42.3989649  85.0931152  37.9288783  46.2901736
  84.4222342  38.4718486  46.1614802  85.7870902  38.3983639  46.0483431
  85.0960019  38.0787055  46.2357264  85.2559279  34.3844667  49.1992109
  85.6086889  33.9574390  49.8737908  84.3974081  34.2995511  49.3293186
  85.1808724  34.3089408  49.3187120  77.7896342  50.2885954  48.9750579
  77.3756741  49.6260084  48.5854421  78.4743717  50.4363812  48.4546273
  77.8294714  50.2126612  48.8407076  86.6883339  29.5063079  50.1276422
  86.1814204  28.7992218  50.0597599  87.4850773  29.1756268  50.2577499
  86.7310579  29.3536230  50.1375417  88.8903479  44.0228006  43.1117286
  89.2737085  44.7719362  43.3415383  88.0947593  44.2693825  42.8529275
  88.8297261  44.1697699  43.1074860  85.3304061  35.0029628  46.2753244
  85.3298288  34.8478285  47.1337520  85.1260241  35.8492616  46.2194630
  85.3003839  35.1050249  46.3941183  83.0544913  39.6827130  49.9289451
  83.5498579  38.9650125  49.8893471  82.2444689  39.3797928  49.8143938
  83.0088807  39.5324777  49.9063177  74.7550812  50.7295035  51.3763925
  75.0697371  51.5431424  51.3841707  75.1644225  50.3445254  52.0446084
  74.8618910  50.7923738  51.4768017  81.6977182  27.8422879  52.5006925
  80.8923146  27.7320608  52.8174763  81.5683917  27.9435334  51.6436791
  81.5597315  27.8406549  52.4214966  85.1543142  34.0068371  53.0946622
  84.5706131  34.5077577  52.6824189  85.4747436  33.4997927  52.4610945
  85.1156318  34.0060206  52.9405129  67.3315114  43.6602761  50.8941457
  67.2339393  42.8499033  51.2031513  68.1143984  43.6394555  50.5087725
  67.4331251  43.5369851  50.8828320  98.3821255  54.5998941  45.2047647
  98.3515259  55.4543577  45.3765917  98.9802603  54.2994233  45.7633791
  98.4658413  54.6815437  45.3122450  91.5820940  53.6874592  49.9600578
  90.7258835  53.8483090  50.0109695  91.6288593  52.8166656  49.9805639
  91.4620051  53.5825393  49.9706644  85.9662079  63.2237309  45.7237809
  85.2144979  62.8452848  45.4953854  86.4148091  63.2555743  44.9756620
  85.9211746  63.1722917  45.5795311  91.4187039  63.6462679  41.1523356
  91.0838408  64.3239601  40.7167579  91.9313910  63.2567990  40.5640228
  91.4452620  63.6887257  41.0010148  90.9591330  65.5976948  47.0934468
  91.3430710  66.1663846  46.5539243  90.8950472  64.8726458  46.6140284
  91.0064758  65.5752411  46.9428331  94.4272761  55.7466636  52.6032229
  94.9728721  56.4251722  52.6626199  94.3689637  55.6054096  51.7433811
  94.4988675  55.8258637  52.4844290  87.5446835  63.2355702  47.9900582
  87.6457198  62.4256056  48.2997710  86.9488581  63.1412648  47.3600260
  87.4719374  63.1020730  47.9426820  96.2037829  57.1751243  43.4765957
  96.0877355  57.9258929  43.9058095  96.9993716  56.9175196  43.7262044
  96.3042419  57.2486090  43.5770049  87.3847575  68.1533291  49.3915438
  88.0285031  68.5946455  49.7811596  87.7103831  67.3486717  49.3045697
  87.5279404  68.0998486  49.4360915  80.7411880  59.2575988  47.6152915
  80.5062064  58.4243641  47.5085184  80.8797520  59.5380654  46.8014116
  80.7267542  59.1759492  47.4795270  83.0401967  51.4261719  50.5137223
  82.4206999  50.8354366  50.3447238  82.9385831  52.0173154  49.8801546
  82.9339643  51.4265801  50.3942213  88.0868155  61.1645266  44.7635300
  88.4083996  61.7050473  44.1596608  88.7340251  60.5942037  44.8957589
  88.2294210  61.1604441  44.6942335  90.1369863  53.1661261  44.8469686
  90.8350028  53.3449388  45.3391150  90.4522195  52.6431600  44.2240076
  90.2865200  53.1155033  44.8271696  82.7671100  54.9714000  52.7580792
  82.6429797  55.5576446  53.3930611  83.4189385  54.4774196  53.0593067
  82.8444750  54.9852805  52.8966721  90.3257798  59.5531706  44.8349478
  90.7651434  58.9448806  45.2804251  90.1762461  59.1739079  44.0634943
  90.3679264  59.4070177  44.7868645  88.3096726  48.5353657  48.9290961
  87.9800056  48.9864801  48.2594660  87.6341728  48.4569821  49.4763967
  88.1607163  48.5904792  48.9114184  93.9267135  57.9058887  41.7880247
  93.8418430  58.7619854  41.9329816  94.4151518  57.6303211  42.4562406
  93.9856032  57.9916208  41.9082328  95.5173134  44.5239180  47.1740572
  95.2026575  45.2142659  47.6060994  95.0000076  44.4683962  46.4726072
  95.3937605  44.6174069  47.1337521  94.8585568  54.5243681  43.2877982
  94.3297039  54.7403315  43.9475288  95.3810588  55.2179820  43.2078951
  94.8574021  54.6586818  43.3733581 100.3133621  60.0989985  48.6611027
  99.4831324  60.3100629  48.8244443 100.2642873  59.2727040  48.3853310
 100.1840356  60.0079592  48.6448392  86.7485176  58.4206898  42.0885450
  86.1642391  58.9256929  42.4951314  86.3455271  58.1949285  41.3482042
  86.6024480  58.4615146  42.0390475  82.3029204  64.1361659  48.8909122
  81.8196783  64.8612149  48.8668705  83.1152523  64.4337789  49.0019279
  82.3519952  64.2864013  48.9036401  91.2062390  54.6672550  40.5654371
  91.4458394  54.8750534  39.7529714  91.5278231  53.8630059  40.6743315
  91.2899548  54.5786651  40.4614924  86.5152680  46.5965946  44.4113909
  87.2698649  46.9644263  44.1730959  86.3380215  46.9705500  45.1793088
  86.6007159  46.7064134  44.4898797  85.1573402  64.6517835  49.0429401
  85.8593981  64.1369824  49.1002158  85.0770885  64.9791986  49.8476277
  85.2497162  64.6232061  49.1702194  99.8087579  52.7460386  52.4561448
  98.9716000  52.8162573  52.6909042  99.7775810  52.7484881  51.5835750
  99.6805862  52.7570613  52.3620996  84.8709745  49.0036265  41.1092022
  84.6885318  49.2208145  40.2833014  85.7335358  49.1175277  41.1650636
  84.9714335  49.0526163  40.9946509  90.5509464  46.0062675  44.1441045
  91.2795625  45.8278630  43.6979202  90.6404357  46.8480755  44.3548224
  90.6716126  46.1046554  44.1094563  94.5317765  56.9416063  48.0473339
  95.2875280  57.3747577  48.0862248  94.6380089  56.2920832  48.6207975
  94.6587936  56.9093547  48.1371365  97.5697936  60.7689340  48.7975742
  97.1333168  60.7726082  49.5534714  97.2360852  61.4494839  48.3655320
  97.4560556  60.8701796  48.8456575  97.4895419  47.8103168  51.0405170
  98.1321327  47.8801272  51.6267086  97.7418440  47.1432391  50.5384712
  97.6217551  47.7229516  51.0532450  84.4171772  52.2810437  39.6214495
  83.7029949  51.9948617  40.0336927  84.9015741  52.6207063  40.2620882
  84.3831135  52.2892087  39.7770130  85.2612632  51.0203731  55.6529744
  84.5684428  50.5500711  55.8990476  85.8772959  50.7942036  56.2271451
  85.2497161  50.9170863  55.7738897 100.7042282  57.4870260  47.6895380
 101.3658716  56.9260928  47.5891288 100.0633694  56.9922291  48.0148071
 100.7071150  57.3306669  47.7227720  91.5919090  60.7840391  39.9976303
  92.0070239  60.4525415  39.3060799  90.7611020  60.5509293  39.8696440
  91.5307099  60.7011647  39.8767150  80.9207439  58.2684132  50.2874481
  80.7383012  58.2431018  49.4346773  81.6557108  58.7383070  50.3263390
  81.0021503  58.3345494  50.1672399  96.9907113  58.5035642  47.4307368
  97.2262702  58.6480841  46.6034219  97.1396677  59.2678050  47.8238882
  97.0472916  58.6374697  47.3670972  98.8197570  57.3437308  45.2676972
  99.1505787  57.8764948  44.6617067  99.3930658  57.3976196  45.9238923
  98.9531249  57.4306877  45.2754754  94.0329459  55.1902211  45.9500552
  94.1276313  55.9291505  46.4040178  93.4088302  54.7619686  46.3835117
  93.9538489  55.2363531  46.0808700  80.8878349  55.1477633  50.4373547
  81.4651852  55.0114084  51.0765793  80.1892411  54.6913417  50.6919132
  80.8699371  55.0599899  50.5695837  94.2852480  57.0350951  39.1837504
  94.2032643  57.1053138  40.0492491  94.9232201  57.5980695  38.9921245
  94.3672318  57.1289922  39.2827454  92.7246702  48.9040139  48.7516123
  92.0203028  48.4149325  48.9100042  92.7731676  48.9162614  47.8804568
  92.6276753  48.8329787  48.6455463  90.2853652  52.8272800  53.9969304
  89.8968085  52.4027018  53.3421495  89.6208350  53.0754950  54.5046330
  90.1300580  52.8011521  53.9757172  99.9276921  52.5847805  46.7717134
  99.6713486  51.7727747  46.5815017 100.7706235  52.5925372  46.5447321
 100.0142947  52.4659802  46.7101951  76.3637182  53.9989526  47.1521366
  76.4497434  53.6221394  47.9334896  76.9912980  53.6249971  46.6741324
  76.4693733  53.8875008  47.1966843  94.1080014  46.5247429  51.5093288
  94.4890525  45.8425600  51.8961162  93.3043298  46.2357031  51.3268952
  94.0456475  46.3814478  51.5397344  91.3892590  57.0571405  42.1946111
  92.2033229  57.3486298  42.0828882  91.3251732  56.4031267  41.6204404
  91.4995329  57.0036600  42.0934948  97.6102081  59.7397401  56.6075686
  97.3740718  58.9085466  56.4887747  98.2545309  59.6883008  57.1930531
  97.6696751  59.6095089  56.6761580  81.9513141  62.7681259  51.2052727
  81.9917286  63.0396110  50.3772506  82.5107665  63.2923167  51.6210515
  82.0396487  62.8857014  51.1444615  87.9003314  55.7495212  41.6593312
  88.2848466  55.5302919  42.4109857  87.6514934  56.5758158  41.7894389
  87.9205386  55.8393358  41.7894389  98.6338501  59.5241850  52.6703981
  98.3284318  60.2569907  53.0317296  97.9144717  59.1179779  52.3896767
  98.4825843  59.5723583  52.6817118 104.3340293  56.1634851  51.9972325
 104.2664794  56.1830810  51.1274912 104.3195956  57.0065178  52.2227996
 104.3219050  56.2908585  51.9024802  83.4027727  61.3523208  46.0306653
  82.5765845  61.5984945  45.9040931  83.4639719  61.2735289  46.8968711
  83.2901894  61.3768157  46.1395597  85.6203751  47.4192149  46.9902093
  84.7526176  47.4914748  47.0559702  85.9078955  48.2214228  47.1790068
  85.5343499  47.5486296  47.0276859  94.7436640  47.5670008  55.3213415
  95.4890232  47.3779819  54.9076840  94.3273944  48.0928246  54.7627271
  94.7921614  47.6172154  55.1777988  88.1826556  63.9700088  43.7325682
  88.4724855  63.5789069  43.0084909  88.9130037  64.1516793  44.1730958
  88.3333441  63.9393902  43.6908490 102.1198911  54.9379237  50.2718920
 102.6706832  54.3047306  50.5116012 102.1043026  55.4694630  50.9634424
 102.1984107  54.9228185  50.4097778  86.1232472  65.9467470  46.7985832
  85.9032767  65.6564825  47.5912499  85.9026994  65.2882426  46.2703745
  86.0580066  65.8067179  46.8374741  95.8227317  53.1775570  49.3823516
  95.4792083  52.4565906  49.7330765  95.9220359  52.9689422  48.5401874
  95.7869360  53.0399774  49.3095196  88.2900428  67.3196860  45.5816525
  88.9424486  66.7873303  45.8107551  87.5926036  66.9665513  45.9684399
  88.2831146  67.1886383  45.6728692  85.2381692  59.6736038  44.9883899
  85.9927660  60.0549077  45.2019361  84.6452305  60.1247182  45.4430595
  85.2618406  59.7964865  45.0866777  96.2840346  59.6401274  44.9247504
  96.8498379  60.2994484  44.8406047  95.6368249  59.9850973  45.3963906
  96.2719102  59.7883216  44.9820260  87.6988359  51.6298878  60.1141111
  86.8888135  51.9356658  60.0030954  88.1763046  52.3504461  60.2293695
  87.6491838  51.7813480  60.1148182  83.5471103  50.8950408  44.4318969
  83.2595899  50.5251679  43.6950916  84.2341571  51.3645263  44.1702674
  83.6060000  50.9097377  44.2834045  92.7546924  62.5840059  44.3484583
  92.5133600  61.8507919  43.9411648  92.9348257  63.1326916  43.6950916
  92.7454548  62.5562450  44.1914806  86.3824775  54.7603356  45.8786374
  87.1047427  54.9244514  45.4190180  85.9032767  55.4813021  45.7725713
  86.4188505  54.8901586  45.7951988  94.3418282  51.0967155  51.2583059
  93.5029383  51.1228434  51.0221322  94.4122650  51.7437891  51.8388405
  94.2286676  51.1963281  51.3092176  92.7887561  47.9952532  45.9910675
  93.4913913  47.7960280  45.5130633  92.5231749  47.2228475  46.2979518
  92.8534193  47.8515498  45.9656116  98.2175806  56.3035142  48.5444300
  98.1309781  56.4590568  49.3979079  97.7626286  56.9473217  48.1703705
  98.1379063  56.4210897  48.6151407  81.1199298  51.6731621  45.2804250
  81.2215434  52.4757782  45.6085226  81.9155184  51.4718957  44.9827331
  81.2527203  51.7617519  45.2839605  87.5516117  49.2587817  55.0441555
  87.3599314  49.2742952  55.8940979  88.4014713  49.4551492  55.0208210
  87.6491839  49.2902169  55.1664850  81.9363030  51.7878799  53.0225372
  81.7948522  50.9362739  53.1469880  82.2203593  51.8307459  52.1987578
  81.9570876  51.6678549  52.9192996  92.0901622  53.6245889  47.1669860
  91.8436336  53.5441640  48.0006649  92.4186745  52.8399357  46.9732387
  92.1022866  53.4972154  47.2617383  95.9849671  60.3329248  50.9556641
  95.8464030  61.0310294  51.4605384  95.2049669  60.1777905  50.5992823
  95.8492898  60.4129415  50.9782915  97.4803044  59.6907502  41.7173140
  97.1009853  58.9044640  41.7102430  96.8169289  60.2394359  41.5744785
  97.3261519  59.6552326  41.6953937  90.4620344  49.4543327  55.2513378
  90.9192958  50.1867301  55.3786171  90.5376673  49.0309792  56.0100634
  90.5411314  49.5000565  55.3814455  82.7053335  49.7009146  56.3402822
  82.1695525  49.0889505  56.6563589  82.7671100  50.2757282  56.9936489
  82.6348968  49.6956074  56.4838249  94.9347670  42.6333202  49.1207221
  95.0531238  43.0909665  48.3874524  94.7609845  41.8278463  48.8343439
  94.9266841  42.5826974  48.9708155  90.3049952  63.2421021  45.5561967
  91.0699843  62.9730665  45.2344631  90.2028042  62.7571032  46.2732029
  90.4031447  63.1310586  45.6141794  88.3402722  51.4445431  52.0955202
  87.5498797  51.2636891  52.4172538  88.7363345  50.6672383  52.0785497
  88.2819598  51.3032892  52.1407751  92.8268613  60.2733205  37.5361916
  93.5941598  60.3333330  37.1267768  92.3799922  59.7013646  37.0518234
  92.8742040  60.1969781  37.4039626  93.7246408  59.0787861  49.8214648
  93.0491410  58.8473093  50.3228035  93.7338784  58.4709044  49.1956753
  93.6264913  58.9546786  49.8030801  95.7263143  61.9352993  42.0524826
  95.8082980  62.7419979  41.7286277  96.2112885  61.9548952  42.7765600
  95.8100301  62.0573656  42.1111725  89.0371339  68.1288342  53.1816361
  89.5267270  67.4299131  52.9992026  88.4655572  67.8312212  53.7692419
  89.0255869  67.9814566  53.2417402  84.8242091  57.1089881  46.1522877
  84.9806710  57.0436683  47.0078869  85.1642684  57.8838433  45.9401556
  84.8975326  57.2139079  46.2477471  89.5307685  61.8765116  42.3056268
  89.6000506  61.0179654  42.4449268  90.3096140  62.0936997  41.9775293
  89.6560535  61.7817980  42.2773425  92.5110505  51.3784069  55.0738540
  92.7252474  50.7394983  54.5201894  91.8944404  51.8229892  54.6446402
  92.4515834  51.3494212  54.9288971  93.9215173  64.3002817  46.5192761
  93.5294965  63.9969532  45.8015627  94.0768245  65.1371907  46.3297715
  93.8868763  64.3786654  46.3849258  81.3976352  54.2924831  46.4683644
  81.7775317  54.7109376  45.8043911  80.8231717  54.8738287  46.7752487
  81.3687677  54.4402690  46.4160385  94.6749593  52.9873134  56.0121847
  93.8626275  52.6799024  56.0935020  95.1339527  52.5072134  56.5764560
  94.6229978  52.8709626  56.1076442  94.0854848  60.8652806  46.4598792
  93.7269502  61.0367449  47.2362824  93.5993558  61.3266011  45.9026790
  93.9613544  60.9591777  46.4924061  91.9025234  44.4884004  50.0625883
  91.0318791  44.4622725  50.0159193  92.1565575  44.3161196  49.2451729
  91.8118794  44.4594148  49.9346020  88.8743213  56.5451971  38.9999026
  89.1635738  57.3216854  39.2742600  88.9615012  56.0340703  39.7013526
  88.9297469  56.5843890  39.1441524  88.9274374  46.4990233  51.5199354
  88.4112863  45.8070424  51.6450933  88.3668303  47.1661010  51.4661952
  88.7680887  46.4953490  51.5305420  90.9966608  47.0383193  53.3492206
  90.6098361  47.0632224  54.1305736  90.5099545  46.4724871  52.8966723
  90.8679116  46.9578944  53.3980110  96.9716587  53.6045848  51.9731908
  96.5444195  53.5172196  51.2180008  96.3342640  53.7123623  52.5586752
  96.8146194  53.6078508  51.9477350  95.3013844  62.4476510  54.0471349
  96.0906222  62.0965575  54.1673431  95.4757441  63.2612898  53.7847983
  95.4434125  62.5162367  54.0259217  82.5182721  53.4804773  48.9283889
  82.1239419  53.5547784  48.1533999  81.9622838  53.8662719  49.4792251
  82.3785533  53.5486547  48.8951549  94.1547668  46.4586067  48.6087768
  94.3597261  46.3908375  49.4544765  93.8274092  47.2644888  48.5408945
  94.1362916  46.5672007  48.7247423  87.9089916  51.0967155  44.9141438
  88.1849650  50.3786067  44.5019005  88.5088585  51.6952075  44.7062544
  88.0383181  51.0787525  44.8222199  97.4081355  47.0117831  48.0890533
  96.7955669  47.4988233  48.4744265  97.5045530  46.3361322  48.6328184
  97.3319253  46.9836140  48.2269392  91.4100436  48.7680672  43.1888033
  91.8644183  48.9391232  43.9135877  91.8840482  48.1548783  42.7885808
  91.5468757  48.7031557  43.2361794  85.3276585  49.4130996  53.1858789
  85.7878066  49.4869925  53.9233913  85.3732691  50.2112250  52.8358610
  85.4027140  49.5425143  53.2431545  86.9759934  50.0797691  57.7530816
  86.5845499  49.4331038  58.1886594  87.1445797  50.6709126  58.3725071
  86.9430845  50.0711959  57.9093522 101.0506383  58.0834768  53.5168049
 101.1089507  58.5321416  54.2628026 100.4172851  58.4933581  53.0798129
 100.9657678  58.2108502  53.5620598  94.6905478  63.7038310  49.9522796
  94.4925167  64.1929124  49.2579007  94.0693189  63.9079551  50.5306929
  94.5693042  63.8054848  49.9346019  88.7513456  55.4723206  44.2933040
  89.4955501  55.8597483  44.5315990  88.8974153  54.6280632  44.4573528
  88.8824042  55.4053679  44.3527010  90.6693032  47.2673465  49.3264901
  89.8229077  47.4396273  49.2006251  90.6664164  46.4622809  49.6630730
  90.5440182  47.1734494  49.3576028  91.7391332  51.0448680  50.1926959
  91.2651287  50.5190442  50.7032270  92.1109468  50.4978153  49.6241821
  91.7241221  50.8864676  50.1842106  82.1164362  53.0420186  55.5610505
  82.9789975  52.9415896  55.4747835  81.7856145  52.4614896  54.9996077
  82.1949559  52.9411813  55.4655911  98.0028063  56.1051055  51.6033740
  97.7626286  55.2657471  51.6076166  98.4820070  56.1851222  52.3274513
  98.0380247  55.9932455  51.7108542  93.6674832  51.9385234  43.2552713
  93.1397851  52.0213978  42.5658422  94.1270540  52.6803106  43.2517358
  93.6576682  52.0605897  43.1527408 100.0033250  52.8852513  49.5562999
  99.7643020  52.8448347  48.7183783 100.1667151  53.7323665  49.6828720
  99.9923553  53.0044598  49.4516481  96.6079280  57.2702462  55.4868044
  97.3313479  56.8174988  55.3079064  96.3429242  57.5507128  54.7040372
  96.6760553  57.2453430  55.3446759  85.4766148  51.8662635  52.2220923
  84.8519219  51.8781027  51.6146876  85.1411743  52.3422811  52.8712163
  85.3351640  51.9381152  52.2277492  85.6607897  50.2087754  38.2793608
  85.3120701  50.8607479  38.7425158  85.1804343  50.1944867  37.5517479
  85.5378141  50.3030807  38.2404699  93.2211914  60.5088798  42.3862370
  93.9446113  60.9746911  42.2426943  92.7812505  60.5762408  41.6359967
  93.2627607  60.5872635  42.2547151  84.7456894  53.4755783  54.4395792
  84.9050380  52.7199107  54.8447514  84.5649787  54.0246723  55.0936529
  84.7422253  53.4449597  54.5958498  92.6877197  45.6417019  54.9946581
  92.1917758  45.8380693  54.3038148  93.4446259  46.0409687  54.8235383
  92.7264021  45.7294753  54.8666718  89.9580076  49.3159365  51.5849892
  89.9822564  48.7819477  50.8962672  90.2091550  48.8076674  52.2475482
  89.9989995  49.1620269  51.5814536  77.4687666  56.5990860  51.0193036
  77.3631115  56.5537704  50.1545120  76.7187886  56.9444640  51.3007321
  77.3423269  56.6431768  50.9330365  86.2381399  48.0430183  50.9655636
  86.2779770  48.5439390  51.6790343  85.4131063  48.1340577  50.6961559
  86.1220925  48.1311999  51.0306174  86.0331806  52.8346284  43.7919653
  86.1734767  53.3318749  44.4948294  86.5314339  52.1332579  43.9333866
  86.1272887  52.8048263  43.9171232  86.0632028  53.7013395  41.1212230
  86.6977108  54.2973820  41.0561691  86.1457639  53.4016853  41.9358100
  86.1688579  53.7454304  41.2315316  99.0414594  56.2328873  53.9898594
  99.6332434  56.8726123  54.0216792  99.4773588  55.5351909  54.2790661
  99.1933025  56.2247223  54.0379426  87.6411011  49.6327371  41.0957672
  87.9626852  49.1530453  40.4416934  87.9037955  50.4427017  40.9048483
  87.7277036  49.6817269  40.9713164  93.0370166  49.0199565  53.4581151
  93.4625238  48.5672091  52.8464677  92.4227159  48.4659635  53.7345938
  93.0098811  48.8713541  53.4086176  82.5685016  55.8981236  44.3901776
  83.0777245  56.4945744  44.7713081  83.0419288  55.6307210  43.7078195
  82.7128392  55.9467052  44.3456298  93.4815764  64.5709503  42.5460431
  92.7645074  64.3970365  42.0807668  94.1322502  64.3362075  42.0135917
  93.4717615  64.5105295  42.3989649  91.4764389  45.4914665  46.8671728
  90.8332707  45.3412311  47.4356866  91.1363796  45.2457010  46.1020832
  91.3309466  45.4326787  46.8374743  96.0663735  53.4474091  46.2901736
  95.3954925  53.9903794  46.1614802  96.7603486  53.9168947  46.0483431
  96.0692603  53.5972363  46.2357264  96.2291863  49.9029975  49.1992109
  96.5819473  49.4759698  49.8737908  95.3706664  49.8180819  49.3293186
  96.1541307  49.8274716  49.3187120  84.9275548  52.5337495  47.2574956
  84.2087537  52.9501627  47.5247820  85.2987910  53.0991733  46.7066594
  84.8767480  52.6786776  47.2157763  94.2275129  53.1665344  53.1476952
  94.2073056  52.9848639  54.0011731  94.2754329  54.0377362  53.1236535
  94.2309770  53.2681882  53.2700246  88.7628926  65.8071261  48.9750579
  88.3489325  65.1445392  48.5854421  89.4476300  65.9549120  48.4546273
  88.8027298  65.7311920  48.8407076  92.1294220  64.9661347  49.7274196
  91.7310503  65.0763617  48.9595016  91.5145440  65.1743413  50.3100756
  91.9793109  65.0134915  49.7005495  90.7022122  51.5735495  42.5948335
  90.1086961  51.8952491  42.0432902  90.7397400  50.7276590  42.3869442
  90.6196511  51.4959823  42.4831107  97.6615923  45.0248387  50.1276422
  97.1546788  44.3177526  50.0597599  98.4583357  44.6941576  50.2577499
  97.7043162  44.8721538  50.1375417  93.5779939  51.5314999  46.0250086
  93.3493632  51.5547701  45.1828444  93.8378015  50.7072466  46.1445096
  93.5826127  51.4131079  45.9175283  87.8599167  53.3849472  55.6275186
  87.3478070  52.7770655  55.9860217  87.6878663  54.1006065  56.0949162
  87.7588804  53.4012771  55.7491410  82.7064882  51.8287047  58.2777548
  82.5367472  52.4888422  57.7325754  82.2630832  52.0393609  58.9990037
  82.6164215  51.9573030  58.3039177  86.6324701  50.0691545  47.3204281
  87.1082068  50.4308625  46.6854462  86.1313301  50.7248013  47.6004424
  86.6290060  50.2185734  47.2681022  99.8636063  59.5413313  43.1117286
 100.2469669  60.2904670  43.3415383  99.0680176  59.7879133  42.8529275
  99.8029845  59.6883007  43.1074860  79.6066946  54.7333913  53.5366038
  79.0593666  54.0634559  53.6546906  80.3959325  54.3663761  53.6009505
  79.6419130  54.5798899  53.5634738  88.6751354  52.2132745  40.6877665
  89.0550319  52.2312374  39.9028780  87.9343950  52.6586734  40.5668513
  88.6220192  52.2814520  40.5541234  96.3036645  50.5214936  46.2753244
  96.3030871  50.3663593  47.1337520  96.0992825  51.3677923  46.2194630
  96.2736423  50.6235557  46.3941183  78.3653916  53.9454721  50.6912061
  78.1875677  53.4931330  51.4166976  78.0772938  54.7480882  50.8750538
  78.2966869  53.9977279  50.8255563  94.0277497  55.2012438  49.9289451
  94.5231162  54.4835433  49.8893471  93.2177273  54.8983236  49.8143938
  93.9821390  55.0510084  49.9063177  89.4736108  59.0510251  42.0786455
  88.6647431  58.7276925  42.0319765  89.9811017  58.3443474  42.0114704
  89.4285775  58.8991568  42.0616750  80.1026386  56.4782445  47.8033820
  79.2371905  56.4668135  47.6916591  80.2025202  56.2912667  48.6504959
  79.9900553  56.4488506  47.9122764  96.0929316  57.9516126  52.6166580
  96.5184387  57.4290548  52.0637005  95.7286236  58.5496963  52.0955203
  96.1015918  57.9626353  52.4575589  85.7283396  66.2480343  51.3763925
  86.0429955  67.0616732  51.3841707  86.1376809  65.8630562  52.0446084
  85.8351494  66.3109046  51.4768017  92.6807915  61.6650390  48.9467737
  93.1519093  62.3790653  49.1157722  93.0168094  61.0649140  49.4827607
  92.8003030  61.6821854  49.0500113  92.6709765  43.3608187  52.5006925
  91.8655729  43.2505916  52.8174763  92.5416501  43.4620642  51.6436791
  92.5329898  43.3591857  52.4214966  96.1275726  49.5253679  53.0946622
  95.5438715  50.0262885  52.6824189  96.4480020  49.0183235  52.4610945
  96.0888901  49.5245514  52.9405129  88.6670525  48.4394273  43.3705297
  89.4886219  48.6092586  43.1286992  88.2040176  48.5941534  42.6471594
  88.7201687  48.4876006  43.2276941  87.2565857  46.4337036  54.1503726
  87.8010270  46.0928162  54.7408067  87.3102793  47.2922497  54.2925010
  87.3454976  46.5092295  54.2585599  78.3047698  59.1788069  50.8941457
  78.2071976  58.3684341  51.2031513  79.0876568  59.1579863  50.5087725
  78.4063835  59.0555159  50.8828320 109.3553838  70.1184248  45.2047647
 109.3247843  70.9728885  45.3765917 109.9535187  69.8179541  45.7633791
 109.4390996  70.2000745  45.3122450 102.5553523  69.2059899  49.9600578
 101.6991419  69.3668398  50.0109695 102.6021177  68.3351963  49.9805639
 102.4352635  69.1010701  49.9706644  96.9394663  78.7422617  45.7237809
  96.1877562  78.3638156  45.4953854  97.3880675  78.7741051  44.9756620
  96.8944330  78.6908225  45.5795311 105.8647240  75.4746425  59.5661034
 106.5714007  74.9798456  59.6947968 106.0535175  75.9155507  58.8363692
 105.9975145  75.4664775  59.4770079 102.3919623  79.1647987  41.1523356
 102.0570991  79.8424908  40.7167579 102.9046493  78.7753298  40.5640228
 102.4185204  79.2072565  41.0010148 101.9323914  81.1162256  47.0934468
 102.3163293  81.6849154  46.5539243 101.8683055  80.3911766  46.6140284
 101.9797341  81.0937719  46.9428331 105.4005344  71.2651943  52.6032229
 105.9461304  71.9437030  52.6626199 105.3422220  71.1239404  51.7433811
 105.4721259  71.3443945  52.4844290  98.5179419  78.7541010  47.9900582
  98.6189782  77.9441363  48.2997710  97.9221164  78.6597956  47.3600260
  98.4451958  78.6206038  47.9426820 107.1770413  72.6936551  43.4765957
 107.0609939  73.4444237  43.9058095 107.9726299  72.4360504  43.7262044
 107.2775002  72.7671397  43.5770049  98.3580159  83.6718599  49.3915438
  99.0017614  84.1131763  49.7811596  98.6836414  82.8672025  49.3045697
  98.5011987  83.6183793  49.4360915  91.7144463  74.7761296  47.6152915
  91.4794648  73.9428948  47.5085184  91.8530104  75.0565962  46.8014116
  91.7000126  74.6944799  47.4795270  94.0134551  66.9447027  50.5137223
  93.3939582  66.3539674  50.3447238  93.9118414  67.5358462  49.8801546
  93.9072226  66.9451109  50.3942213  99.0600738  76.6830574  44.7635300
  99.3816579  77.2235781  44.1596608  99.7072835  76.1127345  44.8957589
  99.2026794  76.6789749  44.6942335 101.1102446  68.6846568  44.8469686
 101.8082611  68.8634696  45.3391150 101.4254779  68.1616908  44.2240076
 101.2597784  68.6340341  44.8271696  93.7403684  70.4899308  52.7580792
  93.6162381  71.0761754  53.3930611  94.3921968  69.9959504  53.0593067
  93.8177333  70.5038113  52.8966721 101.2990382  75.0717014  44.8349478
 101.7384017  74.4634114  45.2804251 101.1495045  74.6924387  44.0634943
 101.3411847  74.9255485  44.7868645  98.7662025  73.6661025  52.0368303
  99.4111027  73.1733468  51.7179252  99.0063802  73.8085812  52.8634382
  98.8972610  73.6138468  52.1117836 101.3048116  76.5115931  51.6875196
 101.5871359  75.7167337  51.4661952 102.0334277  76.9896519  51.7080257
 101.4537680  76.4650528  51.6578211  99.2829310  64.0538965  48.9290961
  98.9532640  64.5050109  48.2594660  98.6074312  63.9755128  49.4763967
  99.1339746  64.1090100  48.9114184 104.8999718  73.4244195  41.7880247
 104.8151013  74.2805161  41.9329816 105.3884102  73.1488519  42.4562406
 104.9588616  73.5101516  41.9082328 106.4905718  60.0424488  47.1740572
 106.1759159  60.7327967  47.6060994 105.9732659  59.9869270  46.4726072
 106.3670188  60.1359377  47.1337521 105.8318152  70.0428989  43.2877982
 105.3029623  70.2588622  43.9475288 106.3543171  70.7365127  43.2078951
 105.8306605  70.1772126  43.3733581 111.2866204  75.6175293  48.6611027
 110.4563908  75.8285937  48.8244443 111.2375457  74.7912348  48.3853310
 111.1572940  75.5264900  48.6448392  97.7217759  73.9392206  42.0885450
  97.1374975  74.4442237  42.4951314  97.3187855  73.7134593  41.3482042
  97.5757063  73.9800454  42.0390475  93.2761788  79.6546967  48.8909122
  92.7929366  80.3797457  48.8668705  94.0885106  79.9523097  49.0019279
  93.3252536  79.8049321  48.9036401  99.3475942  78.4479148  51.4958936
  98.8302884  78.0886563  50.8920244 100.0450333  77.9241322  51.5065002
  99.3741523  78.3176836  51.4089195 103.0039534  78.8973962  57.4575109
 103.0922880  78.7100102  58.3053319 103.4329247  78.2511391  57.0579956
 103.0801636  78.7736969  57.5246861 100.5709994  78.1805122  56.4392771
 100.0080829  77.7677731  56.9632433 101.3331017  78.1058027  56.8585915
 100.6004442  78.1082522  56.5785772 102.1794974  70.1857858  40.5654371
 102.4190977  70.3935842  39.7529714 102.5010815  69.3815367  40.6743315
 102.2632132  70.0971959  40.4614924  97.4885264  62.1151254  44.4113909
  98.2431232  62.4829571  44.1730959  97.3112799  62.4890808  45.1793088
  97.5739742  62.2249441  44.4898797  96.1305985  80.1703143  49.0429401
  96.8326565  79.6555132  49.1002158  96.0503468  80.4977294  49.8476277
  96.2229746  80.1417369  49.1702194 110.7820163  68.2645694  52.4561448
 109.9448584  68.3347881  52.6909042 110.7508394  68.2670189  51.5835750
 110.6538445  68.2755921  52.3620996  97.1784892  70.4078730  58.1709817
  97.3505396  70.2984624  59.0195098  97.7154249  71.0533135  57.9341009
  97.2829896  70.4870731  58.2614913  95.8442329  64.5221573  41.1092022
  95.6617902  64.7393453  40.2833014  96.7067942  64.6360585  41.1650636
  95.9446918  64.5711470  40.9946509  95.4556761  76.3609495  48.5515009
  96.2945660  76.5932428  48.5988771  95.4868530  75.4913806  48.4822045
  95.5838478  76.2666441  48.5479654  96.0809464  76.7810370  52.8528315
  96.6207689  76.6381501  53.5231687  95.3979410  77.1807121  53.2212341
  96.0601618  76.8190041  53.0062737 101.5242048  61.5247983  44.1441045
 102.2528208  61.3463938  43.6979202 101.6136941  62.3666063  44.3548224
 101.6448710  61.6231862  44.1094563 105.5050349  72.4601371  48.0473339
 106.2607864  72.8932885  48.0862248 105.6112673  71.8106140  48.6207975
 105.6320519  72.4278854  48.1371365 108.5430520  76.2874648  48.7975742
 108.1065752  76.2911390  49.5534714 108.2093435  76.9680147  48.3655320
 108.4293140  76.3887104  48.8456575 103.1159593  78.3282981  60.1218893
 103.9000010  78.4413828  60.4874635 102.9156188  77.5024118  60.3177579
 103.2025619  78.2229700  60.2053279  91.4846609  73.0010661  53.0062737
  91.2185024  72.1849777  53.1653727  91.4985173  73.0463816  52.1358252
  91.4471331  72.8867566  52.9016219 108.4628003  63.3288476  51.0405170
 109.1053911  63.3986580  51.6267086 108.7151023  62.6617699  50.5384712
 108.5950135  63.2414824  51.0532450  95.3904356  67.7995745  39.6214495
  94.6762533  67.5133925  40.0336927  95.8748324  68.1392371  40.2620882
  95.3563719  67.8077395  39.7770130  96.2345215  66.5389039  55.6529744
  95.5417012  66.0686019  55.8990476  96.8505542  66.3127344  56.2271451
  96.2229745  66.4356171  55.7738897 103.2729987  80.2393083  53.7685348
 102.4745232  79.9992583  54.0259217 103.7215998  80.2907476  54.5152396
 103.2204598  80.2115474  53.9170273 111.6774866  73.0055568  47.6895380
 112.3391300  72.4446236  47.5891288 111.0366278  72.5107598  48.0148071
 111.6803733  72.8491977  47.7227720 102.5651674  76.3025699  39.9976303
 102.9802822  75.9710723  39.3060799 101.7343603  76.0694601  39.8696440
 102.5039682  76.2196955  39.8767150  91.8940022  73.7869440  50.2874481
  91.7115596  73.7616326  49.4346773  92.6289691  74.2568378  50.3263390
  91.9754086  73.8530802  50.1672399 107.9639697  74.0220950  47.4307368
 108.1995286  74.1666149  46.6034219 108.1129260  74.7863358  47.8238882
 108.0205500  74.1560005  47.3670972  94.9585774  70.5054443  56.7956589
  95.6825746  70.4907474  57.2821484  95.0601911  71.2149798  56.2978558
  95.0803983  70.6079146  56.7935376 109.7930153  72.8622616  45.2676972
 110.1238370  73.3950256  44.6617067 110.3663241  72.9161504  45.9238923
 109.9263832  72.9492185  45.2754754 102.3330723  73.9853528  61.6605536
 101.5403704  74.2997039  61.8458156 102.4479651  74.2004996  60.8226321
 102.2326134  74.0637364  61.5643871 105.0062042  70.7087519  45.9500552
 105.1008897  71.4476813  46.4040178 104.3820886  70.2804994  46.3835117
 104.9271073  70.7548839  46.0808700 103.2614516  73.8873731  56.5990833
 103.8353378  73.2500976  56.7539397 103.1829320  73.8877814  55.7300491
 103.3347751  73.7938843  56.4937244  91.8610933  70.6662941  50.4373547
  92.4384435  70.5299392  51.0765793  91.1624994  70.2098725  50.6919132
  91.8431954  70.5785207  50.5695837 105.2585064  72.5536259  39.1837504
 105.1765226  72.6238446  40.0492491 105.8964784  73.1166002  38.9921245
 105.3404901  72.6475230  39.2827454  98.6178235  72.3196997  48.6512031
  98.3597479  71.4868731  48.6243330  98.6726718  72.5454610  47.8104531
  98.5878013  72.2294768  48.5232167 103.6979285  64.4225447  48.7516123
 102.9935612  63.9334633  48.9100042 103.7464259  64.4347922  47.8804568
 103.6009337  64.3515095  48.6455463  97.5912947  69.8734759  49.1376925
  97.0162538  70.0326927  49.7740886  97.2148623  69.2370168  48.6745376
  97.4515759  69.8032572  49.1631484 101.2586236  68.3458108  53.9969304
 100.8700668  67.9212326  53.3421495 100.5940934  68.5940258  54.5046330
 101.1033163  68.3196829  53.9757172 110.9009505  68.1033113  46.7717134
 110.6446070  67.2913054  46.5815017 111.7438819  68.1110680  46.5447321
 110.9875530  67.9845110  46.7101951  87.3369766  69.5174834  47.1521366
  87.4230018  69.1406702  47.9334896  87.9645563  69.1435279  46.6741324
  87.4426317  69.4060316  47.1966843 105.0812597  62.0432737  51.5093288
 105.4623109  61.3610908  51.8961162 104.2775882  61.7542339  51.3268952
 105.0189059  61.8999786  51.5397344 102.3625174  72.5756713  42.1946111
 103.1765813  72.8671606  42.0828882 102.2984315  71.9216575  41.6204404
 102.4727913  72.5221908  42.0934948 108.5834664  75.2582709  56.6075686
 108.3473302  74.4270774  56.4887747 109.2277893  75.2068316  57.1930531
 108.6429335  75.1280397  56.6761580  98.2333082  76.0478230  47.3218423
  98.8707029  75.8089978  47.8670216  98.6588154  76.2515389  46.5871583
  98.3909248  76.0429241  47.2935580  92.9245725  78.2866567  51.2052727
  92.9649870  78.5581418  50.3772506  93.4840249  78.8108475  51.6210515
  93.0129071  78.4042322  51.1444615  98.8735897  71.2680520  41.6593312
  99.2581050  71.0488227  42.4109857  98.6247518  72.0943465  41.7894389
  98.8937970  71.3578666  41.7894389  99.0404438  64.5486935  61.3755896
  98.7257879  65.3186498  61.1125459  98.7194370  63.9857191  60.7908123
  98.9463357  64.5797204  61.2497246 109.6071085  75.0427158  52.6703981
 109.3016902  75.7755215  53.0317296 108.8877300  74.6365087  52.3896767
 109.4558427  75.0908891  52.6817118 100.6154554  76.5250653  49.0012209
 100.6893562  76.3625825  49.8554059 101.4324061  76.7140843  48.7572691
 100.7470913  76.5287395  49.0910235 115.3072877  71.6820158  51.9972325
 115.2397377  71.7016118  51.1274912 115.2928539  72.5250486  52.2227996
 115.2951633  71.8093893  51.9024802  94.3760311  76.8708516  46.0306653
  93.5498429  77.1170253  45.9040931  94.4372302  76.7920597  46.8968711
  94.2634478  76.8953465  46.1395597  96.5936335  62.9377457  46.9902093
  95.7258760  63.0100056  47.0559702  96.8811539  63.7399536  47.1790068
  96.5076083  63.0671604  47.0276859 105.7169223  63.0855316  55.3213415
 106.4622815  62.8965127  54.9076840 105.3006528  63.6113554  54.7627271
 105.7654198  63.1357462  55.1777988  99.1559140  79.4885396  43.7325682
  99.4457438  79.0974377  43.0084909  99.8862621  79.6702101  44.1730958
  99.3066024  79.4579210  43.6908490 113.0931494  70.4564545  50.2718920
 113.6439416  69.8232614  50.5116012 113.0775610  70.9879937  50.9634424
 113.1716691  70.4413493  50.4097778  99.7453885  74.2903142  54.8178813
  99.2465579  75.0018910  54.8963701 100.5554109  74.6103809  54.7796975
  99.7909992  74.4429991  54.8235382  97.0965055  81.4652778  46.7985832
  96.8765351  81.1750133  47.5912499  96.8759578  80.8067733  46.2703745
  97.0312650  81.3252487  46.8374741  96.0082003  73.5526095  49.0641534
  95.7195251  72.9263566  49.5987261  96.8765351  73.4946382  49.1306214
  96.0942255  73.4513639  49.1532488 106.7959900  68.6960878  49.3823516
 106.4524666  67.9751214  49.7330765 106.8952943  68.4874729  48.5401874
 106.7601943  68.5585082  49.3095196  99.2633011  82.8382168  45.5816525
  99.9157069  82.3058611  45.8107551  98.5658620  82.4850821  45.9684399
  99.2563729  82.7071691  45.6728692  96.2114276  75.1921346  44.9883899
  96.9660244  75.5734385  45.2019361  95.6184889  75.6432490  45.4430595
  96.2350990  75.3150173  45.0866777 107.2572930  75.1586582  44.9247504
 107.8230962  75.8179792  44.8406047 106.6100833  75.5036280  45.3963906
 107.2451686  75.3068524  44.9820260  98.6720943  67.1484186  60.1141111
  97.8620719  67.4541966  60.0030954  99.1495630  67.8689769  60.2293695
  98.6224422  67.2998787  60.1148182  97.5312503  76.3629907  50.3624014
  97.0093256  76.5030199  51.0475879  97.9186523  75.6040572  50.5526132
  97.5116204  76.2715431  50.4925091  94.5203687  66.4135716  44.4318969
  94.2328482  66.0436986  43.6950916  95.2074155  66.8830571  44.1702674
  94.5792584  66.4282685  44.2834045 103.7279508  78.1025367  44.3484583
 103.4866184  77.3693227  43.9411648 103.9080841  78.6512224  43.6950916
 103.7187132  78.0747758  44.1914806  98.9578828  73.3933926  45.7605505
  98.7621611  74.0008661  45.1665808  99.1813174  72.7001870  45.2797179
  98.9613469  73.3811452  45.6021586  97.3557358  70.2788664  45.8786374
  98.0780010  70.4429822  45.4190180  96.8765351  70.9998329  45.7725713
  97.3921089  70.4086894  45.7951988 105.3150866  66.6152463  51.2583059
 104.4761966  66.6413742  51.0221322 105.3855233  67.2623199  51.8388405
 105.2019259  66.7148589  51.3092176  95.0064975  72.6846737  54.9840514
  95.5186072  72.9630990  54.3349273  94.7201318  73.4236031  55.3503327
  95.0399838  72.8349090  54.9430392 103.7620144  63.5137840  45.9910675
 104.4646497  63.3145588  45.5130633 103.4964333  62.7413782  46.2979518
 103.8266776  63.3700806  45.9656116 109.1908390  71.8220450  48.5444300
 109.1042364  71.9775876  49.3979079 108.7358870  72.4658525  48.1703705
 109.1111646  71.9396205  48.6151407  92.0931881  67.1916929  45.2804250
  92.1948018  67.9943090  45.6085226  92.8887768  66.9904264  44.9827331
  92.2259787  67.2802827  45.2839605  98.5248700  64.7773125  55.0441555
  98.3331897  64.7928260  55.8940979  99.3747296  64.9736800  55.0208210
  98.6224422  64.8087476  55.1664850  92.9095613  67.3064107  53.0225372
  92.7681105  66.4548047  53.1469880  93.1936177  67.3492767  52.1987578
  92.9303459  67.1863857  52.9192996 103.0634206  69.1431197  47.1669860
 102.8168920  69.0626948  48.0006649 103.3919329  68.3584665  46.9732387
 103.0755449  69.0157462  47.2617383 106.9582255  75.8514556  50.9556641
 106.8196614  76.5495602  51.4605384 106.1782252  75.6963213  50.5992823
 106.8225481  75.9314723  50.9782915 105.2960340  72.1510932  57.2079023
 105.2908378  71.2790748  57.2121449 106.0021334  72.3499101  56.7348479
 105.4005344  72.0514806  57.1386058  99.0231233  71.8787916  56.5792843
  99.1674609  72.4589124  55.9435953  99.3706882  72.2564212  57.2842698
  99.0958694  72.0208620  56.5891838 101.1951150  71.0778084  54.3617975
 100.4474464  71.2709098  53.9566253 101.3492676  70.2523303  54.1242096
 101.1073578  70.9843195  54.2663380  98.0958988  80.0690687  53.4453870
  98.2448552  79.5093603  52.7927274  98.8758990  80.1482689  53.8286389
  98.2333082  79.9976253  53.4050819 108.4535627  75.2092810  41.7173140
 108.0742436  74.4229948  41.7102430 107.7901873  75.7579667  41.5744785
 108.2994102  75.1737634  41.6953937 100.6212289  80.2405330  54.7238361
 100.5455960  79.5714141  55.2789149 100.5502148  80.9423118  55.2379027
 100.5992896  80.2450238  54.8815209 101.4352927  64.9728635  55.2513378
 101.8925542  65.7052609  55.3786171 101.5109256  64.5495100  56.0100634
 101.5143897  65.0185873  55.3814455  93.6785919  65.2194454  56.3402822
  93.1428108  64.6074812  56.6563589  93.7403683  65.7942590  56.9936489
  93.6081551  65.2141382  56.4838249 105.9080253  58.1518510  49.1207221
 106.0263821  58.6094973  48.3874524 105.7342429  57.3463771  48.8343439
 105.8999424  58.1012282  48.9708155 101.2782536  78.7606329  45.5561967
 102.0432427  78.4915973  45.2344631 101.1760626  78.2756339  46.2732029
 101.3764031  78.6495894  45.6141794  99.3135305  66.9630739  52.0955202
  98.5231380  66.7822199  52.4172538  99.7095928  66.1857691  52.0785497
  99.2552182  66.8218199  52.1407751 103.8001196  75.7918513  37.5361916
 104.5674181  75.8518638  37.1267768 103.3532505  75.2198954  37.0518234
 103.8474623  75.7155089  37.4039626 104.6978992  74.5973169  49.8214648
 104.0223993  74.3658401  50.3228035 104.7071368  73.9894352  49.1956753
 104.5997496  74.4732094  49.8030801 101.8273136  69.4390998  56.5778701
 101.7632277  70.3000954  56.4498838 101.9670323  69.1222991  55.7774253
 101.8388606  69.5191164  56.4406914 106.6995726  77.4538301  42.0524826
 106.7815564  78.2605287  41.7286277 107.1845468  77.4734260  42.7765600
 106.7832884  77.5758963  42.1111725 100.5092230  72.1323137  50.7194904
 100.0854479  72.3327636  49.9833923 100.3337085  71.2851985  50.8319204
 100.4203110  72.0371918  50.6268594 100.0103923  83.6473650  53.1816361
 100.4999853  82.9484439  52.9992026  99.4388155  83.3497520  53.7692419
  99.9988453  83.4999874  53.2417402  95.7974674  72.6275188  46.1522877
  95.9539294  72.5621991  47.0078869  96.1375268  73.4023741  45.9401556
  95.8707909  72.7324387  46.2477471 102.3353819  72.0033072  45.0216240
 102.8769365  71.5003453  45.4854860 102.6500378  71.9498267  44.2105725
 102.4618216  71.9212493  44.9700052 106.2070927  76.2135719  62.1343152
 107.0205792  75.9420868  62.2948285 106.0465893  75.9143259  61.3303348
 106.3040875  76.1290645  62.0388558 100.5040269  77.3950424  42.3056268
 100.5733089  76.5364962  42.4449268 101.2828724  77.6122304  41.9775293
 100.6293119  77.3003288  42.2773425 103.4843088  66.8969377  55.0738540
 103.6985058  66.2580291  54.5201894 102.8676988  67.3415200  54.6446402
 103.4248418  66.8679520  54.9288971 104.8947756  79.8188125  46.5192761
 104.5027548  79.5154840  45.8015627 105.0500829  80.6557215  46.3297715
 104.8601346  79.8971962  46.3849258  92.3708936  69.8110139  46.4683644
  92.7507901  70.2294684  45.8043911  91.7964301  70.3923595  46.7752487
  92.3420261  69.9587998  46.4160385 105.6482176  68.5058442  56.0121847
 104.8358858  68.1984332  56.0935020 106.1072111  68.0257442  56.5764560
 105.5962561  68.3894934  56.1076442 105.0587431  76.3838114  46.4598792
 104.7002086  76.5552757  47.2362824 104.5726142  76.8451319  45.9026790
 104.9346128  76.4777085  46.4924061 102.8757817  60.0069312  50.0625883
 102.0051375  59.9808033  50.0159193 103.1298158  59.8346504  49.2451729
 102.7851377  59.9779456  49.9346020  99.8475797  72.0637279  38.9999026
 100.1368321  72.8402162  39.2742600  99.9347595  71.5526011  39.7013526
  99.9030053  72.1029197  39.1441524 102.7435684  69.9118513  60.7950550
 103.2135315  70.5360630  61.1818424 102.7897564  69.2435489  61.3543764
 102.8203560  69.9053193  60.9350621  99.9006958  62.0175541  51.5199354
  99.3845446  61.3255732  51.6450933  99.3400887  62.6846318  51.4661952
  99.7413471  62.0138798  51.5305420 101.9699191  62.5568501  53.3492206
 101.5830944  62.5817532  54.1305736 101.4832128  61.9910179  52.8966723
 101.8411700  62.4764252  53.3980110 106.2192171  77.2742010  57.4065993
 106.8571891  76.7802205  57.0728449 105.5766262  77.2019410  56.8218220
 106.2186397  77.1901018  57.2708348 107.9449171  69.1231156  51.9731908
 107.5176779  69.0357504  51.2180008 107.3075224  69.2308931  52.5586752
 107.7878778  69.1263815  51.9477350 101.6356333  59.4435486  55.6402466
 102.2649451  59.9795786  55.3623536 101.8042196  59.3512845  56.4916032
 101.7534127  59.5096848  55.7250994 101.4370248  64.2306681  57.9128878
 102.2643677  63.9591830  57.9687492 101.4578094  65.0267523  58.2692696
 101.5623098  64.3086435  57.9744061 106.2746427  77.9661818  54.0471349
 107.0638805  77.6150883  54.1673431 106.4490025  78.7798206  53.7847983
 106.4166709  78.0347675  54.0259217  96.0139738  71.3770544  51.0999138
  95.1727744  71.2774418  51.3078032  96.2229745  72.1466024  51.4513459
  95.9204430  71.4762587  51.1826453  93.4915304  68.9990081  48.9283889
  93.0972002  69.0733092  48.1533999  92.9355421  69.3848027  49.4792251
  93.3518117  69.0671855  48.8951549 105.1280251  61.9771375  48.6087768
 105.3329845  61.9093682  49.4544765 104.8006675  62.7830196  48.5408945
 105.1095499  62.0857315  48.7247423  99.8256402  69.3051943  50.3496736
  99.5219540  68.7507931  50.9507143  99.1235823  69.4844153  49.8624770
  99.6772612  69.2496725  50.3666441  98.8822499  66.6152463  44.9141438
  99.1582234  65.8971375  44.5019005  99.4821169  67.2137383  44.7062544
  99.0115764  66.5972833  44.8222199  97.8874753  76.5201664  55.0568834
  97.7795108  76.5303726  55.9230892  98.0970535  77.3456444  54.8673787
  97.9024864  76.6442738  55.1572925 108.3813939  62.5303139  48.0890533
 107.7688253  63.0173541  48.4744265 108.4778114  61.8546630  48.6328184
 108.3051837  62.5021448  48.2269392 102.3833020  64.2865980  43.1888033
 102.8376767  64.4576540  43.9135877 102.8573066  63.6734091  42.7885808
 102.5201340  64.2216865  43.2361794  95.9048545  73.7714306  52.5190771
  95.3136479  74.4123804  52.4893786  96.6669569  74.1951923  52.4922071
  95.9296806  73.9290144  52.5105918  96.3009168  64.9316304  53.1858789
  96.7610650  65.0055233  53.9233913  96.3465275  65.7297558  52.8358610
  96.3759724  65.0610451  53.2431545  97.9492518  65.5982999  57.7530816
  97.5578083  64.9516346  58.1886594  98.1178381  66.1894434  58.3725071
  97.9163428  65.5897266  57.9093522 112.0238967  73.6020076  53.5168049
 112.0822091  74.0506724  54.2628026 111.3905435  74.0118888  53.0798129
 111.9390262  73.7293810  53.5620598 105.6638062  79.2223618  49.9522796
 105.4657750  79.7114432  49.2579007 105.0425773  79.4264859  50.5306929
 105.5425626  79.3240156  49.9346019  99.7246040  70.9908514  44.2933040
 100.4688085  71.3782791  44.5315990  99.8706736  70.1465940  44.4573528
  99.8556625  70.9238987  44.3527010 101.6425615  62.7858773  49.3264901
 100.7961661  62.9581581  49.2006251 101.6396748  61.9808117  49.6630730
 101.5172765  62.6919802  49.3576028 102.7123916  66.5633988  50.1926959
 102.2383870  66.0375750  50.7032270 103.0842052  66.0163461  49.6241821
 102.6973805  66.4049984  50.1842106  93.0896946  68.5605494  55.5610505
  93.9522559  68.4601204  55.4747835  92.7588729  67.9800204  54.9996077
  93.1682142  68.4597121  55.4655911 108.9760646  71.6236363  51.6033740
 108.7358869  70.7842779  51.6076166 109.4552654  71.7036530  52.3274513
 109.0112830  71.5117763  51.7108542 104.6407416  67.4570542  43.2552713
 104.1130434  67.5399286  42.5658422 105.1003124  68.1988414  43.2517358
 104.6309266  67.5791205  43.1527408 110.9765833  68.4037821  49.5562999
 110.7375603  68.3633655  48.7183783 111.1399735  69.2508973  49.6828720
 110.9656137  68.5229906  49.4516481 107.5811864  72.7887770  55.4868044
 108.3046062  72.3360296  55.3079064 107.3161826  73.0692436  54.7040372
 107.6493137  72.7638738  55.3446759  96.4498732  67.3847943  52.2220923
  95.8251802  67.3966335  51.6146876  96.1144327  67.8608119  52.8712163
  96.3084224  67.4566460  52.2277492  96.6340481  65.7273062  38.2793608
  96.2853285  66.3792787  38.7425158  96.1536926  65.7130175  37.5517479
  96.5110725  65.8216115  38.2404699  93.1624407  75.4448403  53.6624687
  92.6324332  74.7540842  53.7119662  93.4349501  75.4358589  52.8337396
  93.1249130  75.3415535  53.5472103 104.1944498  76.0274106  42.3862370
 104.9178697  76.4932219  42.2426943 103.7545089  76.0947715  41.6359967
 104.2360190  76.1057943  42.2547151 103.3630653  72.8871648  53.6363059
 102.7487646  72.3429698  53.9311694 103.8797938  72.3735885  53.1568875
 103.3486315  72.7308057  53.6087287 102.6026950  73.9575918  51.3707358
 102.1754558  73.3325637  50.9372793 102.5951895  73.6750840  52.1966365
 102.5386091  73.8228699  51.4287185  95.7189477  68.9941091  54.4395792
  95.8782964  68.2384415  54.8447514  95.5382371  69.5432031  55.0936529
  95.7154836  68.9634905  54.5958498 103.6609780  61.1602327  54.9946581
 103.1650342  61.3566001  54.3038148 104.4178842  61.5594995  54.8235383
 103.6996605  61.2480061  54.8666718 100.9312660  64.8344673  51.5849892
 100.9555147  64.3004785  50.8962672 101.1824134  64.3261981  52.2475482
 100.9722579  64.6805577  51.5814536  88.4420250  72.1176168  51.0193036
  88.3363699  72.0723012  50.1545120  87.6920470  72.4629948  51.3007321
  88.3155853  72.1617076  50.9330365  97.2113982  63.5615491  50.9655636
  97.2512354  64.0624697  51.6790343  96.3863647  63.6525885  50.6961559
  97.0953508  63.6497307  51.0306174  99.3943595  73.1276231  59.0675931
  98.5439226  73.2647945  59.2033576  99.5571723  72.3940009  59.5123632
  99.2927459  73.0390332  59.1531530  98.6328346  70.0776001  53.2629535
  97.8020275  70.2449819  53.0564783  98.5779863  69.7011952  54.0478420
  98.5017760  70.0465732  53.3478063  97.0064389  68.3531592  43.7919653
  97.1467350  68.8504057  44.4948294  97.5046922  67.6517887  43.9333866
  97.1005470  68.3233571  43.9171232  97.0364612  69.2198703  41.1212230
  97.6709691  69.8159128  41.0561691  97.1190223  68.9202161  41.9358100
  97.1421163  69.2639611  41.2315316 110.0147178  71.7514181  53.9898594
 110.6065018  72.3911431  54.0216792 110.4506172  71.0537217  54.2790661
 110.1665609  71.7432531  54.0379426  98.6143595  65.1512679  41.0957672
  98.9359436  64.6715761  40.4416934  98.8770538  65.9612325  40.9048483
  98.7009620  65.2002577  40.9713164 101.8440567  76.1731553  54.6156488
 101.3365658  76.7267400  55.0597118 101.5467214  76.2339843  53.7975262
 101.7245452  76.2637864  54.5604944 104.0102750  64.5384873  53.4581151
 104.4357821  64.0857399  52.8464677 103.3959743  63.9844943  53.7345938
 103.9831395  64.3898849  53.4086176  93.5417600  71.4166544  44.3901776
  94.0509829  72.0131052  44.7713081  94.0151872  71.1492518  43.7078195
  93.6860975  71.4652360  44.3456298 104.4548348  80.0894811  42.5460431
 103.7377657  79.9155673  42.0807668 105.1055085  79.8547383  42.0135917
 104.4450198  80.0290603  42.3989649 102.4496972  61.0099972  46.8671728
 101.8065290  60.8597619  47.4356866 102.1096379  60.7642318  46.1020832
 102.3042050  60.9512095  46.8374743 107.0396319  68.9659399  46.2901736
 106.3687509  69.5089102  46.1614802 107.7336069  69.4354255  46.0483431
 107.0425186  69.1157671  46.2357264 101.0883053  81.1056111  51.5213495
 100.8648707  80.3474941  51.8897521 100.5992896  81.1354132  50.7993934
 100.9826502  80.9978336  51.4690235 107.2024446  65.4215283  49.1992109
 107.5552056  64.9945006  49.8737908 106.3439248  65.3366126  49.3293186
 107.1273891  65.3460024  49.3187120  95.9008131  68.0522803  47.2574956
  95.1820120  68.4686935  47.5247820  96.2720494  68.6177041  46.7066594
  95.8500063  68.1972084  47.2157763 105.2007712  68.6850652  53.1476952
 105.1805639  68.5033947  54.0011731 105.2486913  69.5562670  53.1236535
 105.2042353  68.7867190  53.2700246 103.1454042  75.2737844  59.0725428
 103.1049897  74.6287520  58.4870584 103.9577360  75.2174461  59.3850840
 103.2597196  75.1696810  59.0322377  99.7361510  81.3256569  48.9750579
  99.3221908  80.6630700  48.5854421 100.4208884  81.4734428  48.4546273
  99.7759881  81.2497228  48.8407076 103.1026804  80.4846655  49.7274196
 102.7043087  80.5948925  48.9595016 102.4878023  80.6928721  50.3100756
 102.9525693  80.5320223  49.7005495 101.6754706  67.0920803  42.5948335
 101.0819545  67.4137799  42.0432902 101.7129983  66.2461898  42.3869442
 101.5929095  67.0145131  42.4831107 108.6348506  60.5433695  50.1276422
 108.1279371  59.8362834  50.0597599 109.4315940  60.2126884  50.2577499
 108.6775746  60.3906846  50.1375417 104.5512522  67.0500307  46.0250086
 104.3226215  67.0733008  45.1828444 104.8110599  66.2257774  46.1445096
 104.5558710  66.9316387  45.9175283  98.8331751  68.9034780  55.6275186
  98.3210654  68.2955963  55.9860217  98.6611247  69.6191373  56.0949162
  98.7321388  68.9198079  55.7491410  93.6797465  67.3472355  58.2777548
  93.5100056  68.0073730  57.7325754  93.2363415  67.5578917  58.9990037
  93.5896799  67.4758337  58.3039177  97.6057285  65.5876853  47.3204281
  98.0814651  65.9493933  46.6854462  97.1045884  66.2433321  47.6004424
  97.6022644  65.7371042  47.2681022 110.8368646  75.0598621  43.1117286
 111.2202252  75.8089978  43.3415383 110.0412760  75.3064441  42.8529275
 110.7762429  75.2068315  43.1074860 102.7100821  66.8259025  58.0677441
 103.2672251  66.5972834  57.4355907 102.3861886  67.5864690  57.7912654
 102.7447231  66.9042861  57.9333939  90.5799530  70.2519221  53.5366038
  90.0326249  69.5819866  53.6546906  91.3691908  69.8849069  53.6009505
  90.6151714  70.0984207  53.5634738 100.4283938  69.9126678  59.0329449
 101.1795265  70.2278355  59.3469003 100.6206515  69.7105849  58.2063370
 100.5675353  69.9294060  58.9572844  99.6483938  67.7318053  40.6877665
 100.0282903  67.7497682  39.9028780  98.9076534  68.1772042  40.5668513
  99.5952776  67.7999828  40.5541234 107.2769229  66.0400244  46.2753244
 107.2763455  65.8848901  47.1337520 107.0725409  66.8863231  46.2194630
 107.2469006  66.1420865  46.3941183  89.3386499  69.4640029  50.6912061
  89.1608261  69.0116638  51.4166976  89.0505522  70.2666190  50.8750538
  89.2699453  69.5162587  50.8255563 105.0010081  70.7197746  49.9289451
 105.4963746  70.0020741  49.8893471 104.1909856  70.4168544  49.8143938
 104.9553974  70.5695392  49.9063177 100.4468692  74.5695559  42.0786455
  99.6380015  74.2462233  42.0319765 100.9543601  73.8628781  42.0114704
 100.4018359  74.4176876  42.0616750  91.0758969  71.9967752  47.8033820
  90.2104489  71.9853443  47.6916591  91.1757785  71.8097975  48.6504959
  90.9633136  71.9673814  47.9122764 107.0661899  73.4701434  52.6166580
 107.4916971  72.9475855  52.0637005 106.7018819  74.0682271  52.0955203
 107.0748502  73.4811661  52.4575589  96.7015979  81.7665651  51.3763925
  97.0162538  82.5802040  51.3841707  97.1109393  81.3815870  52.0446084
  96.8084077  81.8294353  51.4768017 103.6540499  77.1835698  48.9467737
 104.1251677  77.8975960  49.1157722 103.9900677  76.5834448  49.4827607
 103.7735614  77.2007162  49.0500113 105.7417483  78.7937011  61.1259809
 105.8514449  78.0045572  61.4816556 106.0708380  78.7042947  60.3234147
 105.8069889  78.6642864  61.0602200 100.5709994  61.9563168  55.9025832
 100.7037899  61.1594162  56.2306807 100.9555147  62.4829571  56.4824108
 100.6466323  61.9163085  56.0369335 104.2914445  76.9753632  55.7095430
 103.7435391  76.3511516  55.4415495 104.7527474  77.1647904  54.9939509
 104.2781655  76.9112682  55.5645861 103.6442349  58.8793495  52.5006925
 102.8388313  58.7691224  52.8174763 103.5149084  58.9805950  51.6436791
 103.5062482  58.8777165  52.4214966 107.1008310  65.0438986  53.0946622
 106.5171298  65.5448193  52.6824189 107.4212604  64.5368543  52.4610945
 107.0621485  65.0430822  52.9405129  99.6403109  63.9579581  43.3705297
 100.4618803  64.1277894  43.1286992  99.1772760  64.1126842  42.6471594
  99.6934271  64.0061314  43.2276941  98.2298441  61.9522344  54.1503726
  98.7742854  61.6113470  54.7408067  98.2835376  62.8107805  54.2925010
  98.3187560  62.0277603  54.2585599  94.0428999  75.7138760  51.0242534
  94.6473857  75.6734594  50.3956354  93.8356312  76.5609912  51.0546589
  94.1017897  75.8326762  50.9358650 103.8572771  77.9804705  52.2404771
 104.6771145  77.8367671  52.5021066 103.5766849  78.6050904  52.7821209
 103.9369515  78.0515057  52.3592710  89.2780282  74.6973377  50.8941457
  89.1804560  73.8869649  51.2031513  90.0609151  74.6765170  50.5087725
  89.3796418  74.5740467  50.8828320 120.3286422  85.6369556  45.2047647
 120.2980426  86.4914193  45.3765917 120.9267771  85.3364849  45.7633791
 120.4123580  85.7186053  45.3122450 113.5286107  84.7245207  49.9600578
 112.6724002  84.8853706  50.0109695 113.5753760  83.8537271  49.9805639
 113.4085218  84.6196009  49.9706644 107.9127246  94.2607925  45.7237809
 107.1610146  93.8823464  45.4953854 108.3613258  94.2926359  44.9756620
 107.8676913  94.2093532  45.5795311 116.8379823  90.9931733  59.5661034
 117.5446591  90.4983764  59.6947968 117.0267759  91.4340815  58.8363692
 116.9707729  90.9850083  59.4770079 113.3652206  94.6833295  41.1523356
 113.0303575  95.3610216  40.7167579 113.8779077  94.2938606  40.5640228
 113.3917787  94.7257873  41.0010148 112.9056498  96.6347563  47.0934468
 113.2895877  97.2034462  46.5539243 112.8415639  95.9097074  46.6140284
 112.9529925  96.6123027  46.9428331 116.3737928  86.7837251  52.6032229
 116.9193888  87.4622338  52.6626199 116.3154804  86.6424712  51.7433811
 116.4453842  86.8629253  52.4844290 109.4912003  94.2726317  47.9900582
 109.5922366  93.4626671  48.2997710 108.8953748  94.1783264  47.3600260
 109.4184541  94.1391346  47.9426820 118.1502996  88.2121858  43.4765957
 118.0342522  88.9629545  43.9058095 118.9458883  87.9545812  43.7262044
 118.2507586  88.2856705  43.5770049 109.3312742  99.1903907  49.3915438
 109.9750198  99.6317071  49.7811596 109.6568998  98.3857333  49.3045697
 109.4744571  99.1369101  49.4360915 102.6877047  90.2946604  47.6152915
 102.4527231  89.4614256  47.5085184 102.8262688  90.5751270  46.8014116
 102.6732709  90.2130107  47.4795270 104.9867134  82.4632335  50.5137223
 104.3672166  81.8724982  50.3447238 104.8850998  83.0543770  49.8801546
 104.8804810  82.4636417  50.3942213 110.0333322  92.2015881  44.7635300
 110.3549163  92.7421089  44.1596608 110.6805418  91.6312653  44.8957589
 110.1759377  92.1975057  44.6942335 112.0835030  84.2031876  44.8469686
 112.7815195  84.3820004  45.3391150 112.3987362  83.6802216  44.2240076
 112.2330367  84.1525649  44.8271696 104.7136267  86.0084616  52.7580792
 104.5894964  86.5947062  53.3930611 105.3654552  85.5144812  53.0593067
 104.7909917  86.0223421  52.8966721 112.2722965  90.5902321  44.8349478
 112.7116601  89.9819422  45.2804251 112.1227628  90.2109695  44.0634943
 112.3144431  90.4440793  44.7868645 109.7394608  89.1846333  52.0368303
 110.3843611  88.6918776  51.7179252 109.9796385  89.3271120  52.8634382
 109.8705193  89.1323775  52.1117836 112.2780700  92.0301239  51.6875196
 112.5603943  91.2352645  51.4661952 113.0066860  92.5081827  51.7080257
 112.4270263  91.9835836  51.6578211 110.2561894  79.5724273  48.9290961
 109.9265224  80.0235417  48.2594660 109.5806895  79.4940436  49.4763967
 110.1072330  79.6275408  48.9114184 115.8732302  88.9429503  41.7880247
 115.7883597  89.7990469  41.9329816 116.3616685  88.6673827  42.4562406
 115.9321199  89.0286824  41.9082328 117.4638301  75.5609796  47.1740572
 117.1491742  76.2513275  47.6060994 116.9465243  75.5054578  46.4726072
 117.3402772  75.6544685  47.1337521 116.8050735  85.5614297  43.2877982
 116.2762207  85.7773930  43.9475288 117.3275755  86.2550435  43.2078951
 116.8039188  85.6957434  43.3733581 122.2598788  91.1360601  48.6611027
 121.4296491  91.3471245  48.8244443 122.2108040  90.3097656  48.3853310
 122.1305523  91.0450208  48.6448392 108.6950343  89.4577514  42.0885450
 108.1107558  89.9627545  42.4951314 108.2920438  89.2319901  41.3482042
 108.5489647  89.4985762  42.0390475 104.2494372  95.1732275  48.8909122
 103.7661950  95.8982764  48.8668705 105.0617690  95.4708405  49.0019279
 104.2985119  95.3234629  48.9036401 110.3208526  93.9664456  51.4958936
 109.8035467  93.6071871  50.8920244 111.0182917  93.4426630  51.5065002
 110.3474107  93.8362143  51.4089195 113.9772118  94.4159270  57.4575109
 114.0655463  94.2285410  58.3053319 114.4061830  93.7696699  57.0579956
 114.0534220  94.2922277  57.5246861 111.5442577  93.6990430  56.4392771
 110.9813412  93.2863039  56.9632433 112.3063601  93.6243335  56.8585915
 111.5737026  93.6267830  56.5785772 113.1527557  85.7043166  40.5654371
 113.3923561  85.9121149  39.7529714 113.4743398  84.9000674  40.6743315
 113.2364715  85.6157267  40.4614924 108.4617848  77.6336561  44.4113909
 109.2163816  78.0014879  44.1730959 108.2845382  78.0076116  45.1793088
 108.5472326  77.7434749  44.4898797 107.1038569  95.6888451  49.0429401
 107.8059148  95.1740440  49.1002158 107.0236052  96.0162602  49.8476277
 107.1962329  95.6602677  49.1702194 121.7552746  83.7831002  52.4561448
 120.9181167  83.8533189  52.6909042 121.7240977  83.7855497  51.5835750
 121.6271029  83.7941229  52.3620996 108.1517475  85.9264038  58.1709817
 108.3237979  85.8169932  59.0195098 108.6886833  86.5718443  57.9341009
 108.2562479  86.0056039  58.2614913 106.8174912  80.0406880  41.1092022
 106.6350485  80.2578761  40.2833014 107.6800525  80.1545893  41.1650636
 106.9179502  80.0896778  40.9946509 106.4289344  91.8794803  48.5515009
 107.2678244  92.1117735  48.5988771 106.4601113  91.0099114  48.4822045
 106.5571062  91.7851749  48.5479654 107.0542047  92.2995678  52.8528315
 107.5940272  92.1566809  53.5231687 106.3711994  92.6992429  53.2212341
 107.0334201  92.3375349  53.0062737 112.4974631  77.0433291  44.1441045
 113.2260792  76.8649246  43.6979202 112.5869524  77.8851371  44.3548224
 112.6181294  77.1417170  44.1094563 116.4782932  87.9786679  48.0473339
 117.2340447  88.4118193  48.0862248 116.5845257  87.3291448  48.6207975
 116.6053103  87.9464162  48.1371365 119.5163103  91.8059956  48.7975742
 119.0798335  91.8096698  49.5534714 119.1826019  92.4865455  48.3655320
 119.4025723  91.9072412  48.8456575 114.0892177  93.8468289  60.1218893
 114.8732593  93.9599136  60.4874635 113.8888771  93.0209426  60.3177579
 114.1758202  93.7415008  60.2053279 102.4579192  88.5195969  53.0062737
 102.1917608  87.7035085  53.1653727 102.4717756  88.5649124  52.1358252
 102.4203915  88.4052873  52.9016219 119.4360586  78.8473784  51.0405170
 120.0786495  78.9171888  51.6267086 119.6883607  78.1803006  50.5384712
 119.5682718  78.7600132  51.0532450 106.3636939  83.3181053  39.6214495
 105.6495116  83.0319233  40.0336927 106.8480908  83.6577679  40.2620882
 106.3296303  83.3262703  39.7770130 107.2077799  82.0574347  55.6529744
 106.5149595  81.5871327  55.8990476 107.8238126  81.8312651  56.2271451
 107.1962329  81.9541479  55.7738897 114.2462570  95.7578391  53.7685348
 113.4477816  95.5177891  54.0259217 114.6948582  95.8092784  54.5152396
 114.1937181  95.7300782  53.9170273 122.6507449  88.5240876  47.6895380
 123.3123884  87.9631544  47.5891288 122.0098861  88.0292906  48.0148071
 122.6536317  88.3677285  47.7227720 113.5384257  91.8211007  39.9976303
 113.9535406  91.4896031  39.3060799 112.7076187  91.5879909  39.8696440
 113.4772266  91.7382263  39.8767150 102.8672606  89.3054748  50.2874481
 102.6848179  89.2801634  49.4346773 103.6022275  89.7753686  50.3263390
 102.9486670  89.3716110  50.1672399 118.9372280  89.5406258  47.4307368
 119.1727869  89.6851457  46.6034219 119.0861844  90.3048666  47.8238882
 118.9938083  89.6745312  47.3670972 105.9318358  86.0239751  56.7956589
 106.6558330  86.0092782  57.2821484 106.0334494  86.7335106  56.2978558
 106.0536567  86.1264454  56.7935376 120.7662737  88.3807924  45.2676972
 121.0970954  88.9135564  44.6617067 121.3395825  88.4346812  45.9238923
 120.8996416  88.4677493  45.2754754 113.3063307  89.5038836  61.6605536
 112.5136288  89.8182347  61.8458156 113.4212234  89.7190304  60.8226321
 113.2058718  89.5822672  61.5643871 115.9794626  86.2272827  45.9500552
 116.0741480  86.9662121  46.4040178 115.3553470  85.7990302  46.3835117
 115.9003656  86.2734147  46.0808700 114.2347100  89.4059039  56.5990833
 114.8085962  88.7686284  56.7539397 114.1561904  89.4063122  55.7300491
 114.3080335  89.3124151  56.4937244 102.8343516  86.1848249  50.4373547
 103.4117019  86.0484700  51.0765793 102.1357578  85.7284033  50.6919132
 102.8164538  86.0970515  50.5695837 116.2317647  88.0721567  39.1837504
 116.1497810  88.1423754  40.0492491 116.8697368  88.6351310  38.9921245
 116.3137485  88.1660538  39.2827454 109.5910818  87.8382304  48.6512031
 109.3330063  87.0054039  48.6243330 109.6459301  88.0639917  47.8104531
 109.5610596  87.7480076  48.5232167 114.6711869  79.9410755  48.7516123
 113.9668195  79.4519941  48.9100042 114.7196843  79.9533230  47.8804568
 114.5741920  79.8700403  48.6455463 108.5645531  85.3920067  49.1376925
 107.9895122  85.5512235  49.7740886 108.1881207  84.7555476  48.6745376
 108.4248343  85.3217880  49.1631484 112.2318819  83.8643416  53.9969304
 111.8433252  83.4397634  53.3421495 111.5673518  84.1125566  54.5046330
 112.0765747  83.8382137  53.9757172 121.8742088  83.6218421  46.7717134
 121.6178653  82.8098362  46.5815017 122.7171402  83.6295988  46.5447321
 121.9608114  83.5030418  46.7101951  98.3102350  85.0360142  47.1521366
  98.3962601  84.6592010  47.9334896  98.9378147  84.6620587  46.6741324
  98.4158901  84.9245624  47.1966843 116.0545181  77.5618045  51.5093288
 116.4355693  76.8796216  51.8961162 115.2508465  77.2727647  51.3268952
 115.9921643  77.4185093  51.5397344 113.3357758  88.0942021  42.1946111
 114.1498396  88.3856914  42.0828882 113.2716899  87.4401883  41.6204404
 113.4460497  88.0407216  42.0934948 119.5567248  90.7768017  56.6075686
 119.3205885  89.9456082  56.4887747 120.2010477  90.7253624  57.1930531
 119.6161918  90.6465705  56.6761580 109.2065666  91.5663538  47.3218423
 109.8439613  91.3275286  47.8670216 109.6320737  91.7700697  46.5871583
 109.3641832  91.5614548  47.2935580 103.8978308  93.8051875  51.2052727
 103.9382453  94.0766726  50.3772506 104.4572832  94.3293783  51.6210515
 103.9861654  93.9227630  51.1444615 109.8468481  86.7865828  41.6593312
 110.2313634  86.5673535  42.4109857 109.5980101  87.6128773  41.7894389
 109.8670553  86.8763974  41.7894389 110.0137021  80.0672243  61.3755896
 109.6990462  80.8371806  61.1125459 109.6926954  79.5042499  60.7908123
 109.9195940  80.0982512  61.2497246 120.5803668  90.5612466  52.6703981
 120.2749485  91.2940523  53.0317296 119.8609884  90.1550395  52.3896767
 120.4291011  90.6094199  52.6817118 111.5887138  92.0435961  49.0012209
 111.6626146  91.8811133  49.8554059 112.4056644  92.2326150  48.7572691
 111.7203496  92.0472703  49.0910235 105.3492894  92.3893824  46.0306653
 104.5231012  92.6355561  45.9040931 105.4104886  92.3105905  46.8968711
 105.2367061  92.4138773  46.1395597 107.5668918  78.4562765  46.9902093
 106.6991344  78.5285364  47.0559702 107.8544123  79.2584844  47.1790068
 107.4808666  78.5856912  47.0276859 116.6901807  78.6040624  55.3213415
 117.4355399  78.4150434  54.9076840 116.2739112  79.1298862  54.7627271
 116.7386781  78.6542769  55.1777988 110.1291723  95.0070704  43.7325682
 110.4190022  94.6159685  43.0084909 110.8595204  95.1887409  44.1730958
 110.2798608  94.9764518  43.6908490 124.0664078  85.9749853  50.2718920
 124.6171999  85.3417922  50.5116012 124.0508193  86.5065245  50.9634424
 124.1449274  85.9598801  50.4097778 110.7186469  89.8088450  54.8178813
 110.2198162  90.5204218  54.8963701 111.5286693  90.1289116  54.7796975
 110.7642575  89.9615298  54.8235382 108.0697639  96.9838086  46.7985832
 107.8497934  96.6935441  47.5912499 107.8492161  96.3253041  46.2703745
 108.0045233  96.8437795  46.8374741 106.9814586  89.0711403  49.0641534
 106.6927835  88.4448874  49.5987261 107.8497934  89.0131690  49.1306214
 107.0674838  88.9698947  49.1532488 117.7692484  84.2146186  49.3823516
 117.4257250  83.4936521  49.7330765 117.8685527  84.0060037  48.5401874
 117.7334527  84.0770389  49.3095196 110.2365595  98.3567476  45.5816525
 110.8889653  97.8243919  45.8107551 109.5391203  98.0036129  45.9684399
 110.2296313  98.2256999  45.6728692 107.1846860  90.7106654  44.9883899
 107.9392828  91.0919693  45.2019361 106.5917472  91.1617798  45.4430595
 107.2083573  90.8335481  45.0866777 118.2305513  90.6771890  44.9247504
 118.7963546  91.3365100  44.8406047 117.5833417  91.0221588  45.3963906
 118.2184270  90.8253832  44.9820260 109.6453527  82.6669494  60.1141111
 108.8353302  82.9727274  60.0030954 110.1228213  83.3875077  60.2293695
 109.5957005  82.8184095  60.1148182 108.5045086  91.8815215  50.3624014
 107.9825840  92.0215507  51.0475879 108.8919107  91.1225880  50.5526132
 108.4848787  91.7900739  50.4925091 105.4936270  81.9321024  44.4318969
 105.2061066  81.5622294  43.6950916 106.1806739  82.4015879  44.1702674
 105.5525168  81.9467993  44.2834045 114.7012091  93.6210674  44.3484583
 114.4598767  92.8878535  43.9411648 114.8813424  94.1697531  43.6950916
 114.6919715  93.5933066  44.1914806 109.9311412  88.9119234  45.7605505
 109.7354194  89.5193969  45.1665808 110.1545757  88.2187178  45.2797179
 109.9346053  88.8996760  45.6021586 108.3289942  85.7973972  45.8786374
 109.0512594  85.9615130  45.4190180 107.8497935  86.5183637  45.7725713
 108.3653673  85.9272202  45.7951988 116.2883449  82.1337771  51.2583059
 115.4494550  82.1599050  51.0221322 116.3587817  82.7808506  51.8388405
 116.1751843  82.2333897  51.3092176 105.9797559  88.2032045  54.9840514
 106.4918655  88.4816298  54.3349273 105.6933901  88.9421339  55.3503327
 106.0132422  88.3534398  54.9430392 114.7352728  79.0323148  45.9910675
 115.4379081  78.8330896  45.5130633 114.4696916  78.2599090  46.2979518
 114.7999360  78.8886114  45.9656116 120.1640973  87.3405758  48.5444300
 120.0774948  87.4961184  49.3979079 119.7091453  87.9843833  48.1703705
 120.0844230  87.4581513  48.6151407 103.0664465  82.7102236  45.2804250
 103.1680601  83.5128398  45.6085226 103.8620352  82.5089572  44.9827331
 103.1992371  82.7988135  45.2839605 109.4981284  80.2958433  55.0441555
 109.3064481  80.3113568  55.8940979 110.3479880  80.4922107  55.0208210
 109.5957006  80.3272784  55.1664850 103.8828197  82.8249415  53.0225372
 103.7413689  81.9733355  53.1469880 104.1668760  82.8678075  52.1987578
 103.9036043  82.7049165  52.9192996 114.0366789  84.6616505  47.1669860
 113.7901504  84.5812256  48.0006649 114.3651912  83.8769973  46.9732387
 114.0488033  84.5342770  47.2617383 117.9314838  91.3699864  50.9556641
 117.7929197  92.0680910  51.4605384 117.1514836  91.2148521  50.5992823
 117.7958065  91.4500031  50.9782915 116.2692923  87.6696240  57.2079023
 116.2640962  86.7976056  57.2121449 116.9753917  87.8684409  56.7348479
 116.3737927  87.5700114  57.1386058 109.9963817  87.3973223  56.5792843
 110.1407192  87.9774432  55.9435953 110.3439465  87.7749520  57.2842698
 110.0691278  87.5393927  56.5891838 112.1683734  86.5963392  54.3617975
 111.4207048  86.7894406  53.9566253 112.3225259  85.7708611  54.1242096
 112.0806162  86.5028503  54.2663380 109.0691572  95.5875995  53.4453870
 109.2181135  95.0278911  52.7927274 109.8491574  95.6667997  53.8286389
 109.2065665  95.5161561  53.4050819 119.4268211  90.7278118  41.7173140
 119.0475020  89.9415256  41.7102430 118.7634456  91.2764975  41.5744785
 119.2726686  90.6922942  41.6953937 111.5944872  95.7590638  54.7238361
 111.5188543  95.0899449  55.2789149 111.5234731  96.4608426  55.2379027
 111.5725479  95.7635545  54.8815209 112.4085511  80.4913943  55.2513378
 112.8658125  81.2237917  55.3786171 112.4841840  80.0680408  56.0100634
 112.4876481  80.5371181  55.3814455 104.6518502  80.7379762  56.3402822
 104.1160692  80.1260120  56.6563589 104.7136267  81.3127898  56.9936489
 104.5814135  80.7326690  56.4838249 116.8812837  73.6703818  49.1207221
 116.9996405  74.1280281  48.3874524 116.7075013  72.8649079  48.8343439
 116.8732008  73.6197590  48.9708155 112.2515119  94.2791637  45.5561967
 113.0165010  94.0101281  45.2344631 112.1493209  93.7941647  46.2732029
 112.3496615  94.1681202  45.6141794 110.2867889  82.4816046  52.0955202
 109.4963964  82.3007507  52.4172538 110.6828512  81.7042999  52.0785497
 110.2284765  82.3403507  52.1407751 114.7733780  91.3103821  37.5361916
 115.5406765  91.3703946  37.1267768 114.3265089  90.7384262  37.0518234
 114.8207207  91.2340396  37.4039626 115.6711575  90.1158477  49.8214648
 114.9956577  89.8843709  50.3228035 115.6803951  89.5079660  49.1956753
 115.5730080  89.9917402  49.8030801 112.8005719  84.9576306  56.5778701
 112.7364860  85.8186262  56.4498838 112.9402907  84.6408299  55.7774253
 112.8121189  85.0376472  56.4406914 117.6728310  92.9723609  42.0524826
 117.7548147  93.7790595  41.7286277 118.1578052  92.9919568  42.7765600
 117.7565468  93.0944271  42.1111725 111.4824813  87.6508445  50.7194904
 111.0587062  87.8512944  49.9833923 111.3069668  86.8037293  50.8319204
 111.3935694  87.5557226  50.6268594 110.9836507  99.1658958  53.1816361
 111.4732437  98.4669747  52.9992026 110.4120739  98.8682828  53.7692419
 110.9721036  99.0185182  53.2417402 106.7707258  88.1460496  46.1522877
 106.9271877  88.0807299  47.0078869 107.1107851  88.9209049  45.9401556
 106.8440493  88.2509694  46.2477471 113.3086403  87.5218380  45.0216240
 113.8501948  87.0188761  45.4854860 113.6232962  87.4683575  44.2105725
 113.4350800  87.4397801  44.9700052 117.1803510  91.7321027  62.1343152
 117.9938375  91.4606176  62.2948285 117.0198476  91.4328567  61.3303348
 117.2773459  91.6475953  62.0388558 111.4772852  92.9135731  42.3056268
 111.5465673  92.0550270  42.4449268 112.2561308  93.1307612  41.9775293
 111.6025702  92.8188595  42.2773425 114.4575672  82.4154684  55.0738540
 114.6717642  81.7765599  54.5201894 113.8409571  82.8600508  54.6446402
 114.3981001  82.3864828  54.9288971 115.8680340  95.3373433  46.5192761
 115.4760132  95.0340148  45.8015627 116.0233412  96.1742523  46.3297715
 115.8333930  95.4157269  46.3849258 103.3441520  85.3295447  46.4683644
 103.7240484  85.7479992  45.8043911 102.7696884  85.9108903  46.7752487
 103.3152844  85.4773306  46.4160385 116.6214760  84.0243750  56.0121847
 115.8091442  83.7169640  56.0935020 117.0804695  83.5442750  56.5764560
 116.5695145  83.9080242  56.1076442 116.0320015  91.9023422  46.4598792
 115.6734669  92.0738064  47.2362824 115.5458726  92.3636627  45.9026790
 115.9078712  91.9962393  46.4924061 113.8490401  75.5254620  50.0625883
 112.9783959  75.4993341  50.0159193 114.1030742  75.3531812  49.2451729
 113.7583961  75.4964764  49.9346020 110.8208380  87.5822587  38.9999026
 111.1100905  88.3587470  39.2742600 110.9080179  87.0711318  39.7013526
 110.8762636  87.6214505  39.1441524 113.7168268  85.4303821  60.7950550
 114.1867899  86.0545937  61.1818424 113.7630148  84.7620797  61.3543764
 113.7936143  85.4238501  60.9350621 110.8739541  77.5360849  51.5199354
 110.3578030  76.8441040  51.6450933 110.3133470  78.2031626  51.4661952
 110.7146054  77.5324106  51.5305420 112.9431775  78.0753809  53.3492206
 112.5563528  78.1002840  54.1305736 112.4564712  77.5095487  52.8966723
 112.8144284  77.9949559  53.3980110 117.1924754  92.7927318  57.4065993
 117.8304475  92.2987513  57.0728449 116.5498846  92.7204718  56.8218220
 117.1918981  92.7086326  57.2708348 118.9181754  84.6416464  51.9731908
 118.4909362  84.5542812  51.2180008 118.2807807  84.7494239  52.5586752
 118.7611361  84.6449123  51.9477350 112.6088916  74.9620794  55.6402466
 113.2382034  75.4981094  55.3623536 112.7774779  74.8698153  56.4916032
 112.7266711  75.0282156  55.7250994 112.4102831  79.7491989  57.9128878
 113.2376261  79.4777138  57.9687492 112.4310677  80.5452830  58.2692696
 112.5355681  79.8271743  57.9744061 117.2479011  93.4847126  54.0471349
 118.0371389  93.1336191  54.1673431 117.4222609  94.2983514  53.7847983
 117.3899292  93.5532983  54.0259217 106.9872321  86.8955852  51.0999138
 106.1460328  86.7959726  51.3078032 107.1962329  87.6651332  51.4513459
 106.8937014  86.9947895  51.1826453 104.4647888  84.5175389  48.9283889
 104.0704586  84.5918400  48.1533999 103.9088005  84.9033335  49.4792251
 104.3250700  84.5857163  48.8951549 116.1012835  77.4956683  48.6087768
 116.3062428  77.4278990  49.4544765 115.7739259  78.3015504  48.5408945
 116.0828083  77.6042623  48.7247423 110.7988986  84.8237251  50.3496736
 110.4952123  84.2693239  50.9507143 110.0968407  85.0029461  49.8624770
 110.6505196  84.7682033  50.3666441 109.8555083  82.1337771  44.9141438
 110.1314817  81.4156683  44.5019005 110.4553752  82.7322690  44.7062544
 109.9848348  82.1158141  44.8222199 108.8607337  92.0386971  55.0568834
 108.7527692  92.0489034  55.9230892 109.0703118  92.8641752  54.8673787
 108.8757448  92.1628046  55.1572925 119.3546523  78.0488447  48.0890533
 118.7420836  78.5358849  48.4744265 119.4510697  77.3731938  48.6328184
 119.2784420  78.0206756  48.2269392 113.3565604  79.8051288  43.1888033
 113.8109350  79.9761848  43.9135877 113.8305649  79.1919399  42.7885808
 113.4933924  79.7402173  43.2361794 106.8781129  89.2899614  52.5190771
 106.2869062  89.9309112  52.4893786 107.6402153  89.7137231  52.4922071
 106.9029390  89.4475452  52.5105918 107.2741752  80.4501612  53.1858789
 107.7343233  80.5240541  53.9233913 107.3197858  81.2482866  52.8358610
 107.3492307  80.5795759  53.2431545 108.9225102  81.1168307  57.7530816
 108.5310667  80.4701654  58.1886594 109.0910964  81.7079742  58.3725071
 108.8896012  81.1082574  57.9093522 122.9971551  89.1205384  53.5168049
 123.0554674  89.5692032  54.2628026 122.3638018  89.5304196  53.0798129
 122.9122846  89.2479118  53.5620598 116.6370645  94.7408925  49.9522796
 116.4390334  95.2299740  49.2579007 116.0158356  94.9450167  50.5306929
 116.5158210  94.8425464  49.9346019 110.6978624  86.5093822  44.2933040
 111.4420669  86.8968099  44.5315990 110.8439320  85.6651248  44.4573528
 110.8289209  86.4424295  44.3527010 112.6158199  78.3044081  49.3264901
 111.7694244  78.4766889  49.2006251 112.6129331  77.4993425  49.6630730
 112.4905349  78.2105110  49.3576028 113.6856499  82.0819296  50.1926959
 113.2116454  81.5561058  50.7032270 114.0574635  81.5348768  49.6241821
 113.6706388  81.9235292  50.1842106 104.0629530  84.0790802  55.5610505
 104.9255143  83.9786512  55.4747835 103.7321313  83.4985512  54.9996077
 104.1414726  83.9782429  55.4655911 119.9493230  87.1421671  51.6033740
 119.7091453  86.3028086  51.6076166 120.4285237  87.2221838  52.3274513
 119.9845414  87.0303071  51.7108542 115.6139999  82.9755850  43.2552713
 115.0863018  83.0584594  42.5658422 116.0735707  83.7173722  43.2517358
 115.6041850  83.0976513  43.1527408 121.9498417  83.9223128  49.5562999
 121.7108187  83.8818963  48.7183783 122.1132318  84.7694281  49.6828720
 121.9388720  84.0415213  49.4516481 118.5544447  88.3073078  55.4868044
 119.2778646  87.8545604  55.3079064 118.2894409  88.5877743  54.7040372
 118.6225720  88.2824046  55.3446759 107.4231316  82.9033251  52.2220923
 106.7984386  82.9151643  51.6146876 107.0876910  83.3793426  52.8712163
 107.2816807  82.9751768  52.2277492 107.6073064  81.2458370  38.2793608
 107.2585869  81.8978095  38.7425158 107.1269510  81.2315483  37.5517479
 107.4843308  81.3401423  38.2404699 104.1356991  90.9633711  53.6624687
 103.6056916  90.2726150  53.7119662 104.4082084  90.9543897  52.8337396
 104.0981713  90.8600843  53.5472103 115.1677082  91.5459414  42.3862370
 115.8911280  92.0117527  42.2426943 114.7277673  91.6133023  41.6359967
 115.2092774  91.6243250  42.2547151 114.3363237  88.4056956  53.6363059
 113.7220230  87.8615006  53.9311694 114.8530522  87.8921192  53.1568875
 114.3218899  88.2493365  53.6087287 113.5759534  89.4761226  51.3707358
 113.1487142  88.8510945  50.9372793 113.5684478  89.1936148  52.1966365
 113.5118675  89.3414007  51.4287185 106.6922061  84.5126399  54.4395792
 106.8515548  83.7569723  54.8447514 106.5114955  85.0617339  55.0936529
 106.6887420  84.4820213  54.5958498 114.6342364  76.6787635  54.9946581
 114.1382925  76.8751309  54.3038148 115.3911426  77.0780303  54.8235383
 114.6729189  76.7665368  54.8666718 111.9045243  80.3529981  51.5849892
 111.9287731  79.8190093  50.8962672 112.1556717  79.8447289  52.2475482
 111.9455162  80.1990885  51.5814536  99.4152833  87.6361476  51.0193036
  99.3096282  87.5908320  50.1545120  98.6653053  87.9815256  51.3007321
  99.2888436  87.6802384  50.9330365 108.1846566  79.0800799  50.9655636
 108.2244937  79.5810005  51.6790343 107.3596230  79.1711193  50.6961559
 108.0686092  79.1682615  51.0306174 110.3676179  88.6461539  59.0675931
 109.5171809  88.7833253  59.2033576 110.5304306  87.9125317  59.5123632
 110.2660042  88.5575640  59.1531530 109.6060929  85.5961309  53.2629535
 108.7752859  85.7635127  53.0564783 109.5512446  85.2197259  54.0478420
 109.4750344  85.5651040  53.3478063 107.4144712  79.0870202  58.8985946
 108.0397416  78.5432334  59.1715378 106.9595192  78.6065119  58.3293736
 107.4392973  78.9359683  58.8547540 107.9796973  83.8716900  43.7919653
 108.1199934  84.3689364  44.4948294 108.4779506  83.1703195  43.9333866
 108.0738054  83.8418879  43.9171232 108.0097195  84.7384011  41.1212230
 108.6442275  85.3344436  41.0561691 108.0922806  84.4387469  41.9358100
 108.1153746  84.7824919  41.2315316 120.9879761  87.2699489  53.9898594
 121.5797601  87.9096739  54.0216792 121.4238756  86.5722525  54.2790661
 121.1398192  87.2617839  54.0379426 109.5876178  80.6697987  41.0957672
 109.9092019  80.1901069  40.4416934 109.8503122  81.4797633  40.9048483
 109.6742204  80.7187885  40.9713164 112.8173151  91.6916861  54.6156488
 112.3098242  92.2452708  55.0597118 112.5199797  91.7525151  53.7975262
 112.6978036  91.7823172  54.5604944 114.9835333  80.0570181  53.4581151
 115.4090405  79.6042707  52.8464677 114.3692326  79.5030251  53.7345938
 114.9563979  79.9084157  53.4086176 104.5150183  86.9351852  44.3901776
 105.0242413  87.5316360  44.7713081 104.9884455  86.6677826  43.7078195
 104.6593559  86.9837667  44.3456298 115.4280931  95.6080119  42.5460431
 114.7110241  95.4340981  42.0807668 116.0787669  95.3732691  42.0135917
 115.4182782  95.5475911  42.3989649 113.4229556  76.5285280  46.8671728
 112.7797874  76.3782927  47.4356866 113.0828963  76.2827626  46.1020832
 113.2774633  76.4697403  46.8374743 118.0128902  84.4844707  46.2901736
 117.3420092  85.0274409  46.1614802 118.7068653  84.9539563  46.0483431
 118.0157770  84.6342978  46.2357264 112.0615636  96.6241419  51.5213495
 111.8381291  95.8660248  51.8897521 111.5725480  96.6539440  50.7993934
 111.9559085  96.5163644  51.4690235 118.1757030  80.9400591  49.1992109
 118.5284640  80.5130314  49.8737908 117.3171831  80.8551434  49.3293186
 118.1006475  80.8645332  49.3187120 106.8740715  83.5708111  47.2574956
 106.1552704  83.9872243  47.5247820 107.2453077  84.1362349  46.7066594
 106.8232647  83.7157392  47.2157763 116.1740296  84.2035959  53.1476952
 116.1538223  84.0219255  54.0011731 116.2219496  85.0747978  53.1236535
 116.1774937  84.3052498  53.2700246 114.1186626  90.7923151  59.0725428
 114.0782480  90.1472828  58.4870584 114.9309944  90.7359769  59.3850840
 114.2329779  90.6882118  59.0322377 110.7094093  96.8441877  48.9750579
 110.2954492  96.1816008  48.5854421 111.3941467  96.9919736  48.4546273
 110.7492465  96.7682536  48.8407076 114.0759387  96.0031963  49.7274196
 113.6775671  96.1134233  48.9595016 113.4610607  96.2114029  50.3100756
 113.9258277  96.0505531  49.7005495 112.6487289  82.6106110  42.5948335
 112.0552129  82.9323107  42.0432902 112.6862567  81.7647206  42.3869442
 112.5661678  82.5330439  42.4831107 119.6081090  76.0619003  50.1276422
 119.1011955  75.3548142  50.0597599 120.4048524  75.7312192  50.2577499
 119.6508329  75.9092154  50.1375417 115.5245106  82.5685615  46.0250086
 115.2958799  82.5918316  45.1828444 115.7843182  81.7443082  46.1445096
 115.5291294  82.4501695  45.9175283 109.8064334  84.4220088  55.6275186
 109.2943237  83.8141271  55.9860217 109.6343830  85.1376681  56.0949162
 109.7053971  84.4383387  55.7491410 104.6530049  82.8657663  58.2777548
 104.4832639  83.5259038  57.7325754 104.2095999  83.0764225  58.9990037
 104.5629383  82.9943645  58.3039177 108.5789868  81.1062161  47.3204281
 109.0547235  81.4679241  46.6854462 108.0778468  81.7618629  47.6004424
 108.5755227  81.2556350  47.2681022 121.8101230  90.5783929  43.1117286
 122.1934836  91.3275285  43.3415383 121.0145343  90.8249749  42.8529275
 121.7495012  90.7253623  43.1074860 113.6833405  82.3444333  58.0677441
 114.2404835  82.1158142  57.4355907 113.3594470  83.1049998  57.7912654
 113.7179815  82.4228169  57.9333939 101.5532114  85.7704529  53.5366038
 101.0058833  85.1005174  53.6546906 102.3424492  85.4034377  53.6009505
 101.5884297  85.6169515  53.5634738 111.4016522  85.4311986  59.0329449
 112.1527849  85.7463663  59.3469003 111.5939098  85.2291157  58.2063370
 111.5407936  85.4479368  58.9572844 110.6216522  83.2503361  40.6877665
 111.0015486  83.2682990  39.9028780 109.8809118  83.6957350  40.5668513
 110.5685359  83.3185136  40.5541234 118.2501812  81.5585552  46.2753244
 118.2496038  81.4034209  47.1337520 118.0457992  82.4048539  46.2194630
 118.2201590  81.6606173  46.3941183 100.3119083  84.9825337  50.6912061
 100.1340844  84.5301946  51.4166976 100.0238105  85.7851498  50.8750538
 100.2432036  85.0347894  50.8255563 115.9742664  86.2383054  49.9289451
 116.4696329  85.5206049  49.8893471 115.1642440  85.9353852  49.8143938
 115.9286557  86.0880700  49.9063177 111.4201276  90.0880867  42.0786455
 110.6112598  89.7647541  42.0319765 111.9276185  89.3814089  42.0114704
 111.3750942  89.9362184  42.0616750 102.0491553  87.5153060  47.8033820
 101.1837072  87.5038751  47.6916591 102.1490369  87.3283283  48.6504959
 101.9365720  87.4859122  47.9122764 118.0394483  88.9886742  52.6166580
 118.4649555  88.4661163  52.0637005 117.6751403  89.5867579  52.0955203
 118.0481086  88.9996969  52.4575589 107.6748563  97.2850959  51.3763925
 107.9895122  98.0987347  51.3841707 108.0841976  96.9001178  52.0446084
 107.7816661  97.3479661  51.4768017 114.6273082  92.7021006  48.9467737
 115.0984261  93.4161268  49.1157722 114.9633261  92.1019756  49.4827607
 114.7468197  92.7192470  49.0500113 116.7150067  94.3122319  61.1259809
 116.8247032  93.5230880  61.4816556 117.0440964  94.2228255  60.3234147
 116.7802473  94.1828172  61.0602200 111.5442577  77.4748476  55.9025832
 111.6770483  76.6779470  56.2306807 111.9287730  78.0014879  56.4824108
 111.6198906  77.4348393  56.0369335 115.2647029  92.4938940  55.7095430
 114.7167975  91.8696824  55.4415495 115.7260057  92.6833212  54.9939509
 115.2514238  92.4297990  55.5645861 114.6174933  74.3978803  52.5006925
 113.8120896  74.2876532  52.8174763 114.4881668  74.4991258  51.6436791
 114.4795065  74.3962473  52.4214966 118.0740893  80.5624294  53.0946622
 117.4903882  81.0633501  52.6824189 118.3945187  80.0553851  52.4610945
 118.0354068  80.5616129  52.9405129 110.6135692  79.4764889  43.3705297
 111.4351387  79.6463202  43.1286992 110.1505343  79.6312150  42.6471594
 110.6666855  79.5246622  43.2276941 109.2031024  77.4707651  54.1503726
 109.7475437  77.1298778  54.7408067 109.2567960  78.3293113  54.2925010
 109.2920144  77.5462911  54.2585599 105.0161583  91.2324067  51.0242534
 105.6206440  91.1919902  50.3956354 104.8088895  92.0795219  51.0546589
 105.0750480  91.3512070  50.9358650 114.8305355  93.4990013  52.2404771
 115.6503729  93.3552979  52.5021066 114.5499433  94.1236212  52.7821209
 114.9102098  93.5700365  52.3592710 100.2512865  90.2158685  50.8941457
 100.1537143  89.4054956  51.2031513 101.0341735  90.1950478  50.5087725
 100.3529002  90.0925775  50.8828320 124.5018690 100.2430515  49.9600578
 123.6456586 100.4039014  50.0109695 124.5486344  99.3722579  49.9805639
 124.3817802 100.1381317  49.9706644 118.8859830 109.7793233  45.7237809
 118.1342730 109.4008772  45.4953854 119.3345842 109.8111667  44.9756620
 118.8409497 109.7278840  45.5795311 120.4644586 109.7911625  47.9900582
 120.5654949 108.9811979  48.2997710 119.8686331 109.6968572  47.3600260
 120.3917125 109.6576653  47.9426820 113.6609630 105.8131912  47.6152915
 113.4259815 104.9799564  47.5085184 113.7995271 106.0936578  46.8014116
 113.6465293 105.7315415  47.4795270 115.9599718  97.9817643  50.5137223
 115.3404750  97.3910290  50.3447238 115.8583582  98.5729078  49.8801546
 115.8537393  97.9821725  50.3942213 121.0065905 107.7201189  44.7635300
 121.3281747 108.2606397  44.1596608 121.6538002 107.1497961  44.8957589
 121.1491961 107.7160365  44.6942335 123.0567614  99.7217184  44.8469686
 123.7547778  99.9005312  45.3391150 123.3719946  99.1987524  44.2240076
 123.2062951  99.6710956  44.8271696 115.6868851 101.5269924  52.7580792
 115.5627548 102.1132370  53.3930611 116.3387135 101.0330120  53.0593067
 115.7642500 101.5408729  52.8966721 123.2455549 106.1087629  44.8349478
 123.6849184 105.5004730  45.2804251 123.0960212 105.7295003  44.0634943
 123.2877015 105.9626100  44.7868645 120.7127192 104.7031641  52.0368303
 121.3576194 104.2104084  51.7179252 120.9528969 104.8456428  52.8634382
 120.8437777 104.6509083  52.1117836 123.2513283 107.5486547  51.6875196
 123.5336526 106.7537953  51.4661952 123.9799444 108.0267135  51.7080257
 123.4002847 107.5021144  51.6578211 121.2294477  95.0909581  48.9290961
 120.8997807  95.5420725  48.2594660 120.5539479  95.0125744  49.4763967
 121.0804913  95.1460716  48.9114184 119.6682927 104.9762822  42.0885450
 119.0840142 105.4812853  42.4951314 119.2653022 104.7505209  41.3482042
 119.5222230 105.0171070  42.0390475 115.2226955 110.6917583  48.8909122
 114.7394533 111.4168072  48.8668705 116.0350273 110.9893713  49.0019279
 115.2717703 110.8419936  48.9036401 121.2941109 109.4849763  51.4958936
 120.7768051 109.1257178  50.8920244 121.9915500 108.9611938  51.5065002
 121.3206690 109.3547451  51.4089195 122.5175161 109.2175737  56.4392771
 121.9545996 108.8048347  56.9632433 123.2796184 109.1428643  56.8585915
 122.5469610 109.1453138  56.5785772 124.1260141 101.2228474  40.5654371
 124.3656145 101.4306457  39.7529714 124.4475982 100.4185982  40.6743315
 124.2097299 101.1342575  40.4614924 119.4350431  93.1521869  44.4113909
 120.1896399  93.5200186  44.1730959 119.2577966  93.5261424  45.1793088
 119.5204910  93.2620057  44.4898797 118.0771152 111.2073759  49.0429401
 118.7791732 110.6925748  49.1002158 117.9968635 111.5347910  49.8476277
 118.1694913 111.1787985  49.1702194 119.1250059 101.4449346  58.1709817
 119.2970563 101.3355240  59.0195098 119.6619416 102.0903751  57.9341009
 119.2295063 101.5241347  58.2614913 117.7907496  95.5592188  41.1092022
 117.6083069  95.7764069  40.2833014 118.6533109  95.6731201  41.1650636
 117.8912085  95.6082086  40.9946509 117.4021928 107.3980111  48.5515009
 118.2410827 107.6303043  48.5988771 117.4333697 106.5284422  48.4822045
 117.5303645 107.3037057  48.5479654 118.0274631 107.8180986  52.8528315
 118.5672856 107.6752117  53.5231687 117.3444577 108.2177737  53.2212341
 118.0066785 107.8560657  53.0062737 123.4707215  92.5618599  44.1441045
 124.1993375  92.3834554  43.6979202 123.5602108  93.4036679  44.3548224
 123.5913877  92.6602477  44.1094563 113.4311776 104.0381277  53.0062737
 113.1650191 103.2220393  53.1653727 113.4450340 104.0834432  52.1358252
 113.3936498 103.9238181  52.9016219 117.3369523  98.8366361  39.6214495
 116.6227700  98.5504541  40.0336927 117.8213492  99.1762987  40.2620882
 117.3028886  98.8448011  39.7770130 118.1810382  97.5759655  55.6529744
 117.4882179  97.1056635  55.8990476 118.7970710  97.3497959  56.2271451
 118.1694912  97.4726787  55.7738897 124.5116841 107.3396315  39.9976303
 124.9267989 107.0081339  39.3060799 123.6808770 107.1065217  39.8696440
 124.4504850 107.2567571  39.8767150 113.8405190 104.8240056  50.2874481
 113.6580763 104.7986942  49.4346773 114.5754858 105.2938994  50.3263390
 113.9219253 104.8901418  50.1672399 116.9050941 101.5425059  56.7956589
 117.6290914 101.5278090  57.2821484 117.0067078 102.2520414  56.2978558
 117.0269150 101.6449762  56.7935376 124.2795891 105.0224143  61.6605536
 123.4868871 105.3367655  61.8458156 124.3944818 105.2375612  60.8226321
 124.1791301 105.1007980  61.5643871 125.2079683 104.9244347  56.5990833
 125.7818545 104.2871591  56.7539397 125.1294487 104.9248430  55.7300491
 125.2812918 104.8309459  56.4937244 113.8076100 101.7033557  50.4373547
 114.3849603 101.5670007  51.0765793 113.1090162 101.2469341  50.6919132
 113.7897121 101.6155823  50.5695837 120.5643402 103.3567612  48.6512031
 120.3062646 102.5239347  48.6243330 120.6191885 103.5825225  47.8104531
 120.5343180 103.2665384  48.5232167 125.6444452  95.4596063  48.7516123
 124.9400779  94.9705249  48.9100042 125.6929427  95.4718537  47.8804568
 125.5474504  95.3885711  48.6455463 119.5378114 100.9105375  49.1376925
 118.9627705 101.0697543  49.7740886 119.1613791 100.2740784  48.6745376
 119.3980927 100.8403188  49.1631484 123.2051403  99.3828724  53.9969304
 122.8165836  98.9582942  53.3421495 122.5406101  99.6310874  54.5046330
 123.0498331  99.3567445  53.9757172 109.2834933 100.5545450  47.1521366
 109.3695185 100.1777318  47.9334896 109.9110731 100.1805895  46.6741324
 109.3891484 100.4430932  47.1966843 124.3090341 103.6127329  42.1946111
 125.1230980 103.9042222  42.0828882 124.2449482 102.9587191  41.6204404
 124.4193080 103.5592523  42.0934948 120.1798249 107.0848846  47.3218423
 120.8172196 106.8460594  47.8670216 120.6053321 107.2886005  46.5871583
 120.3374416 107.0799856  47.2935580 114.8710892 109.3237183  51.2052727
 114.9115037 109.5952034  50.3772506 115.4305416 109.8479091  51.6210515
 114.9594238 109.4412938  51.1444615 120.8201064 102.3051136  41.6593312
 121.2046217 102.0858843  42.4109857 120.5712685 103.1314081  41.7894389
 120.8403137 102.3949282  41.7894389 120.9869605  95.5857551  61.3755896
 120.6723046  96.3557114  61.1125459 120.6659537  95.0227807  60.7908123
 120.8928524  95.6167820  61.2497246 122.5619721 107.5621269  49.0012209
 122.6358730 107.3996441  49.8554059 123.3789228 107.7511458  48.7572691
 122.6936080 107.5658011  49.0910235 116.3225478 107.9079132  46.0306653
 115.4963596 108.1540869  45.9040931 116.3837469 107.8291212  46.8968711
 116.2099645 107.9324081  46.1395597 118.5401502  93.9748073  46.9902093
 117.6723927  94.0470672  47.0559702 118.8276706  94.7770152  47.1790068
 118.4541250  94.1042220  47.0276859 121.6919052 105.3273758  54.8178813
 121.1930746 106.0389525  54.8963701 122.5019277 105.6474424  54.7796975
 121.7375159 105.4800606  54.8235382 117.9547170 104.5896711  49.0641534
 117.6660418 103.9634182  49.5987261 118.8230518 104.5316998  49.1306214
 118.0407422 104.4884255  49.1532488 118.1579443 106.2291962  44.9883899
 118.9125411 106.6105001  45.2019361 117.5650056 106.6803105  45.4430595
 118.1816157 106.3520789  45.0866777 120.6186110  98.1854802  60.1141111
 119.8085886  98.4912582  60.0030954 121.0960797  98.9060385  60.2293695
 120.5689589  98.3369403  60.1148182 119.4777670 107.4000523  50.3624014
 118.9558423 107.5400815  51.0475879 119.8651690 106.6411187  50.5526132
 119.4581371 107.3086047  50.4925091 116.4668854  97.4506332  44.4318969
 116.1793650  97.0807602  43.6950916 117.1539322  97.9201187  44.1702674
 116.5257751  97.4653301  44.2834045 120.9043995 104.4304542  45.7605505
 120.7086778 105.0379277  45.1665808 121.1278341 103.7372486  45.2797179
 120.9078636 104.4182068  45.6021586 119.3022525 101.3159280  45.8786374
 120.0245177 101.4800438  45.4190180 118.8230518 102.0368945  45.7725713
 119.3386256 101.4457510  45.7951988 116.9530142 103.7217353  54.9840514
 117.4651239 104.0001606  54.3349273 116.6666485 104.4606647  55.3503327
 116.9865005 103.8719706  54.9430392 114.0397048  98.2287544  45.2804250
 114.1413185  99.0313706  45.6085226 114.8352935  98.0274880  44.9827331
 114.1724954  98.3173443  45.2839605 120.4713868  95.8143741  55.0441555
 120.2797065  95.8298876  55.8940979 121.3212463  96.0107415  55.0208210
 120.5689589  95.8458092  55.1664850 114.8560781  98.3434723  53.0225372
 114.7146272  97.4918663  53.1469880 115.1401344  98.3863383  52.1987578
 114.8768627  98.2234473  52.9192996 125.0099373 100.1801813  47.1669860
 124.7634087 100.0997564  48.0006649 125.3384496  99.3955281  46.9732387
 125.0220616 100.0528078  47.2617383 120.9696400 102.9158531  56.5792843
 121.1139776 103.4959740  55.9435953 121.3172049 103.2934828  57.2842698
 121.0423862 103.0579235  56.5891838 123.1416318 102.1148700  54.3617975
 122.3939632 102.3079714  53.9566253 123.2957843 101.2893919  54.1242096
 123.0538745 102.0213811  54.2663380 123.3818095  96.0099250  55.2513378
 123.8390709  96.7423225  55.3786171 123.4574423  95.5865716  56.0100634
 123.4609064  96.0556489  55.3814455 115.6251086  96.2565070  56.3402822
 115.0893275  95.6445428  56.6563589 115.6868851  96.8313206  56.9936489
 115.5546718  96.2511998  56.4838249 121.2600472  98.0001354  52.0955202
 120.4696547  97.8192815  52.4172538 121.6561095  97.2228307  52.0785497
 121.2017349  97.8588815  52.1407751 123.7738303 100.4761614  56.5778701
 123.7097444 101.3371570  56.4498838 123.9135491 100.1593607  55.7774253
 123.7853773 100.5561780  56.4406914 122.4557397 103.1693753  50.7194904
 122.0319646 103.3698252  49.9833923 122.2802252 102.3222601  50.8319204
 122.3668277 103.0742534  50.6268594 117.7439842 103.6645804  46.1522877
 117.9004461 103.5992607  47.0078869 118.0840435 104.4394357  45.9401556
 117.8173076 103.7695002  46.2477471 124.2818986 103.0403688  45.0216240
 124.8234532 102.5374069  45.4854860 124.5965545 102.9868883  44.2105725
 124.4083383 102.9583109  44.9700052 122.4505436 108.4321039  42.3056268
 122.5198256 107.5735578  42.4449268 123.2293891 108.6492920  41.9775293
 122.5758286 108.3373903  42.2773425 125.4308256  97.9339992  55.0738540
 125.6450225  97.2950907  54.5201894 124.8142155  98.3785816  54.6446402
 125.3713585  97.9050136  54.9288971 114.3174103 100.8480755  46.4683644
 114.6973068 101.2665300  45.8043911 113.7429468 101.4294210  46.7752487
 114.2885428 100.9958614  46.4160385 124.8222984  91.0439928  50.0625883
 123.9516542  91.0178649  50.0159193 125.0763326  90.8717120  49.2451729
 124.7316544  91.0150072  49.9346020 121.7940964 103.1007895  38.9999026
 122.0833489 103.8772777  39.2742600 121.8812763 102.5896626  39.7013526
 121.8495220 103.1399813  39.1441524 124.6900851 100.9489129  60.7950550
 125.1600482 101.5731245  61.1818424 124.7362731 100.2806105  61.3543764
 124.7668727 100.9423809  60.9350621 121.8472125  93.0546156  51.5199354
 121.3310613  92.3626348  51.6450933 121.2866054  93.7216934  51.4661952
 121.6878638  93.0509414  51.5305420 123.9164358  93.5939117  53.3492206
 123.5296111  93.6188148  54.1305736 123.4297296  93.0280795  52.8966723
 123.7876867  93.5134867  53.3980110 123.5821500  90.4806102  55.6402466
 124.2114618  91.0166402  55.3623536 123.7507363  90.3883461  56.4916032
 123.6999295  90.5467464  55.7250994 123.3835415  95.2677297  57.9128878
 124.2108844  94.9962446  57.9687492 123.4043261  96.0638138  58.2692696
 123.5088265  95.3457051  57.9744061 117.9604905 102.4141160  51.0999138
 117.1192911 102.3145034  51.3078032 118.1694913 103.1836640  51.4513459
 117.8669597 102.5133203  51.1826453 115.4380472 100.0360696  48.9283889
 115.0437169 100.1103708  48.1533999 114.8820588 100.4218643  49.4792251
 115.2983284 100.1042471  48.8951549 121.7721570 100.3422559  50.3496736
 121.4684707  99.7878547  50.9507143 121.0700990 100.5214769  49.8624770
 121.6237779 100.2867341  50.3666441 120.8287667  97.6523078  44.9141438
 121.1047401  96.9341991  44.5019005 121.4286336  98.2507998  44.7062544
 120.9580931  97.6343449  44.8222199 119.8339921 107.5572279  55.0568834
 119.7260275 107.5674342  55.9230892 120.0435702 108.3827060  54.8673787
 119.8490032 107.6813354  55.1572925 124.3298187  95.3236596  43.1888033
 124.7841934  95.4947156  43.9135877 124.8038233  94.7104707  42.7885808
 124.4666507  95.2587481  43.2361794 117.8513713 104.8084922  52.5190771
 117.2601646 105.4494420  52.4893786 118.6134736 105.2322539  52.4922071
 117.8761973 104.9660760  52.5105918 118.2474335  95.9686920  53.1858789
 118.7075817  96.0425849  53.9233913 118.2930442  96.7668174  52.8358610
 118.3224891  96.0981067  53.2431545 119.8957685  96.6353614  57.7530816
 119.5043250  95.9886962  58.1886594 120.0643548  97.2265050  58.3725071
 119.8628595  96.6267882  57.9093522 121.6711207 102.0279130  44.2933040
 122.4153252 102.4153407  44.5315990 121.8171903 101.1836556  44.4573528
 121.8021792 101.9609603  44.3527010 123.5890783  93.8229389  49.3264901
 122.7426828  93.9952197  49.2006251 123.5861915  93.0178733  49.6630730
 123.4637933  93.7290418  49.3576028 124.6589083  97.6004604  50.1926959
 124.1849037  97.0746366  50.7032270 125.0307219  97.0534076  49.6241821
 124.6438972  97.4420600  50.1842106 115.0362113  99.5976110  55.5610505
 115.8987726  99.4971819  55.4747835 114.7053896  99.0170820  54.9996077
 115.1147310  99.4967737  55.4655911 118.3963899  98.4218559  52.2220923
 117.7716969  98.4336951  51.6146876 118.0609494  98.8978734  52.8712163
 118.2549391  98.4937076  52.2277492 118.5805648  96.7643678  38.2793608
 118.2318452  97.4163403  38.7425158 118.1002094  96.7500791  37.5517479
 118.4575892  96.8586731  38.2404699 115.1089575 106.4819019  53.6624687
 114.5789499 105.7911458  53.7119662 115.3814668 106.4729205  52.8337396
 115.0714297 106.3786151  53.5472103 125.3095820 103.9242264  53.6363059
 124.6952813 103.3800314  53.9311694 125.8263105 103.4106500  53.1568875
 125.2951483 103.7678673  53.6087287 124.5492117 104.9946534  51.3707358
 124.1219725 104.3696253  50.9372793 124.5417062 104.7121456  52.1966365
 124.4851259 104.8599315  51.4287185 117.6654644 100.0311707  54.4395792
 117.8248131  99.2755031  54.8447514 117.4847538 100.5802647  55.0936529
 117.6620003 100.0005521  54.5958498 122.8777827  95.8715289  51.5849892
 122.9020314  95.3375401  50.8962672 123.1289301  95.3632597  52.2475482
 122.9187746  95.7176192  51.5814536 110.3885417 103.1546783  51.0193036
 110.2828866 103.1093628  50.1545120 109.6385637 103.5000564  51.3007321
 110.2621020 103.1987692  50.9330365 119.1579149  94.5986107  50.9655636
 119.1977521  95.0995313  51.6790343 118.3328814  94.6896500  50.6961559
 119.0418675  94.6867923  51.0306174 121.3408762 104.1646847  59.0675931
 120.4904393 104.3018561  59.2033576 121.5036890 103.4310625  59.5123632
 121.2392626 104.0760948  59.1531530 120.5793513 101.1146617  53.2629535
 119.7485442 101.2820435  53.0564783 120.5245030 100.7382567  54.0478420
 120.4482928 101.0836348  53.3478063 118.3877296  94.6055510  58.8985946
 119.0129999  94.0617642  59.1715378 117.9327776  94.1250427  58.3293736
 118.4125557  94.4544991  58.8547540 118.9529557  99.3902208  43.7919653
 119.0932518  99.8874672  44.4948294 119.4512089  98.6888503  43.9333866
 119.0470637  99.3604187  43.9171232 118.9829779 100.2569319  41.1212230
 119.6174858 100.8529744  41.0561691 119.0655390  99.9572777  41.9358100
 119.0886330 100.3010227  41.2315316 120.5608762  96.1883295  41.0957672
 120.8824603  95.7086377  40.4416934 120.8235706  96.9982941  40.9048483
 120.6474787  96.2373192  40.9713164 123.7905735 107.2102169  54.6156488
 123.2830826 107.7638016  55.0597118 123.4932381 107.2710459  53.7975262
 123.6710619 107.3008480  54.5604944 115.4882767 102.4537160  44.3901776
 115.9974996 103.0501667  44.7713081 115.9617039 102.1863134  43.7078195
 115.6326142 102.5022975  44.3456298 124.3962140  92.0470588  46.8671728
 123.7530458  91.8968235  47.4356866 124.0561547  91.8012934  46.1020832
 124.2507217  91.9882711  46.8374743 117.8473299  99.0893418  47.2574956
 117.1285288  99.5057551  47.5247820 118.2185661  99.6547657  46.7066594
 117.7965230  99.2342700  47.2157763 123.6219873  98.1291418  42.5948335
 123.0284712  98.4508415  42.0432902 123.6595151  97.2832514  42.3869442
 123.5394262  98.0515747  42.4831107 120.7796918  99.9405396  55.6275186
 120.2675821  99.3326579  55.9860217 120.6076414 100.6561988  56.0949162
 120.6786555  99.9568695  55.7491410 115.6262633  98.3842971  58.2777548
 115.4565223  99.0444346  57.7325754 115.1828582  98.5949532  58.9990037
 115.5361966  98.5128953  58.3039177 119.5522452  96.6247469  47.3204281
 120.0279818  96.9864549  46.6854462 119.0511052  97.2803937  47.6004424
 119.5487811  96.7741658  47.2681022 124.6565988  97.8629641  58.0677441
 125.2137418  97.6343450  57.4355907 124.3327053  98.6235306  57.7912654
 124.6912398  97.9413477  57.9333939 112.5264697 101.2889837  53.5366038
 111.9791417 100.6190482  53.6546906 113.3157075 100.9219685  53.6009505
 112.5616881 101.1354823  53.5634738 122.3749106 100.9497294  59.0329449
 123.1260432 101.2648971  59.3469003 122.5671682 100.7476465  58.2063370
 122.5140520 100.9664676  58.9572844 121.5949105  98.7688669  40.6877665
 121.9748070  98.7868298  39.9028780 120.8541701  99.2142658  40.5668513
 121.5417943  98.8370444  40.5541234 111.2851667 100.5010645  50.6912061
 111.1073428 100.0487254  51.4166976 110.9970689 101.3036806  50.8750538
 111.2164620 100.5533202  50.8255563 122.3933859 105.6066175  42.0786455
 121.5845182 105.2832849  42.0319765 122.9008768 104.8999397  42.0114704
 122.3483526 105.4547492  42.0616750 113.0224136 103.0338368  47.8033820
 112.1569656 103.0224059  47.6916591 113.1222952 102.8468591  48.6504959
 112.9098303 103.0044430  47.9122764 122.5175161  92.9933784  55.9025832
 122.6503067  92.1964778  56.2306807 122.9020314  93.5200187  56.4824108
 122.5931490  92.9533701  56.0369335 125.5907516  89.9164110  52.5006925
 124.7853480  89.8061840  52.8174763 125.4614252  90.0176566  51.6436791
 125.4527649  89.9147781  52.4214966 121.5868276  94.9950197  43.3705297
 122.4083970  95.1648510  43.1286992 121.1237927  95.1497458  42.6471594
 121.6399438  95.0431930  43.2276941 120.1763608  92.9892959  54.1503726
 120.7208021  92.6484086  54.7408067 120.2300543  93.8478421  54.2925010
 120.2652727  93.0648219  54.2585599 115.9894167 106.7509375  51.0242534
 116.5939024 106.7105210  50.3956354 115.7821479 107.5980527  51.0546589
 116.0483064 106.8697378  50.9358650 111.2245449 105.7343993  50.8941457
 111.1269727 104.9240264  51.2031513 112.0074318 105.7135786  50.5087725
 111.3261585 105.6111083  50.8828320  52.7415152  -6.3940483  32.6577856
  51.9898052  -6.7724945  32.4293901  53.1901164  -6.3622050  31.9096666
  52.6964819  -6.4454876  32.5135358  57.7344404  -4.0200845  34.0274515
  58.1183783  -3.4513946  33.4879290  57.6703545  -4.7451335  33.5480331
  57.7817831  -4.0425382  33.8768377  54.1600648  -1.4644502  36.3255485
  54.8038104  -1.0231338  36.7151643  54.4856904  -2.2691076  36.2385743
  54.3032477  -1.5179307  36.3700962  49.0782278  -5.4816134  35.8249168
  48.5949856  -4.7565644  35.8008752  49.8905596  -5.1840004  35.9359326
  49.1273025  -5.3313780  35.8376448  51.9326475  -4.9659958  35.9769448
  52.6347054  -5.4807969  36.0342205  51.8523958  -4.6385806  36.7816323
  52.0250235  -4.9945732  36.1042240  48.7266214  -6.8496534  38.1392773
  48.7670360  -6.5781683  37.3112553  49.2860738  -6.3254626  38.5550561
  48.8149560  -6.7320779  38.0784662  54.9579630  -5.6477705  30.6665729
  55.2477928  -6.0388723  29.9424956  55.6883110  -5.4661000  31.1071005
  55.1086514  -5.6783891  30.6248536  52.8985545  -3.6710322  33.7325879
  52.6785841  -3.9612967  34.5252546  52.6780067  -4.3295367  33.2043791
  52.8333139  -3.8110614  33.7714788  55.0653501  -2.2980932  32.5156571
  55.7177559  -2.8304490  32.7447597  54.3679110  -2.6512280  32.9024445
  55.0584219  -2.4291409  32.6068739  53.8979478  -5.0672413  40.3793917
  54.0469041  -5.6269497  39.7267321  54.6779480  -4.9880411  40.7626435
  54.0353571  -5.1386848  40.3390866  56.4232778  -4.8957770  41.6578407
  56.3476449  -5.5648960  42.2129196  56.3522637  -4.1939982  42.1719074
  56.4013385  -4.8912863  41.8155256  55.8124413  -1.4889451  40.1156408
  56.3020343  -2.1878661  39.9332073  55.2408645  -1.7865581  40.7032466
  55.8008943  -1.6363227  40.1757449  56.8903542  -4.0306989  38.4553541
  56.6669197  -4.7888160  38.8237568  56.4013386  -4.0008968  37.7333981
  56.7846991  -4.1384765  38.4030282  55.5381999  -3.8106531  35.9090626
  55.1242398  -4.4732401  35.5194468  56.2229373  -3.6628672  35.3886320
  55.5780371  -3.8865873  35.7747123  58.9047293  -4.6516446  36.6614243
  58.5063577  -4.5414176  35.8935063  58.2898513  -4.4434380  37.2440802
  58.7546183  -4.6042878  36.6345542  52.5036469  -3.3697449  38.3103972
  52.8183028  -2.5561061  38.3181754  52.9129882  -3.7547231  38.9786131
  52.6104567  -3.3068747  38.4108064  63.7147736   9.1244825  32.6577856
  62.9630636   8.7460363  32.4293901  64.1633748   9.1563258  31.9096666
  63.6697403   9.0730432  32.5135358  72.6400313   5.8568633  46.5001081
  73.3467080   5.3620663  46.6288015  72.8288248   6.2977714  45.7703739
  72.7728219   5.8486983  46.4110126  69.1672696   9.5470194  28.0863403
  68.8324064  10.2247116  27.6507625  69.6799566   9.1575506  27.4980275
  69.1938277   9.5894772  27.9350195  68.7076987  11.4984463  34.0274515
  69.0916367  12.0671362  33.4879290  68.6436128  10.7733973  33.5480331
  68.7550414  11.4759926  33.8768377  72.1758417   1.6474151  39.5372276
  72.7214377   2.3259237  39.5966246  72.1175294   1.5061612  38.6773858
  72.2474332   1.7266153  39.4184337  65.2932492   9.1363217  34.9240629
  65.3942855   8.3263571  35.2337756  64.6974237   9.0420163  34.2940307
  65.2205031   9.0028245  34.8766867  73.9523486   3.0758758  30.4106004
  73.8363012   3.8266444  30.8398142  74.7479373   2.8182711  30.6602091
  74.0528075   3.1493605  30.5110096  65.1333232  14.0540806  36.3255485
  65.7770687  14.4953970  36.7151643  65.4589487  13.2494232  36.2385743
  65.2765061  14.0006001  36.3700962  58.4897537   5.1583503  34.5492962
  58.2547721   4.3251156  34.4425231  58.6283177   5.4388169  33.7354163
  58.4753199   5.0767007  34.4135317  60.7887624  -2.6730766  37.4477270
  60.1692656  -3.2638119  37.2787285  60.6871488  -2.0819331  36.8141593
  60.6825299  -2.6726683  37.3282260  65.8353812   7.0652781  31.6975346
  66.1569653   7.6057988  31.0936654  66.4825908   6.4949552  31.8297636
  65.9779867   7.0611956  31.6282382  67.8855520  -0.9331224  31.7809733
  68.5835684  -0.7543097  32.2731196  68.2007852  -1.4560885  31.1580122
  68.0350857  -0.9837452  31.7611743  60.5156757   0.8721516  39.6920839
  60.3915454   1.4583961  40.3270658  61.1675041   0.3781712  39.9933114
  60.5930406   0.8860320  39.8306768  68.0743455   5.4539221  31.7689525
  68.5137090   4.8456321  32.2144297  67.9248118   5.0746594  30.9974990
  68.1164921   5.3077692  31.7208692  65.5415098   4.0483233  38.9708350
  66.1864101   3.5555676  38.6519299  65.7816875   4.1908019  39.7974428
  65.6725683   3.9960675  39.0457883  68.0801189   6.8938139  38.6215243
  68.3624432   6.0989544  38.4001998  68.8087350   7.3718726  38.6420304
  68.2290753   6.8472736  38.5918258  71.6752792   3.8066402  28.7220294
  71.5904087   4.6627369  28.8669863  72.1637175   3.5310726  29.3902453
  71.7341689   3.8923724  28.8422375  72.6071225   0.4251196  30.2218029
  72.0782696   0.6410830  30.8815335  73.1296245   1.1187335  30.1418998
  72.6059678   0.5594333  30.3073628  78.0619278   5.9997501  35.5951073
  77.2316981   6.2108144  35.7584490  78.0128530   5.1734555  35.3193357
  77.9326013   5.9087107  35.5788439  64.4970833   4.3214413  29.0225497
  63.9128048   4.8264445  29.4291361  64.0940928   4.0956800  28.2822089
  64.3510136   4.3622661  28.9730522  60.0514861  10.0369174  35.8249168
  59.5682439  10.7619664  35.8008752  60.8638179  10.3345304  35.9359326
  60.1005609  10.1871528  35.8376448  66.1229015   8.8301355  38.4298983
  65.6055957   8.4708770  37.8260291  66.8203407   8.3063529  38.4405049
  66.1494596   8.6999043  38.3429242  69.7792607   9.2796169  44.3915156
  69.8675953   9.0922309  45.2393366  70.2082320   8.6333599  43.9920003
  69.8554710   9.1559177  44.4586907  67.3463067   8.5627329  43.3732818
  66.7833902   8.1499939  43.8972479  68.1084091   8.4880235  43.7925961
  67.3757516   8.4904730  43.5125818  68.9548047   0.5680065  27.4994417
  69.1944051   0.7758049  26.6869761  69.2763888  -0.2362426  27.6083362
  69.0385205   0.4794166  27.3954971  62.9059058  10.5525350  35.9769448
  63.6079638  10.0377339  36.0342205  62.8256542  10.8799502  36.7816323
  62.9982819  10.5239576  36.1042240  63.9537965   0.7900937  45.1049863
  64.1258469   0.6806832  45.9535145  64.4907323   1.4355343  44.8681056
  64.0582969   0.8692939  45.1954960  62.2309834   6.7431702  35.4855056
  63.0698733   6.9754635  35.5328818  62.2621603   5.8736014  35.4162092
  62.3591551   6.6488649  35.4819701  62.8562537   7.1632577  39.7868362
  63.3960762   7.0203708  40.4571734  62.1732483   7.5629328  40.1552388
  62.8354691   7.2012248  39.9402784  72.2803422   2.8423578  34.9813386
  73.0360937   3.2755092  35.0202295  72.3865746   2.1928348  35.5548022
  72.4073592   2.8101062  35.0711412  75.3183593   6.6696855  35.7315789
  74.8818825   6.6733598  36.4874761  74.9846508   7.3502354  35.2995367
  75.2046213   6.7709311  35.7796622  69.8912667   8.7105188  47.0558940
  70.6753083   8.8236036  47.4214682  69.6909261   7.8846325  47.2517625
  69.9778692   8.6051907  47.1393326  58.2599682   3.3832868  39.9402783
  57.9938097   2.5671985  40.0993774  58.2738246   3.4286024  39.0698299
  58.2224404   3.2689773  39.8356265  62.1657429  -1.8182047  26.5554541
  61.4515606  -2.1043868  26.9676974  62.6501398  -1.4785422  27.1960929
  62.1316792  -1.8100398  26.7110176  70.0483060  10.6215290  40.7025395
  69.2498306  10.3814790  40.9599264  70.4969071  10.6729683  41.4492443
  69.9957671  10.5937681  40.8510319  78.4527939   3.3877775  34.6235426
  79.1144373   2.8268444  34.5231335  77.8119351   2.8929806  34.9488118
  78.4556807   3.2314184  34.6567767  69.3404747   6.6847907  26.9316350
  69.7555895   6.3532930  26.2400845  68.5096676   6.4516809  26.8036486
  69.2792756   6.6019163  26.8107197  58.6693096   4.1691648  37.2214528
  58.4868669   4.1438534  36.3686820  59.4042765   4.6390585  37.2603436
  58.7507160   4.2353010  37.1012446  74.7392770   4.4043158  34.3647415
  74.9748359   4.5488356  33.5374266  74.8882333   5.1685566  34.7578929
  74.7958573   4.5382212  34.3011019  61.7338847   0.8876650  43.7296636
  62.4578820   0.8729681  44.2161531  61.8354984   1.5972006  43.2318604
  61.8557056   0.9901354  43.7275423  76.5683227   3.2444823  32.2017019
  76.8991444   3.7772464  31.5957114  77.1416315   3.2983711  32.8578970
  76.7016906   3.3314392  32.2094801  69.1083797   4.3675735  48.5945583
  68.3156777   4.6819247  48.7798203  69.2232724   4.5827203  47.7566368
  69.0079207   4.4459572  48.4983918  71.7815116   1.0909726  32.8840599
  71.8761970   1.8299020  33.3380225  71.1573959   0.6627202  33.3175164
  71.7024146   1.1371047  33.0148747  70.0367590   4.2695939  43.5330880
  70.6106451   3.6323183  43.6879444  69.9582393   4.2700021  42.6640538
  70.1100824   4.1761050  43.4277291  58.6364006   1.0485148  37.3713594
  59.2137509   0.9121599  38.0105840  57.9378068   0.5920932  37.6259179
  58.6185027   0.9607414  37.5035884  72.0338137   2.9358466  26.1177551
  71.9518300   3.0060653  26.9832538  72.6717857   3.4988210  25.9261292
  72.1157974   3.0297437  26.2167501  65.3931308   2.7019204  35.5852077
  65.1350552   1.8690939  35.5583377  65.4479791   2.9276817  34.7444578
  65.3631086   2.6116975  35.4572214  64.3666020   0.2556966  36.0716972
  63.7915612   0.4149135  36.7080933  63.9901697  -0.3807625  35.6085423
  64.2268833   0.1854779  36.0971531  68.0339309  -1.2719684  40.9309351
  67.6453742  -1.6965467  40.2761542  67.3694007  -1.0237535  41.4386377
  67.8786237  -1.2980963  40.9097219  54.1122839  -0.1002959  34.0861413
  54.1983091  -0.4771091  34.8674943  54.7398637  -0.4742513  33.6081371
  54.2179390  -0.2117477  34.1306890  69.1378247   2.9578920  29.1286158
  69.9518886   3.2493813  29.0168929  69.0737388   2.3038783  28.5544451
  69.2480986   2.9044115  29.0274995  75.3587737   5.6404916  43.5415733
  75.1226375   4.8092981  43.4227794  76.0030966   5.5890524  44.1270577
  75.4182408   5.5102604  43.6101627  65.0086155   6.4300438  34.2558470
  65.6460102   6.1912185  34.8010263  65.4341227   6.6337597  33.5211630
  65.1662322   6.4251448  34.2275627  59.6998798   8.6688774  38.1392773
  59.7402943   8.9403625  37.3112553  60.2593322   9.1930682  38.5550561
  59.7882144   8.7864529  38.0784662  65.6488970   1.6502727  28.5933359
  66.0334123   1.4310434  29.3449904  65.4000591   2.4765673  28.7234435
  65.6691043   1.7400874  28.7234435  76.3824158   5.4249365  39.6044028
  76.0769975   6.1577422  39.9657343  75.6630374   5.0187295  39.3236814
  76.2311500   5.4731098  39.6157165  67.3907627   6.9072860  35.9352256
  67.4646636   6.7448032  36.7894106  68.2077134   7.0963050  35.6912738
  67.5223986   6.9109603  36.0250282  61.1513384   7.2530723  32.9646699
  60.3251502   7.4992460  32.8380978  61.2125375   7.1742804  33.8308757
  61.0387551   7.2775672  33.0735644  65.9312213   9.8707603  30.6665729
  66.2210512   9.4796585  29.9424956  66.6615694  10.0524308  31.1071005
  66.0819097   9.8401417  30.6248536  66.5206958   4.6725349  41.7518860
  66.0218652   5.3841117  41.8303748  67.3307183   4.9926016  41.7137022
  66.5663065   4.8252198  41.7575428  63.8718129  11.8474986  33.7325879
  63.6518424  11.5572341  34.5252546  63.6512651  11.1889941  33.2043791
  63.8065723  11.7074694  33.7714788  62.7835076   3.9348302  35.9981581
  62.4948325   3.3085774  36.5327308  63.6518424   3.8768590  36.0646261
  62.8695328   3.8335847  36.0872535  66.0386084  13.2204376  32.5156571
  66.6910142  12.6880818  32.7447597  65.3411693  12.8673028  32.9024445
  66.0316802  13.0893899  32.6068739  62.9867349   5.5743553  31.9223946
  63.7413317   5.9556592  32.1359408  62.3937962   6.0254697  32.3770642
  63.0104063   5.6972381  32.0206824  74.0326003   5.5408790  31.8587551
  74.5984035   6.2002000  31.7746094  73.3853906   5.8858488  32.3303953
  74.0204759   5.6890731  31.9160307  65.4474016  -2.4693606  47.0481158
  64.6373792  -2.1635827  46.9371000  65.9248703  -1.7488024  47.1633742
  65.3977495  -2.3179005  47.0488229  64.3065576   6.7452115  37.2964061
  63.7846329   6.8852406  37.9815926  64.6939596   5.9862779  37.4866178
  64.2869277   6.6537639  37.4265138  61.2956760  -3.2042077  31.3659016
  61.0081556  -3.5740806  30.6290963  61.9827228  -2.7347221  31.1042721
  61.3545657  -3.1895107  31.2174092  70.5032581   8.4847574  31.2824630
  70.2619257   7.7515435  30.8751695  70.6833914   9.0334431  30.6290963
  70.4940205   8.4569965  31.1254853  65.7331901   3.7756134  32.6945552
  65.5374684   4.3830868  32.1005855  65.9566247   3.0824078  32.2137226
  65.7366543   3.7633659  32.5361633  64.1310431   0.6610872  32.8126421
  64.8533083   0.8252030  32.3530227  63.6518424   1.3820536  32.7065760
  64.1674162   0.7909101  32.7292035  61.7818048   3.0668944  41.9180560
  62.2939145   3.3453197  41.2689320  61.4954391   3.8058238  42.2843373
  61.8152911   3.2171298  41.8770438  75.9661463   2.2042657  35.4784347
  75.8795437   2.3598083  36.3319126  75.5111943   2.8480733  35.1043752
  75.8864720   2.3218412  35.5491454  58.8684955  -2.4260864  32.2144297
  58.9701091  -1.6234703  32.5425272  59.6640841  -2.6273528  31.9167377
  59.0012860  -2.3374965  32.2179652  59.6848687  -2.3113686  39.9565418
  59.5434178  -3.1629745  40.0809926  59.9689250  -2.2685025  39.1327624
  59.7056533  -2.4313936  39.8533043  73.7335328   6.2336764  37.8896688
  73.5949687   6.9317809  38.3945430  72.9535326   6.0785420  37.5332870
  73.5978555   6.3136930  37.9122962  72.0713413   2.5333139  44.1419070
  72.0661451   1.6612956  44.1461496  72.7774407   2.7321308  43.6688525
  72.1758417   2.4337013  44.0726105  65.7984306   2.2610123  43.5132890
  65.9427682   2.8411331  42.8776000  66.1459955   2.6386420  44.2182744
  65.8711768   2.4030827  43.5231885  67.9704224   1.4600291  41.2958021
  67.2227538   1.6531306  40.8906299  68.1245749   0.6345511  41.0582143
  67.8826651   1.3665403  41.2003427  64.8712061  10.4512895  40.3793917
  65.0201625   9.8915811  39.7267321  65.6512063  10.5304896  40.7626435
  65.0086155  10.3798460  40.3390866  75.2288701   5.5915017  28.6513187
  74.8495509   4.8052155  28.6442477  74.5654946   6.1401874  28.5084831
  75.0747175   5.5559841  28.6293984  67.3965362  10.6227538  41.6578407
  67.3209033   9.9536348  42.2129196  67.3255221  11.3245326  42.1719074
  67.3745969  10.6272445  41.8155256  68.0535609   9.1428536  32.4902013
  68.8185500   8.8738180  32.1684678  67.9513699   8.6578547  33.2072076
  68.1517104   9.0318101  32.5481841  70.5754269   6.1740720  24.4701963
  71.3427254   6.2340845  24.0607815  70.1285578   5.6021162  23.9858281
  70.6227697   6.0977296  24.3379673  71.4732065   4.9795376  36.7554695
  70.7977067   4.7480608  37.2568082  71.4824441   4.3716559  36.1296800
  71.3750569   4.8554301  36.7370847  68.6026209  -0.1786795  43.5118748
  68.5385350   0.6823161  43.3838885  68.7423397  -0.4954802  42.7114299
  68.6141679  -0.0986628  43.3746961  73.4748799   7.8360508  28.9864873
  73.5568637   8.6427495  28.6626324  73.9598542   7.8556468  29.7105647
  73.5585957   7.9581171  29.0451772  67.2845303   2.5145344  37.6534951
  66.8607552   2.7149843  36.9173969  67.1090158   1.6674192  37.7659251
  67.1956183   2.4194126  37.5608641  66.7856996  14.0295857  40.1156408
  67.2752926  13.3306647  39.9332073  66.2141228  13.7319727  40.7032466
  66.7741526  13.8822081  40.1757449  62.5727748   3.0097396  33.0862923
  62.7292367   2.9444199  33.9418916  62.9128341   3.7845948  32.8741603
  62.6460983   3.1146594  33.1817518  69.1106892   2.3855279  31.9556287
  69.6522438   1.8825661  32.4194907  69.4253451   2.3320474  31.1445772
  69.2371289   2.3034700  31.9040099  72.9824000   6.5957927  49.0683199
  73.7958865   6.3243076  49.2288331  72.8218966   6.2965467  48.2643395
  73.0793948   6.5112853  48.9728605  67.2793342   7.7772631  29.2396315
  67.3486162   6.9187169  29.3789315  68.0581797   7.9944512  28.9115339
  67.4046192   7.6825495  29.2113472  71.6700830  10.2010332  33.4532808
  71.2780621   9.8977047  32.7355674  71.8253902  11.0379422  33.2637762
  71.6354419  10.2794169  33.3189305  59.1462009   0.1932346  33.4023691
  59.5260974   0.6116891  32.7383958  58.5717374   0.7745802  33.7092534
  59.1173334   0.3410205  33.3500432  71.8340504   6.7660321  33.3938839
  71.4755159   6.9374964  34.1702871  71.3479215   7.2273527  32.8366837
  71.7099201   6.8599292  33.4264108  66.6228870   2.4459486  25.9339073
  66.9121395   3.2224369  26.2082647  66.7100669   1.9348218  26.6353572
  66.6783126   2.4851405  26.0781571  69.5188757   0.2940721  47.7290597
  69.9888388   0.9182837  48.1158471  69.5650637  -0.3742304  48.2883811
  69.5956633   0.2875401  47.8690668  72.9945244   7.6564217  44.3406039
  73.6324964   7.1624413  44.0068496  72.3519335   7.5841618  43.7558266
  72.9939470   7.5723226  44.2048394  73.0499500   8.3484025  40.9811396
  73.8391878   7.9973090  41.1013478  73.2243098   9.1620414  40.7188030
  73.1919782   8.4169882  40.9599264  62.7892811   1.7592751  38.0339185
  61.9480817   1.6596625  38.2418079  62.9982819   2.5288231  38.3853506
  62.6957503   1.8584794  38.1166500  60.2668378  -0.6187712  35.8623936
  59.8725075  -0.5444700  35.0874045  59.7108495  -0.2329766  36.4132298
  60.1271190  -0.5505937  35.8291596  66.6009476  -0.3125850  37.2836783
  66.2972613  -0.8669861  37.8847190  65.8988896  -0.1333640  36.7964817
  66.4525685  -0.3681067  37.3006488  64.6627827   6.9023871  41.9908880
  64.5548182   6.9125933  42.8570938  64.8723608   7.7278651  41.8013834
  64.6777938   7.0264946  42.0912972  62.6801619   4.1536513  39.4530818
  62.0889552   4.7946012  39.4233833  63.4422642   4.5774131  39.4262117
  62.7049879   4.3112352  39.4445965  78.7992040   3.9842283  40.4508096
  78.8575164   4.4328932  41.1968073  78.1658508   4.3941096  40.0138176
  78.7143335   4.1116018  40.4960645  72.4391135   9.6045825  36.8862842
  72.2410823  10.0936639  36.1919054  71.8178846   9.8087066  37.4646976
  72.3178699   9.7062363  36.8686066  66.4999113   1.3730722  31.2273087
  67.2441158   1.7604998  31.4656037  66.6459809   0.5288147  31.3913575
  66.6309698   1.3061195  31.2867056  59.8650019  -1.0572298  42.4950552
  60.7275632  -1.1576589  42.4087882  59.5341802  -1.6377589  41.9336124
  59.9435216  -1.1580672  42.3995958  75.7513720   2.0058571  38.5373787
  75.5111943   1.1664986  38.5416213  76.2305727   2.0858737  39.2614560
  75.7865903   1.8939970  38.6448589  74.3564937   3.1709977  42.4208091
  75.0799136   2.7182504  42.2419111  74.0914899   3.4514643  41.6380419
  74.4246210   3.1460946  42.2786806  63.2251805  -2.2329849  39.1560970
  62.6004875  -2.2211457  38.5486923  62.8897400  -1.7569674  39.8052210
  63.0837297  -2.1611332  39.1617539  59.9377481   5.8270611  40.5964734
  59.4077405   5.1363050  40.6459709  60.2102574   5.8180796  39.7677443
  59.9002203   5.7237743  40.4812150  70.9697571   6.4096313  29.3202417
  71.6931770   6.8754426  29.1766990  70.5298162   6.4769923  28.5700014
  71.0113263   6.4880150  29.1887198  70.1383726   3.2693855  40.5703106
  69.5240719   2.7251906  40.8651741  70.6551011   2.7558092  40.0908922
  70.1239389   3.1130265  40.5427334  69.3780023   4.3398126  38.3047405
  68.9507631   3.7147844  37.8712840  69.3704968   4.0573047  39.1306412
  69.3139165   4.2050906  38.3627232  62.4942551  -0.6236701  41.3735838
  62.6536037  -1.3793377  41.7787560  62.3135444  -0.0745762  42.0276576
  62.4907910  -0.6542888  41.5298544  55.2173323   2.4998375  37.9533083
  55.1116772   2.4545219  37.0885167  54.4673543   2.8452156  38.2347367
  55.0908926   2.5439283  37.8670412  66.1696668   3.5098438  46.0015977
  65.3192299   3.6470153  46.1373622  66.3324796   2.7762217  46.4463679
  66.0680532   3.4212539  46.0871577  65.4081419   0.4598208  40.1969582
  64.5773348   0.6272026  39.9904830  65.3532936   0.0834159  40.9818467
  65.2770834   0.4287939  40.2818110  63.7817463  -1.2646200  30.7259700
  63.9220424  -0.7673736  31.4288341  64.2799995  -1.9659906  30.8673913
  63.8758543  -1.2944222  30.8511279  63.8117685  -0.3979089  28.0552276
  64.4462764   0.1981336  27.9901738  63.8943296  -0.6975632  28.8698147
  63.9174236  -0.3538181  28.1655363  68.6193641   6.5553760  41.5496534
  68.1118732   7.1089607  41.9937165  68.3220287   6.6162050  40.7315309
  68.4998526   6.6460072  41.4944991  60.3170673   1.7988751  31.3241822
  60.8262902   2.3953259  31.7053128  60.7904945   1.5314725  30.6418242
  60.4614049   1.8474567  31.2796345  71.2301421  10.4717018  29.4800478
  70.5130731  10.2977880  29.0147715  71.8808158  10.2369590  28.9475964
  71.2203271  10.4112811  29.3329696  67.8636126  11.4878319  38.4553541
  67.6401780  10.7297148  38.8237568  67.3745969  11.5176340  37.7333981
  67.7579575  11.3800543  38.4030282  62.6761205  -1.5654990  34.1915003
  61.9573194  -1.1490857  34.4587866  63.0473567  -1.0000751  33.6406641
  62.6253136  -1.4205709  34.1497810  69.9207115   5.6560051  46.0065475
  69.8802970   5.0109728  45.4210631  70.7330433   5.5996668  46.3190887
  70.0350269   5.5519018  45.9662424  66.5114583  11.7078777  35.9090626
  66.0974981  11.0452907  35.5194468  67.1961957  11.8556636  35.3886320
  66.5512955  11.6319435  35.7747123  69.8779877  10.8668862  36.6614243
  69.4796160  10.9771132  35.8935063  69.2631097  11.0750928  37.2440802
  69.7278766  10.9142430  36.6345542  65.6084824  -0.7143013  42.5615233
  65.0963727  -1.3221830  42.9200264  65.4364320   0.0013580  43.0289208
  65.5074461  -0.6979713  42.6831456  60.4550539  -2.2705437  45.2117594
  60.2853129  -1.6104062  44.6665801  60.0116489  -2.0598876  45.9330084
  60.3649872  -2.1419455  45.2379224  77.6121720   5.4420829  30.0457333
  77.9955325   6.1912185  30.2755430  76.8165833   5.6886648  29.7869322
  77.5515502   5.5890523  30.0414907  57.3552603   0.6341428  40.4706084
  56.8079323  -0.0357926  40.5886953  58.1444981   0.2671276  40.5349552
  57.3904787   0.4806415  40.4974785  67.2037012   0.2948885  45.9669495
  67.9548339   0.6100562  46.2809050  67.3959588   0.0928056  45.1403417
  67.3428426   0.3116267  45.8912891  66.4237011  -1.8859740  27.6217712
  66.8035976  -1.8680110  26.8368827  65.6829607  -1.4405751  27.5008559
  66.3705849  -1.8177965  27.4881280  56.1139573  -0.1537764  37.6252107
  55.9361334  -0.6061155  38.3507023  55.8258595   0.6488398  37.8090585
  56.0452526  -0.1015206  37.7595610  71.7763154   1.1019953  36.8629498
  72.2716819   0.3842949  36.8233518  70.9662929   0.7990751  36.7483985
  71.7307047   0.9517600  36.8403224  67.2221765   4.9517767  29.0126502
  66.4133088   4.6284440  28.9659812  67.7296674   4.2450989  28.9454751
  67.1771432   4.7999083  28.9956797  57.8512043   2.3789960  34.7373866
  56.9857562   2.3675650  34.6256638  57.9510858   2.1920183  35.5845006
  57.7386210   2.3496021  34.8462811  73.8414973   3.8523641  39.5506626
  74.2670044   3.3298063  38.9977051  73.4771892   4.4504478  39.0295249
  73.8501575   3.8633868  39.3915636  63.4769052  12.1487859  38.3103972
  63.7915611  12.9624247  38.3181754  63.8862466  11.7638077  38.9786131
  63.5837150  12.2116561  38.4108064  70.4293572   7.5657905  35.8807784
  70.9004750   8.2798168  36.0497769  70.7653751   6.9656655  36.4167653
  70.5488687   7.5829370  35.9840160  72.5170557   9.1759219  48.0599856
  72.6267522   8.3867779  48.4156603  72.8461453   9.0865155  47.2574194
  72.5822962   9.0465072  47.9942247  71.0667518   7.3575839  42.6435477
  70.5188464   6.7333723  42.3755542  71.5280547   7.5470111  41.9279556
  71.0534728   7.2934890  42.4985908  60.8182073   6.0960967  37.9582580
  61.4226930   6.0556801  37.3296401  60.6109385   6.9432119  37.9886636
  60.8770970   6.2148969  37.8698697  70.6325845   8.3626912  39.1744818
  71.4524219   8.2189878  39.4361113  70.3519922   8.9873111  39.7161256
  70.7122588   8.4337264  39.2932757  56.0533355   5.0795584  37.8281503
  55.9557633   4.2691856  38.1371560  56.8362225   5.0587378  37.4427772
  56.1549491   4.9562675  37.8168366  87.1039495  16.0191764  32.1387694
  87.0733499  16.8736401  32.3105964  87.7020844  15.7187056  32.6973838
  87.1876653  16.1008260  32.2462496  80.3039180  15.1067415  36.8940625
  79.4477075  15.2675913  36.9449741  80.3506834  14.2359479  36.9145686
  80.1838291  15.0018217  36.9046691  74.6880320  24.6430133  32.6577856
  73.9363219  24.2645671  32.4293901  75.1366331  24.6748566  31.9096666
  74.6429986  24.5915740  32.5135358  83.6132896  21.3753940  46.5001081
  84.3199664  20.8805971  46.6288015  83.8020832  21.8163022  45.7703739
  83.7460802  21.3672291  46.4110126  80.1405280  25.0655502  28.0863403
  79.8056648  25.7432424  27.6507625  80.6532150  24.6760813  27.4980275
  80.1670861  25.1080080  27.9350195  79.6809571  27.0169771  34.0274515
  80.0648950  27.5856670  33.4879290  79.6168712  26.2919281  33.5480331
  79.7282998  26.9945234  33.8768377  83.1491001  17.1659459  39.5372276
  83.6946961  17.8444545  39.5966246  83.0907877  17.0246920  38.6773858
  83.2206915  17.2451460  39.4184337  76.2665076  24.6548525  34.9240629
  76.3675439  23.8448879  35.2337756  75.6706821  24.5605471  34.2940307
  76.1937614  24.5213553  34.8766867  84.9256070  18.5944066  30.4106004
  84.8095596  19.3451752  30.8398142  85.7211956  18.3368019  30.6602091
  85.0260659  18.6678913  30.5110096  76.1065815  29.5726114  36.3255485
  76.7503271  30.0139278  36.7151643  76.4322071  28.7679540  36.2385743
  76.2497644  29.5191309  36.3700962  69.4630120  20.6768811  34.5492962
  69.2280305  19.8436464  34.4425231  69.6015761  20.9573477  33.7354163
  69.4485783  20.5952315  34.4135317  71.7620208  12.8454542  37.4477270
  71.1425239  12.2547189  37.2787285  71.6604071  13.4365977  36.8141593
  71.6557883  12.8458625  37.3282260  76.8086395  22.5838089  31.6975346
  77.1302236  23.1243296  31.0936654  77.4558492  22.0134860  31.8297636
  76.9512450  22.5797264  31.6282382  78.8588103  14.5854084  31.7809733
  79.5568268  14.7642211  32.2731196  79.1740436  14.0624423  31.1580122
  79.0083440  14.5347856  31.7611743  71.4889341  16.3906824  39.6920839
  71.3648037  16.9769269  40.3270658  72.1407625  15.8967019  39.9933114
  71.5662990  16.4045628  39.8306768  79.0476039  20.9724529  31.7689525
  79.4869674  20.3641629  32.2144297  78.8980701  20.5931902  30.9974990
  79.0897504  20.8263000  31.7208692  76.5147682  19.5668541  38.9708350
  77.1596684  19.0740984  38.6519299  76.7549459  19.7093327  39.7974428
  76.6458267  19.5145983  39.0457883  79.0533773  22.4123447  38.6215243
  79.3357016  21.6174852  38.4001998  79.7819933  22.8904034  38.6420304
  79.2023337  22.3658043  38.5918258  77.0314967   9.9546480  35.8631008
  76.7018297  10.4057624  35.1934706  76.3559969   9.8762644  36.4104014
  76.8825403  10.0097616  35.8454231  82.6485375  19.3251710  28.7220294
  82.5636670  20.1812677  28.8669863  83.1369758  19.0496034  29.3902453
  82.7074272  19.4109032  28.8422375  84.2391375   5.9432003  34.1080618
  83.9244816   6.6335482  34.5401041  83.7218316   5.8876786  33.4066119
  84.1155845   6.0366892  34.0677567  83.5803808  15.9436504  30.2218029
  83.0515280  16.1596138  30.8815335  84.1028828  16.6372643  30.1418998
  83.5792261  16.0779641  30.3073628  89.0351861  21.5182809  35.5951073
  88.2049564  21.7293452  35.7584490  88.9861114  20.6919863  35.3193357
  88.9058597  21.4272415  35.5788439  75.4703416  19.8399721  29.0225497
  74.8860631  20.3449752  29.4291361  75.0673511  19.6142108  28.2822089
  75.3242720  19.8807969  28.9730522  71.0247445  25.5554482  35.8249168
  70.5415023  26.2804972  35.8008752  71.8370763  25.8530612  35.9359326
  71.0738192  25.7056836  35.8376448  77.0961599  24.3486663  38.4298983
  76.5788540  23.9894078  37.8260291  77.7935990  23.8248837  38.4405049
  77.1227180  24.2184351  38.3429242  80.7525191  24.7981477  44.3915156
  80.8408537  24.6107617  45.2393366  81.1814903  24.1518907  43.9920003
  80.8287293  24.6744485  44.4586907  78.3195651  24.0812637  43.3732818
  77.7566485  23.6685247  43.8972479  79.0816674  24.0065543  43.7925961
  78.3490099  24.0090037  43.5125818  79.9280631  16.0865373  27.4994417
  80.1676634  16.2943357  26.6869761  80.2496472  15.2822882  27.6083362
  80.0117788  15.9979474  27.3954971  75.2370921   8.0158769  31.3453955
  75.9916889   8.3837086  31.1071006  75.0598455   8.3898323  32.1133135
  75.3225399   8.1256957  31.4238844  73.8791642  26.0710658  35.9769448
  74.5812221  25.5562647  36.0342205  73.7989125  26.3984809  36.7816323
  73.9715402  26.0424884  36.1042240  88.5305820  14.1653209  39.3901495
  87.6934241  14.2355396  39.6249089  88.4994050  14.1677704  38.5175797
  88.4024102  14.1763436  39.2961043  74.9270549  16.3086245  45.1049863
  75.0991052  16.1992140  45.9535145  75.4639906  16.9540650  44.8681056
  75.0315553  16.3878247  45.1954960  73.5927985  10.4229088  28.0432068
  73.4103559  10.6400969  27.2173061  74.4553598  10.5368101  28.0990683
  73.6932575  10.4718986  27.9286555  73.2042417  22.2617010  35.4855056
  74.0431317  22.4939943  35.5328818  73.2354187  21.3921322  35.4162092
  73.3324135  22.1673957  35.4819701  73.8295120  22.6817885  39.7868362
  74.3693345  22.5389016  40.4571734  73.1465067  23.0814636  40.1552388
  73.8087274  22.7197556  39.9402784  79.2727705   7.4255499  31.0781092
  80.0013865   7.2471454  30.6319248  79.3622598   8.2673578  31.2888270
  79.3934367   7.5239377  31.0434610  83.2536005  18.3608886  34.9813386
  84.0093520  18.7940400  35.0202295  83.3598330  17.7113656  35.5548022
  83.3806176  18.3286370  35.0711412  86.2916176  22.1882163  35.7315789
  85.8551408  22.1918906  36.4874761  85.9579092  22.8687662  35.2995367
  86.1778796  22.2894619  35.7796622  80.8645250  24.2290496  47.0558940
  81.6485667  24.3421344  47.4214682  80.6641845  23.4031633  47.2517625
  80.9511275  24.1237215  47.1393326  69.2332266  18.9018176  39.9402783
  68.9670681  18.0857293  40.0993774  69.2470830  18.9471332  39.0698299
  69.1956988  18.7875081  39.8356265  86.2113659   9.2295991  37.9745217
  86.8539568   9.2994096  38.5607132  86.4636680   8.5625214  37.4724759
  86.3435791   9.1422340  37.9872496  73.1390013  13.7003261  26.5554541
  72.4248190  13.4141440  26.9676974  73.6233981  14.0399886  27.1960929
  73.1049376  13.7084910  26.7110176  73.9830872  12.4396554  42.5869791
  73.2902669  11.9693534  42.8330523  74.5991199  12.2134859  43.1611498
  73.9715402  12.3363686  42.7078944  81.0215643  26.1400598  40.7025395
  80.2230889  25.9000098  40.9599264  81.4701655  26.1914991  41.4492443
  80.9690255  26.1122989  40.8510319  89.4260523  18.9063083  34.6235426
  90.0876957  18.3453752  34.5231335  88.7851935  18.4115114  34.9488118
  89.4289390  18.7499492  34.6567767  80.3137330  22.2033214  26.9316350
  80.7288479  21.8718238  26.2400845  79.4829260  21.9702117  26.8036486
  80.2525339  22.1204470  26.8107197  69.6425679  19.6876956  37.2214528
  69.4601252  19.6623842  36.3686820  70.3775348  20.1575893  37.2603436
  69.7239743  19.7538318  37.1012446  85.7125353  19.9228465  34.3647415
  85.9480943  20.0673664  33.5374266  85.8614917  20.6870873  34.7578929
  85.7691157  20.0567520  34.3011019  72.7071431  16.4061958  43.7296636
  73.4311403  16.3914989  44.2161531  72.8087567  17.1157314  43.2318604
  72.8289640  16.5086662  43.7275423  87.5415810  18.7630131  32.2017019
  87.8724027  19.2957772  31.5957114  88.1148898  18.8169019  32.8578970
  87.6749489  18.8499700  32.2094801  80.0816380  19.8861043  48.5945583
  79.2889361  20.2004555  48.7798203  80.1965307  20.1012511  47.7566368
  79.9811791  19.9644880  48.4983918  82.7547699  16.6095034  32.8840599
  82.8494554  17.3484328  33.3380225  82.1306543  16.1812510  33.3175164
  82.6756729  16.6556355  33.0148747  81.0100173  19.7881247  43.5330880
  81.5839035  19.1508491  43.6879444  80.9314977  19.7885329  42.6640538
  81.0833408  19.6946358  43.4277291  69.6096590  16.5670456  37.3713594
  70.1870092  16.4306907  38.0105840  68.9110651  16.1106240  37.6259179
  69.5917611  16.4792722  37.5035884  83.0070721  18.4543774  26.1177551
  82.9250883  18.5245961  26.9832538  83.6450441  19.0173518  25.9261292
  83.0890558  18.5482745  26.2167501  76.3663892  18.2204512  35.5852077
  76.1083136  17.3876247  35.5583377  76.4212375  18.4462125  34.7444578
  76.3363670  18.1302283  35.4572214  81.4464942  10.3232963  35.6856170
  80.7421269   9.8342148  35.8440089  81.4949916  10.3355437  34.8144615
  81.3494993  10.2522610  35.5795510  75.3398604  15.7742274  36.0716972
  74.7648195  15.9334443  36.7080933  74.9634280  15.1377683  35.6085423
  75.2001416  15.7040087  36.0971531  79.0071893  14.2465624  40.9309351
  78.6186325  13.8219841  40.2761542  78.3426591  14.4947773  41.4386377
  78.8518820  14.2204345  40.9097219  88.6495162  14.0040628  33.7057181
  88.3931726  13.1920570  33.5155063  89.4924476  14.0118195  33.4787368
  88.7361187  13.8852626  33.6441998  65.0855423  15.4182349  34.0861413
  65.1715675  15.0414217  34.8674943  65.7131220  15.0442795  33.6081371
  65.1911974  15.3067831  34.1306890  82.8298254   7.9440252  38.4433335
  83.2108766   7.2618423  38.8301209  82.0261538   7.6549854  38.2608999
  82.7674716   7.8007301  38.4737391  80.1110831  18.4764228  29.1286158
  80.9251470  18.7679121  29.0168929  80.0469972  17.8224091  28.5544451
  80.2213570  18.4229423  29.0274995  86.3320321  21.1590224  43.5415733
  86.0958958  20.3278289  43.4227794  86.9763550  21.1075832  44.1270577
  86.3914992  21.0287912  43.6101627  75.9818739  21.9485746  34.2558470
  76.6192686  21.7097493  34.8010263  76.4073811  22.1522905  33.5211630
  76.1394905  21.9436756  34.2275627  70.6731381  24.1874082  38.1392773
  70.7135527  24.4588933  37.3112553  71.2325905  24.7115990  38.5550561
  70.7614727  24.3049837  38.0784662  76.6221554  17.1688035  28.5933359
  77.0066707  16.9495742  29.3449904  76.3733174  17.9950981  28.7234435
  76.6423627  17.2586182  28.7234435  76.7890094  10.4494451  48.3095943
  76.4743536  11.2194013  48.0465506  76.4680027   9.8864707  47.7248170
  76.6949014  10.4804719  48.1837293  87.3556742  20.9434673  39.6044028
  87.0502559  21.6762730  39.9657343  86.6362957  20.5372603  39.3236814
  87.2044084  20.9916406  39.6157165  78.3640211  22.4258168  35.9352256
  78.4379219  22.2633340  36.7894106  79.1809717  22.6148358  35.6912738
  78.4956570  22.4294911  36.0250282  93.0558534  17.5827674  38.9312372
  92.9883034  17.6023633  38.0614959  93.0414196  18.4258001  39.1568043
  93.0437290  17.7101408  38.8364849  72.1245968  22.7716031  32.9646699
  71.2984085  23.0177768  32.8380978  72.1857959  22.6928112  33.8308757
  72.0120135  22.7960980  33.0735644  74.3421991   8.8384972  33.9242140
  73.4744417   8.9107572  33.9899749  74.6297196   9.6407051  34.1130115
  74.2561740   8.9679119  33.9616906  83.4654880   8.9862831  42.2553461
  84.2108472   8.7972642  41.8416887  83.0492185   9.5121069  41.6967318
  83.5139854   9.0364977  42.1118035  76.9044797  25.3892911  30.6665729
  77.1943095  24.9981893  29.9424956  77.6348278  25.5709616  31.1071005
  77.0551681  25.3586725  30.6248536  90.8417151  16.3572060  37.2058966
  91.3925073  15.7240129  37.4456058  90.8261266  16.8887453  37.8974471
  90.9202347  16.3421008  37.3437825  77.4939542  20.1910657  41.7518860
  76.9951236  20.9026425  41.8303748  78.3039766  20.5111324  41.7137022
  77.5395649  20.3437506  41.7575428  74.8450712  27.3660294  33.7325879
  74.6251008  27.0757648  34.5252546  74.6245234  26.7075249  33.2043791
  74.7798306  27.2260002  33.7714788  73.7567659  19.4533610  35.9981581
  73.4680908  18.8271081  36.5327308  74.6251008  19.3953898  36.0646261
  73.8427911  19.3521154  36.0872535  84.5445557  14.5968394  36.3163563
  84.2010323  13.8758729  36.6670812  84.6438600  14.3882245  35.4741921
  84.5087600  14.4592597  36.2435243  77.0118668  28.7389684  32.5156571
  77.6642726  28.2066126  32.7447597  76.3144277  28.3858336  32.9024445
  77.0049386  28.6079207  32.6068739  73.9599933  21.0928861  31.9223946
  74.7145901  21.4741900  32.1359408  73.3670546  21.5440005  32.3770642
  73.9836646  21.2157689  32.0206824  85.0058586  21.0594098  31.8587551
  85.5716619  21.7187308  31.7746094  84.3586490  21.4043796  32.3303953
  84.9937343  21.2076039  31.9160307  76.4206600  13.0491702  47.0481158
  75.6106376  13.3549481  46.9371000  76.8981287  13.7697284  47.1633742
  76.3710079  13.2006303  47.0488229  75.2798159  22.2637423  37.2964061
  74.7578913  22.4037714  37.9815926  75.6672180  21.5048087  37.4866178
  75.2601860  22.1722946  37.4265138  72.2689343  12.3143231  31.3659016
  71.9814139  11.9444502  30.6290963  72.9559812  12.7838087  31.1042721
  72.3278241  12.3290201  31.2174092  81.4765164  24.0032882  31.2824630
  81.2351840  23.2700743  30.8751695  81.6566497  24.5519739  30.6290963
  81.4672788  23.9755273  31.1254853  76.7064485  19.2941442  32.6945552
  76.5107268  19.9016176  32.1005855  76.9298831  18.6009386  32.2137226
  76.7099126  19.2818967  32.5361633  75.1043015  16.1796180  32.8126421
  75.8265667  16.3437338  32.3530227  74.6251008  16.9005844  32.7065760
  75.1406746  16.3094409  32.7292035  83.0636523  12.5159978  38.1923105
  82.2247623  12.5421257  37.9561369  83.1340890  13.1630714  38.7728452
  82.9504916  12.6156104  38.2432222  72.7550632  18.5854252  41.9180560
  73.2671729  18.8638505  41.2689320  72.4686974  19.3243546  42.2843373
  72.7885495  18.7356606  41.8770438  81.5105801   9.4145355  32.9250721
  82.2132154   9.2153104  32.4470680  81.2449990   8.6421298  33.2319565
  81.5752433   9.2708321  32.8996163  86.9394047  17.7227965  35.4784347
  86.8528021  17.8783391  36.3319126  86.4844526  18.3666041  35.1043752
  86.8597303  17.8403720  35.5491454  69.8417538  13.0924444  32.2144297
  69.9433675  13.8950605  32.5425272  70.6373425  12.8911780  31.9167377
  69.9745444  13.1810343  32.2179652  76.2734357  10.6780641  41.9781602
  76.0817554  10.6935775  42.8281026  77.1232953  10.8744315  41.9548257
  76.3710079  10.7094992  42.1004897  70.6581270  13.2071622  39.9565418
  70.5166762  12.3555563  40.0809926  70.9421834  13.2500283  39.1327624
  70.6789116  13.0871372  39.8533043  80.8119863  15.0438712  34.1009907
  80.5654577  14.9634463  34.9346696  81.1404986  14.2592180  33.9072434
  80.8241106  14.9164978  34.1957430  84.7067911  21.7522072  37.8896688
  84.5682271  22.4503117  38.3945430  83.9267909  21.5970728  37.5332870
  84.5711138  21.8322238  37.9122962  83.0445997  18.0518447  44.1419070
  83.0394035  17.1798263  44.1461496  83.7506990  18.2506616  43.6688525
  83.1491001  17.9522321  44.0726105  76.7716890  17.7795431  43.5132890
  76.9160266  18.3596639  42.8776000  77.1192538  18.1571728  44.2182744
  76.8444351  17.9216135  43.5231885  78.9436807  16.9785599  41.2958021
  78.1960121  17.1716614  40.8906299  79.0978332  16.1530819  41.0582143
  78.8559235  16.8850711  41.2003427  75.8444645  25.9698203  40.3793917
  75.9934209  25.4101119  39.7267321  76.6244647  26.0490204  40.7626435
  75.9818738  25.8983768  40.3390866  86.2021284  21.1100325  28.6513187
  85.8228093  20.3237463  28.6442477  85.5387530  21.6587182  28.5084831
  86.0479759  21.0745149  28.6293984  78.3697945  26.1412846  41.6578407
  78.2941617  25.4721656  42.2129196  78.2987805  26.8430634  42.1719074
  78.3478552  26.1457753  41.8155256  79.1838584  10.8736150  42.1853425
  79.6411198  11.6060124  42.3126217  79.2594913  10.4502615  42.9440681
  79.2629554  10.9193388  42.3154502  71.4271575  11.1201970  43.2742869
  70.8913765  10.5082328  43.5903636  71.4889340  11.6950106  43.9276535
  71.3567208  11.1148897  43.4178296  79.0268192  24.6613844  32.4902013
  79.7918083  24.3923488  32.1684678  78.9246282  24.1763855  33.2072076
  79.1249688  24.5503409  32.5481841  77.0620962  12.8638254  39.0295249
  76.2717037  12.6829714  39.3512585  77.4581585  12.0865206  39.0125544
  77.0037838  12.7225715  39.0747798  81.5486853  21.6926028  24.4701963
  82.3159838  21.7526153  24.0607815  81.1018162  21.1206470  23.9858281
  81.5960280  21.6162604  24.3379673  82.4464648  20.4980684  36.7554695
  81.7709650  20.2665916  37.2568082  82.4557025  19.8901867  36.1296800
  82.3483153  20.3739609  36.7370847  79.5758792  15.3398513  43.5118748
  79.5117934  16.2008469  43.3838885  79.7155980  15.0230506  42.7114299
  79.5874262  15.4198680  43.3746961  84.4481383  23.3545816  28.9864873
  84.5301220  24.1612803  28.6626324  84.9331125  23.3741776  29.7105647
  84.5318541  23.4766479  29.0451772  78.2577886  18.0330652  37.6534951
  77.8340135  18.2335151  36.9173969  78.0822741  17.1859500  37.7659251
  78.1688767  17.9379434  37.5608641  77.7589580  29.5481165  40.1156408
  78.2485510  28.8491955  39.9332073  77.1873812  29.2505035  40.7032466
  77.7474110  29.4007389  40.1757449  73.5460331  18.5282704  33.0862923
  73.7024950  18.4629507  33.9418916  73.8860924  19.3031256  32.8741603
  73.6193566  18.6331902  33.1817518  80.0839476  17.9040587  31.9556287
  80.6255021  17.4010968  32.4194907  80.3986035  17.8505782  31.1445772
  80.2103873  17.8220008  31.9040099  83.9556583  22.1143235  49.0683199
  84.7691449  21.8428384  49.2288331  83.7951550  21.8150775  48.2643395
  84.0526532  22.0298161  48.9728605  78.2525926  23.2957939  29.2396315
  78.3218746  22.4372477  29.3789315  79.0314381  23.5129820  28.9115339
  78.3778776  23.2010803  29.2113472  81.2328745  12.7976892  42.0078587
  81.4470715  12.1587806  41.4541941  80.6162644  13.2422716  41.5786449
  81.1734075  12.7687036  41.8629018  82.6433413  25.7195640  33.4532808
  82.2513205  25.4162355  32.7355674  82.7986485  26.5564730  33.2637762
  82.6087003  25.7979477  33.3189305  70.1194593  15.7117654  33.4023691
  70.4993558  16.1302199  32.7383958  69.5449958  16.2931110  33.7092534
  70.0905918  15.8595513  33.3500432  83.3967833  14.4065957  42.9461894
  82.5844515  14.0991847  43.0275067  83.8557768  13.9264957  43.5104606
  83.3448218  14.2902449  43.0416488  82.8073088  22.2845629  33.3938839
  82.4487743  22.4560272  34.1702871  82.3211799  22.7458835  32.8366837
  82.6831785  22.3784600  33.4264108  80.6243474   5.9076828  36.9965930
  79.7537032   5.8815549  36.9499239  80.8783815   5.7354020  36.1791776
  80.5337034   5.8786971  36.8686067  77.5961453  17.9644794  25.9339073
  77.8853978  18.7409677  26.2082647  77.6833252  17.4533526  26.6353572
  77.6515710  18.0036713  26.0781571  80.4921341  15.8126028  47.7290597
  80.9620972  16.4368145  48.1158471  80.5383221  15.1443004  48.2883811
  80.5689217  15.8060709  47.8690668  77.6492614   7.9183056  38.4539400
  77.1331103   7.2263247  38.5790979  77.0886543   8.5853833  38.4001999
  77.4899128   7.9146314  38.4645466  79.7184848   8.4576016  40.2832253
  79.3316601   8.4825047  41.0645783  79.2317785   7.8917695  39.8306770
  79.5897357   8.3771767  40.3320157  83.9677827  23.1749525  44.3406039
  84.6057548  22.6809721  44.0068496  83.3251919  23.1026925  43.7558266
  83.9672054  23.0908533  44.2048394  85.6934827  15.0238671  38.9071955
  85.2662435  14.9365020  38.1520055  85.0560880  15.1316446  39.4926799
  85.5364435  15.0271331  38.8817397  79.3841990   5.3443001  42.5742513
  80.0135108   5.8803302  42.2963583  79.5527852   5.2520360  43.4256079
  79.5019784   5.4104364  42.6591041  79.1855904  10.1314196  44.8468924
  80.0129334   9.8599345  44.9027539  79.2063751  10.9275038  45.2032743
  79.3108755  10.2093950  44.9084107  84.0232084  23.8669333  40.9811396
  84.8124462  23.5158398  41.1013478  84.1975682  24.6805722  40.7188030
  84.1652366  23.9355190  40.9599264  73.7625394  17.2778059  38.0339185
  72.9213401  17.1781933  38.2418079  73.9715402  18.0473539  38.3853506
  73.6690087  17.3770102  38.1166500  71.2400961  14.8997596  35.8623936
  70.8457659  14.9740608  35.0874045  70.6841078  15.2855542  36.4132298
  71.1003774  14.9679371  35.8291596  82.8765908   7.8778890  35.5427815
  83.0815501   7.8101198  36.3884812  82.5492332   8.6837711  35.4748992
  82.8581156   7.9864830  35.6587470  77.5742059  15.2059458  37.2836783
  77.2705197  14.6515446  37.8847190  76.8721480  15.3851668  36.7964817
  77.4258269  15.1504241  37.3006488  76.6308156  12.5159978  31.8481484
  76.9067891  11.7978890  31.4359052  77.2306826  13.1144898  31.6402591
  76.7601421  12.4980349  31.7562246  75.6360410  22.4209179  41.9908880
  75.5280765  22.4311241  42.8570938  75.8456192  23.2463959  41.8013834
  75.6510521  22.5450254  42.0912972  86.1299596   8.4310654  35.0230580
  85.5173909   8.9181056  35.4084312  86.2263771   7.7554145  35.5668231
  86.0537493   8.4028963  35.1609438  80.1318677  10.1873495  30.1228079
  80.5862423  10.3584056  30.8475924  80.6058723   9.5741606  29.7225855
  80.2686997  10.1224381  30.1701841  73.6534202  19.6721821  39.4530818
  73.0622135  20.3131319  39.4233833  74.4155226  20.0959439  39.4262117
  73.6782463  19.8297660  39.4445965  74.0494825  10.8323819  40.1198836
  74.5096307  10.9062748  40.8573959  74.0950932  11.6305073  39.7698657
  74.1245380  10.9617966  40.1771592  75.6978175  11.4990514  44.6870863
  75.3063740  10.8523861  45.1226640  75.8664037  12.0901949  45.3065118
  75.6649085  11.4904782  44.8433569  89.7724624  19.5027591  40.4508096
  89.8307747  19.9514240  41.1968073  89.1391091  19.9126404  40.0138176
  89.6875919  19.6301326  40.4960645  83.4123718  25.1231133  36.8862842
  83.2143407  25.6121947  36.1919054  82.7911429  25.3272374  37.4646976
  83.2911283  25.2247671  36.8686066  77.4731697  16.8916030  31.2273087
  78.2173742  17.2790306  31.4656037  77.6192393  16.0473455  31.3913575
  77.6042282  16.8246502  31.2867056  79.3911272   8.6866289  36.2604948
  78.5447317   8.8589096  36.1346298  79.3882405   7.8815632  36.5970776
  79.2658422   8.5927318  36.2916075  80.4609573  12.4641503  37.1267006
  79.9869527  11.9383265  37.6372317  80.8327708  11.9170976  36.5581868
  80.4459462  12.3057500  37.1182153  70.8382603  14.4613010  42.4950552
  71.7008216  14.3608719  42.4087882  70.5074386  13.8807719  41.9336124
  70.9167799  14.3604636  42.3995958  86.7246303  17.5243879  38.5373787
  86.4844526  16.6850294  38.5416213  87.2038310  17.6044045  39.2614560
  86.7598487  17.4125278  38.6448589  82.3893072  13.3578058  30.1892760
  81.8616091  13.4406802  29.4998469  82.8488780  14.0995929  30.1857405
  82.3794923  13.4798720  30.0867455  88.7251490  14.3045336  36.4903046
  88.4861260  14.2641170  35.6523830  88.8885391  15.1516488  36.6168767
  88.7141794  14.4237421  36.3856528  85.3297520  18.6895285  42.4208091
  86.0531719  18.2367812  42.2419111  85.0647483  18.9699951  41.6380419
  85.3978794  18.6646254  42.2786806  74.1984389  13.2855459  39.1560970
  73.5737459  13.2973851  38.5486923  73.8629984  13.7615634  39.8052210
  74.0569881  13.3573976  39.1617539  74.3826137  11.6280577  25.2133655
  74.0338942  12.2800302  25.6765204  73.9022583  11.6137690  24.4857526
  74.2596381  11.7223631  25.1744746  70.9110064  21.3455919  40.5964734
  70.3809989  20.6548358  40.6459709  71.1835158  21.3366104  39.7677443
  70.8734787  21.2423051  40.4812150  81.9430155  21.9281621  29.3202417
  82.6664354  22.3939734  29.1766990  81.5030746  21.9955231  28.5700014
  81.9845847  22.0065458  29.1887198  81.1116310  18.7879163  40.5703106
  80.4973303  18.2437214  40.8651741  81.6283595  18.2743400  40.0908922
  81.0971972  18.6315572  40.5427334  80.3512607  19.8583433  38.3047405
  79.9240215  19.2333152  37.8712840  80.3437551  19.5758355  39.1306412
  80.2871748  19.7236214  38.3627232  73.4675134  14.8948606  41.3735838
  73.6268621  14.1391931  41.7787560  73.2868028  15.4439546  42.0276576
  73.4640493  14.8642420  41.5298544  81.4095437   7.0609842  41.9286628
  80.9135998   7.2573516  41.2378195  82.1664499   7.4602510  41.7575430
  81.4482262   7.1487576  41.8006765  78.6798317  10.7352188  38.5189939
  78.7040804  10.2012300  37.8302718  78.9309790  10.2269497  39.1815529
  78.7208235  10.5813092  38.5154583  66.1905907  18.0183683  37.9533083
  66.0849356  17.9730527  37.0885167  65.4406127  18.3637464  38.2347367
  66.0641509  18.0624591  37.8670412  74.9599639   9.4623006  37.8995683
  74.9998011   9.9632213  38.6130390  74.1349304   9.5533400  37.6301606
  74.8439165   9.5504823  37.9646221  77.1429252  19.0283746  46.0015977
  76.2924882  19.1655460  46.1373622  77.3057380  18.2947524  46.4463679
  77.0413115  18.9397847  46.0871577  76.3814002  15.9783516  40.1969582
  75.5505932  16.1457334  39.9904830  76.3265519  15.6019467  40.9818467
  76.2503417  15.9473247  40.2818110  74.1897786   9.4692409  45.8325993
  74.8150489   8.9254542  46.1055425  73.7348266   8.9887327  45.2633783
  74.2146046   9.3181890  45.7887586  74.7550046  14.2539108  30.7259700
  74.8953007  14.7511572  31.4288341  75.2532579  13.5525402  30.8673913
  74.8491127  14.2241086  30.8511279  74.7850269  15.1206219  28.0552276
  75.4195348  15.7166644  27.9901738  74.8675879  14.8209676  28.8698147
  74.8906820  15.1647127  28.1655363  87.7632834  17.6521696  40.9238641
  88.3550675  18.2918947  40.9556839  88.1991829  16.9544733  41.2130707
  87.9151266  17.6440046  40.9719473  76.3629251  11.0520194  28.0297718
  76.6845092  10.5723277  27.3756981  76.6256195  11.8619840  27.8388530
  76.4495277  11.1010092  27.9053210  79.5926224  22.0739068  41.5496534
  79.0851315  22.6274915  41.9937165  79.2952870  22.1347358  40.7315309
  79.4731109  22.1645380  41.4944991  81.7588406  10.4392388  40.3921197
  82.1843478   9.9864914  39.7804724  81.1445399   9.8852459  40.6685985
  81.7317052  10.2906364  40.3426223  71.2903256  17.3174059  31.3241822
  71.7995486  17.9138567  31.7053128  71.7637529  17.0500033  30.6418242
  71.4346632  17.3659875  31.2796345  82.2034004  25.9902326  29.4800478
  81.4863314  25.8163188  29.0147715  82.8540742  25.7554898  28.9475964
  82.1935855  25.9298119  29.3329696  80.1982629   6.9107488  33.8011774
  79.5550947   6.7605134  34.3696913  79.8582036   6.6649833  33.0360879
  80.0527707   6.8519610  33.7714790  84.7881976  14.8666915  33.2241783
  84.1173166  15.4096617  33.0954849  85.4821726  15.3361770  32.9823478
  84.7910843  15.0165186  33.1697311  78.8368709  27.0063627  38.4553541
  78.6134364  26.2482456  38.8237568  78.3478553  27.0361648  37.7333981
  78.7312158  26.8985851  38.4030282  84.9510103  11.3222798  36.1332156
  85.3037713  10.8952521  36.8077955  84.0924905  11.2373642  36.2633233
  84.8759548  11.2467539  36.2527167  73.6493788  13.9530318  34.1915003
  72.9305777  14.3694451  34.4587866  74.0206150  14.5184557  33.6406641
  73.5985720  14.0979599  34.1497810  82.9493369  14.5858167  40.0816999
  82.9291296  14.4041462  40.9351777  82.9972570  15.4570185  40.0576582
  82.9528010  14.6874705  40.2040293  80.8939699  21.1745359  46.0065475
  80.8535554  20.5295036  45.4210631  81.7063017  21.1181976  46.3190887
  81.0082852  21.0704326  45.9662424  77.4847166  27.2264085  35.9090626
  77.0707565  26.5638215  35.5194468  78.1694541  27.3741944  35.3886320
  77.5245538  27.1504743  35.7747123  80.8512461  26.3854170  36.6614243
  80.4528744  26.4956440  35.8935063  80.2363680  26.5936236  37.2440802
  80.7011350  26.4327738  36.6345542  79.4240363  12.9928318  29.5288382
  78.8305202  13.3145314  28.9772949  79.4615640  12.1469413  29.3209488
  79.3414752  12.9152646  29.4171154  86.3834163   6.4441210  37.0616469
  85.8765028   5.7370350  36.9937646  87.1801597   6.1134399  37.1917545
  86.4261402   6.2914361  37.0715464  82.2998179  12.9507822  32.9590132
  82.0711872  12.9740524  32.1168491  82.5596255  12.1265289  33.0785143
  82.3044367  12.8323902  32.8515330  76.5817408  14.8042295  42.5615233
  76.0696311  14.1963478  42.9200264  76.4096904  15.5198888  43.0289208
  76.4807045  14.8205595  42.6831456  71.4283122  13.2479871  45.2117594
  71.2585713  13.9081246  44.6665801  70.9849072  13.4586432  45.9330084
  71.3382456  13.3765853  45.2379224  75.3542942  11.4884369  34.2544328
  75.8300308  11.8501448  33.6194509  74.8531541  12.1440836  34.5344471
  75.3508301  11.6378557  34.2021069  88.5854303  20.9606137  30.0457333
  88.9687909  21.7097493  30.2755430  87.7898417  21.2071956  29.7869322
  88.5248085  21.1075831  30.0414907  80.4586478  12.7266540  45.0017488
  81.0157908  12.4980350  44.3695954  80.1347543  13.4872206  44.7252701
  80.4932888  12.8050377  44.8673985  68.3285187  16.1526736  40.4706084
  67.7811906  15.4827382  40.5886953  69.1177565  15.7856584  40.5349552
  68.3637370  15.9991723  40.4974785  78.1769595  15.8134193  45.9669495
  78.9280922  16.1285870  46.2809050  78.3692172  15.6113364  45.1403417
  78.3161009  15.8301575  45.8912891  77.3969595  13.6325568  27.6217712
  77.7768560  13.6505198  26.8368827  76.6562191  14.0779557  27.5008559
  77.3438433  13.7007343  27.4881280  85.0254885  11.9407760  33.2093291
  85.0249112  11.7856416  34.0677567  84.8211065  12.7870747  33.1534676
  84.9954663  12.0428380  33.3281230  67.0872156  15.3647544  37.6252107
  66.9093917  14.9124153  38.3507023  66.7991178  16.1673705  37.8090585
  67.0185109  15.4170102  37.7595610  82.7495737  16.6205261  36.8629498
  83.2449403  15.9028256  36.8233518  81.9395513  16.3176059  36.7483985
  82.7039631  16.4702908  36.8403224  78.1954349  20.4703075  29.0126502
  77.3865672  20.1469748  28.9659812  78.7029258  19.7636297  28.9454751
  78.1504016  20.3184391  28.9956797  68.8244626  17.8975268  34.7373866
  67.9590146  17.8860958  34.6256638  68.9243442  17.7105491  35.5845006
  68.7118793  17.8681329  34.8462811  84.8147556  19.3708949  39.5506626
  85.2402628  18.8483371  38.9977051  84.4504476  19.9689786  39.0295249
  84.8234159  19.3819176  39.3915636  74.4501636  27.6673166  38.3103972
  74.7648195  28.4809555  38.3181754  74.8595049  27.2823385  38.9786131
  74.5569734  27.7301869  38.4108064  81.4026156  23.0843213  35.8807784
  81.8737334  23.7983476  36.0497769  81.7386334  22.4841963  36.4167653
  81.5221271  23.1014677  35.9840160  83.4903140  24.6944527  48.0599856
  83.6000106  23.9053087  48.4156603  83.8194037  24.6050463  47.2574194
  83.5555546  24.5650379  47.9942247  78.3195651   7.8570684  42.8365879
  78.4523556   7.0601677  43.1646854  78.7040803   8.3837087  43.4164154
  78.3951979   7.8170600  42.9709382  82.0400102  22.8761147  42.6435477
  81.4921048  22.2519031  42.3755542  82.5013131  23.0655419  41.9279556
  82.0267311  22.8120198  42.4985908  81.3928006   4.7801010  39.4346972
  80.5873969   4.6698740  39.7514810  81.2634741   4.8813466  38.5776838
  81.2548139   4.7784680  39.3555012  84.8493966  10.9446502  40.0286669
  84.2656955  11.4455708  39.6164236  85.1698260  10.4376058  39.3950992
  84.8107142  10.9438337  39.8745176  77.3888765   9.8587097  30.3045344
  78.2104460  10.0285409  30.0627039  76.9258416  10.0134358  29.5811641
  77.4419928   9.9068830  30.1616988  75.9784097   7.8529859  41.0843772
  76.5228510   7.5120986  41.6748114  76.0321033   8.7115320  41.2265057
  76.0673217   7.9285118  41.1925646  71.7914656  21.6146275  37.9582580
  72.3959514  21.5742109  37.3296401  71.5841969  22.4617427  37.9886636
  71.8503553  21.7334277  37.8698697  81.6058428  23.8812220  39.1744818
  82.4256802  23.7375186  39.4361113  81.3252506  24.5058419  39.7161256
  81.6855172  23.9522572  39.2932757  67.0265938  20.5980892  37.8281503
  66.9290216  19.7877164  38.1371560  67.8094808  20.5772686  37.4427772
  67.1282075  20.4747983  37.8168366  98.0772079  31.5377072  32.1387694
  98.0466083  32.3921708  32.3105964  98.6753427  31.2372364  32.6973838
  98.1609237  31.6193568  32.2462496  91.2771764  30.6252723  36.8940625
  90.4209659  30.7861221  36.9449741  91.3239417  29.7544787  36.9145686
  91.1570875  30.5203525  36.9046691  85.6612903  40.1615441  32.6577856
  84.9095803  39.7830979  32.4293901  86.1098915  40.1933874  31.9096666
  85.6162570  40.1101048  32.5135358  94.5865480  36.8939248  46.5001081
  95.2932247  36.3991279  46.6288015  94.7753415  37.3348330  45.7703739
  94.7193386  36.8857599  46.4110126  91.1137863  40.5840810  28.0863403
  90.7789232  41.2617732  27.6507625  91.6264734  40.1946121  27.4980275
  91.1403444  40.6265388  27.9350195  90.6542154  42.5355079  34.0274515
  91.0381534  43.1041977  33.4879290  90.5901296  41.8104589  33.5480331
  90.7015582  42.5130542  33.8768377  94.1223585  32.6844767  39.5372276
  94.6679545  33.3629853  39.5966246  94.0640461  32.5432228  38.6773858
  94.1939499  32.7636768  39.4184337  87.2397659  40.1733833  34.9240629
  87.3408022  39.3634187  35.2337756  86.6439405  40.0790779  34.2940307
  87.1670198  40.0398861  34.8766867  95.8988653  34.1129374  30.4106004
  95.7828179  34.8637060  30.8398142  96.6944540  33.8553327  30.6602091
  95.9993243  34.1864221  30.5110096  87.0798399  45.0911422  36.3255485
  87.7235854  45.5324586  36.7151643  87.4054655  44.2864848  36.2385743
  87.2230228  45.0376617  36.3700962  80.4362704  36.1954119  34.5492962
  80.2012888  35.3621772  34.4425231  80.5748344  36.4758785  33.7354163
  80.4218366  36.1137623  34.4135317  82.7352791  28.3639850  37.4477270
  82.1157823  27.7732497  37.2787285  82.6336655  28.9551285  36.8141593
  82.6290467  28.3643932  37.3282260  87.7818979  38.1023397  31.6975346
  88.1034820  38.6428604  31.0936654  88.4291075  37.5320168  31.8297636
  87.9245034  38.0982572  31.6282382  89.8320687  30.1039392  31.7809733
  90.5300851  30.2827519  32.2731196  90.1473019  29.5809731  31.1580122
  89.9816024  30.0533164  31.7611743  82.4621924  31.9092132  39.6920839
  82.3380621  32.4954577  40.3270658  83.1140209  31.4152327  39.9933114
  82.5395573  31.9230936  39.8306768  90.0208622  36.4909837  31.7689525
  90.4602258  35.8826937  32.2144297  89.8713285  36.1117210  30.9974990
  90.0630088  36.3448308  31.7208692  87.4880265  35.0853849  38.9708350
  88.1329268  34.5926292  38.6519299  87.7282042  35.2278635  39.7974428
  87.6190850  35.0331291  39.0457883  90.0266357  37.9308754  38.6215243
  90.3089599  37.1360160  38.4001998  90.7552517  38.4089342  38.6420304
  90.1755920  37.8843351  38.5918258  88.0047550  25.4731788  35.8631008
  87.6750880  25.9242932  35.1934706  87.3292552  25.3947952  36.4104014
  87.8557987  25.5282924  35.8454231  93.6217959  34.8437018  28.7220294
  93.5369254  35.6997985  28.8669863  94.1102342  34.5681342  29.3902453
  93.6806856  34.9294339  28.8422375  95.2123958  21.4617311  34.1080618
  94.8977399  22.1520790  34.5401041  94.6950900  21.4062094  33.4066119
  95.0888429  21.5552200  34.0677567  94.5536392  31.4621812  30.2218029
  94.0247863  31.6781446  30.8815335  95.0761412  32.1557951  30.1418998
  94.5524845  31.5964949  30.3073628 100.0084445  37.0368117  35.5951073
  99.1782148  37.2478760  35.7584490  99.9593697  36.2105171  35.3193357
  99.8791180  36.9457723  35.5788439  86.4436000  35.3585029  29.0225497
  85.8593215  35.8635060  29.4291361  86.0406095  35.1327416  28.2822089
  86.2975304  35.3993277  28.9730522  81.9980028  41.0739790  35.8249168
  81.5147607  41.7990280  35.8008752  82.8103347  41.3715920  35.9359326
  82.0470776  41.2242144  35.8376448  88.0694182  39.8671971  38.4298983
  87.5521124  39.5079386  37.8260291  88.7668574  39.3434145  38.4405049
  88.0959764  39.7369659  38.3429242  91.7257774  40.3166785  44.3915156
  91.8141120  40.1292925  45.2393366  92.1547487  39.6704214  43.9920003
  91.8019877  40.1929793  44.4586907  89.2928234  39.5997945  43.3732818
  88.7299069  39.1870555  43.8972479  90.0549258  39.5250851  43.7925961
  89.3222683  39.5275345  43.5125818  90.9013214  31.6050681  27.4994417
  91.1409218  31.8128665  26.6869761  91.2229055  30.8008190  27.6083362
  90.9850372  31.5164782  27.3954971  86.2103504  23.5344077  31.3453955
  86.9649472  23.9022394  31.1071006  86.0331039  23.9083631  32.1133135
  86.2957983  23.6442265  31.4238844  84.8524226  41.5895966  35.9769448
  85.5544805  41.0747955  36.0342205  84.7721709  41.9170117  36.7816323
  84.9447986  41.5610192  36.1042240  99.5038403  29.6838517  39.3901495
  98.6666824  29.7540704  39.6249089  99.4726634  29.6863012  38.5175797
  99.3756686  29.6948744  39.2961043  85.9003132  31.8271553  45.1049863
  86.0723636  31.7177448  45.9535145  86.4372490  32.4725958  44.8681056
  86.0048136  31.9063555  45.1954960  84.5660569  25.9414396  28.0432068
  84.3836142  26.1586277  27.2173061  85.4286182  26.0553409  28.0990683
  84.6665159  25.9904294  27.9286555  84.1775001  37.7802318  35.4855056
  85.0163900  38.0125251  35.5328818  84.2086770  36.9106629  35.4162092
  84.3056719  37.6859264  35.4819701  84.8027704  38.2003193  39.7868362
  85.3425929  38.0574324  40.4571734  84.1197650  38.5999944  40.1552388
  84.7819858  38.2382864  39.9402784  90.2460288  22.9440806  31.0781092
  90.9746449  22.7656761  30.6319248  90.3355181  23.7858886  31.2888270
  90.3666950  23.0424685  31.0434610  94.2268589  33.8794194  34.9813386
  94.9826104  34.3125708  35.0202295  94.3330913  33.2298964  35.5548022
  94.3538760  33.8471678  35.0711412  97.2648760  37.7067471  35.7315789
  96.8283992  37.7104214  36.4874761  96.9311676  38.3872970  35.2995367
  97.1511380  37.8079927  35.7796622  91.8377834  39.7475804  47.0558940
  92.6218250  39.8606652  47.4214682  91.6374428  38.9216941  47.2517625
  91.9243859  39.6422523  47.1393326  80.2064849  34.4203484  39.9402783
  79.9403264  33.6042601  40.0993774  80.2203413  34.4656640  39.0698299
  80.1689571  34.3060389  39.8356265  97.1846243  24.7481299  37.9745217
  97.8272151  24.8179404  38.5607132  97.4369264  24.0810522  37.4724759
  97.3168375  24.6607648  37.9872496  84.1122596  29.2188568  26.5554541
  83.3980773  28.9326748  26.9676974  84.5966565  29.5585194  27.1960929
  84.0781959  29.2270218  26.7110176  84.9563455  27.9581862  42.5869791
  84.2635252  27.4878842  42.8330523  85.5723783  27.7320167  43.1611498
  84.9447985  27.8548994  42.7078944  91.9948227  41.6585906  40.7025395
  91.1963473  41.4185406  40.9599264  92.4434239  41.7100299  41.4492443
  91.9422838  41.6308297  40.8510319 100.3993106  34.4248391  34.6235426
 101.0609540  33.8639059  34.5231335  99.7584518  33.9300422  34.9488118
 100.4021974  34.2684800  34.6567767  91.2869914  37.7218522  26.9316350
  91.7021062  37.3903546  26.2400845  90.4561844  37.4887425  26.8036486
  91.2257923  37.6389778  26.8107197  80.6158263  35.2062263  37.2214528
  80.4333836  35.1809149  36.3686820  81.3507932  35.6761201  37.2603436
  80.6972327  35.2723626  37.1012446  96.6857937  35.4413773  34.3647415
  96.9213526  35.5858972  33.5374266  96.8347501  36.2056181  34.7578929
  96.7423740  35.5752828  34.3011019  83.6804014  31.9247266  43.7296636
  84.4043987  31.9100297  44.2161531  83.7820151  32.6342622  43.2318604
  83.8022224  32.0271969  43.7275423  98.5148394  34.2815439  32.2017019
  98.8456611  34.8143079  31.5957114  99.0881482  34.3354327  32.8578970
  98.6482073  34.3685008  32.2094801  91.0548964  35.4046351  48.5945583
  90.2621945  35.7189863  48.7798203  91.1697891  35.6197819  47.7566368
  90.9544374  35.4830188  48.4983918  93.7280283  32.1280342  32.8840599
  93.8227137  32.8669636  33.3380225  93.1039126  31.6997818  33.3175164
  93.6489313  32.1741663  33.0148747  91.9832757  35.3066555  43.5330880
  92.5571618  34.6693799  43.6879444  91.9047560  35.3070637  42.6640538
  92.0565992  35.2131666  43.4277291  80.5829173  32.0855764  37.3713594
  81.1602676  31.9492215  38.0105840  79.8843235  31.6291548  37.6259179
  80.5650195  31.9978030  37.5035884  93.9803304  33.9729082  26.1177551
  93.8983467  34.0431269  26.9832538  94.6183025  34.5358826  25.9261292
  94.0623142  34.0668053  26.2167501  87.3396475  33.7389820  35.5852077
  87.0815720  32.9061555  35.5583377  87.3944958  33.9647433  34.7444578
  87.3096253  33.6487591  35.4572214  92.4197525  25.8418270  35.6856170
  91.7153852  25.3527456  35.8440089  92.4682500  25.8540745  34.8144615
  92.3227577  25.7707918  35.5795510  86.3131187  31.2927582  36.0716972
  85.7380779  31.4519751  36.7080933  85.9366864  30.6562991  35.6085423
  86.1734000  31.2225395  36.0971531  89.9804476  29.7650932  40.9309351
  89.5918909  29.3405149  40.2761542  89.3159174  30.0133081  41.4386377
  89.8251404  29.7389653  40.9097219  99.6227745  29.5225936  33.7057181
  99.3664310  28.7105878  33.5155063 100.4657059  29.5303503  33.4787368
  99.7093771  29.4037934  33.6441998  76.0588006  30.9367657  34.0861413
  76.1448258  30.5599525  34.8674943  76.6863804  30.5628103  33.6081371
  76.1644557  30.8253139  34.1306890  93.8030838  23.4625560  38.4433335
  94.1841349  22.7803731  38.8301209  92.9994122  23.1735162  38.2608999
  93.7407299  23.3192609  38.4737391  91.0843414  33.9949536  29.1286158
  91.8984053  34.2864429  29.0168929  91.0202556  33.3409398  28.5544451
  91.1946153  33.9414731  29.0274995  97.3052904  36.6775532  43.5415733
  97.0691542  35.8463597  43.4227794  97.9496133  36.6261139  44.1270577
  97.3647575  36.5473220  43.6101627  86.9551323  37.4671054  34.2558470
  87.5925270  37.2282801  34.8010263  87.3806394  37.6708212  33.5211630
  87.1127489  37.4622064  34.2275627  81.6463965  39.7059390  38.1392773
  81.6868110  39.9774241  37.3112553  82.2058489  40.2301298  38.5550561
  81.7347311  39.8235145  38.0784662  87.5954138  32.6873343  28.5933359
  87.9799290  32.4681050  29.3449904  87.3465758  33.5136289  28.7234435
  87.6156210  32.7771490  28.7234435  87.7622678  25.9679759  48.3095943
  87.4476119  26.7379321  48.0465506  87.4412611  25.4050015  47.7248170
  87.6681597  25.9990027  48.1837293  98.3289325  36.4619981  39.6044028
  98.0235142  37.1948038  39.9657343  97.6095541  36.0557910  39.3236814
  98.1776667  36.5101714  39.6157165  89.3372795  37.9443476  35.9352256
  89.4111803  37.7818648  36.7894106  90.1542301  38.1333666  35.6912738
  89.4689153  37.9480219  36.0250282 104.0291117  33.1012982  38.9312372
 103.9615618  33.1208941  38.0614959 104.0146780  33.9443309  39.1568043
 104.0169874  33.2286716  38.8364849  83.0978551  38.2901339  32.9646699
  82.2716669  38.5363076  32.8380978  83.1590542  38.2113420  33.8308757
  82.9852718  38.3146288  33.0735644  85.3154575  24.3570280  33.9242140
  84.4477000  24.4292879  33.9899749  85.6029779  25.1592359  34.1130115
  85.2294323  24.4864427  33.9616906  94.4387464  24.5048139  42.2553461
  95.1841056  24.3157950  41.8416887  94.0224768  25.0306377  41.6967318
  94.4872438  24.5550285  42.1118035  87.8777380  40.9078219  30.6665729
  88.1675679  40.5167201  29.9424956  88.6080861  41.0894924  31.1071005
  88.0284264  40.8772033  30.6248536 101.8149735  31.8757368  37.2058966
 102.3657656  31.2425437  37.4456058 101.7993850  32.4072761  37.8974471
 101.8934931  31.8606316  37.3437825  88.4672125  35.7095965  41.7518860
  87.9683819  36.4211733  41.8303748  89.2772350  36.0296632  41.7137022
  88.5128232  35.8622814  41.7575428  85.8183296  42.8845602  33.7325879
  85.5983591  42.5942956  34.5252546  85.5977818  42.2260557  33.2043791
  85.7530890  42.7445310  33.7714788  84.7300243  34.9718918  35.9981581
  84.4413492  34.3456389  36.5327308  85.5983591  34.9139206  36.0646261
  84.8160495  34.8706462  36.0872535  95.5178141  30.1153702  36.3163563
  95.1742907  29.3944037  36.6670812  95.6171183  29.9067553  35.4741921
  95.4820184  29.9777905  36.2435243  87.9851252  44.2574992  32.5156571
  88.6375310  43.7251434  32.7447597  87.2876860  43.9043644  32.9024445
  87.9781970  44.1264515  32.6068739  84.9332516  36.6114169  31.9223946
  85.6878484  36.9927208  32.1359408  84.3403129  37.0625313  32.3770642
  84.9569230  36.7342997  32.0206824  95.9791170  36.5779406  31.8587551
  96.5449203  37.2372616  31.7746094  95.3319073  36.9229104  32.3303953
  95.9669926  36.7261347  31.9160307  87.3939183  28.5677010  47.0481158
  86.5838959  28.8734789  46.9371000  87.8713870  29.2882592  47.1633742
  87.3442662  28.7191611  47.0488229  86.2530743  37.7822731  37.2964061
  85.7311497  37.9223022  37.9815926  86.6404763  37.0233395  37.4866178
  86.2334444  37.6908254  37.4265138  83.2421927  27.8328539  31.3659016
  82.9546723  27.4629810  30.6290963  83.9292395  28.3023395  31.1042721
  83.3010824  27.8475509  31.2174092  92.4497748  39.5218190  31.2824630
  92.2084424  38.7886050  30.8751695  92.6299081  40.0705047  30.6290963
  92.4405372  39.4940581  31.1254853  87.6797069  34.8126750  32.6945552
  87.4839851  35.4201484  32.1005855  87.9031414  34.1194694  32.2137226
  87.6831710  34.8004275  32.5361633  86.0775599  31.6981488  32.8126421
  86.7998251  31.8622646  32.3530227  85.5983591  32.4191152  32.7065760
  86.1139329  31.8279717  32.7292035  94.0369106  28.0345286  38.1923105
  93.1980207  28.0606565  37.9561369  94.1073474  28.6816022  38.7728452
  93.9237500  28.1341412  38.2432222  83.7283215  34.1039560  41.9180560
  84.2404312  34.3823813  41.2689320  83.4419558  34.8428854  42.2843373
  83.7618078  34.2541914  41.8770438  92.4838385  24.9330663  32.9250721
  93.1864737  24.7338412  32.4470680  92.2182573  24.1606606  33.2319565
  92.5485017  24.7893629  32.8996163  97.9126630  33.2413273  35.4784347
  97.8260605  33.3968699  36.3319126  97.4577110  33.8851349  35.1043752
  97.8329887  33.3589028  35.5491454  80.8150122  28.6109752  32.2144297
  80.9166258  29.4135913  32.5425272  81.6106008  28.4097088  31.9167377
  80.9478027  28.6995651  32.2179652  87.2466941  26.1965949  41.9781602
  87.0550138  26.2121083  42.8281026  88.0965537  26.3929623  41.9548257
  87.3442663  26.2280300  42.1004897  81.6313854  28.7256930  39.9565418
  81.4899346  27.8740871  40.0809926  81.9154417  28.7685591  39.1327624
  81.6521700  28.6056680  39.8533043  91.7852446  30.5624020  34.1009907
  91.5387160  30.4819771  34.9346696  92.1137569  29.7777488  33.9072434
  91.7973690  30.4350286  34.1957430  95.6800495  37.2707380  37.8896688
  95.5414854  37.9688425  38.3945430  94.9000493  37.1156036  37.5332870
  95.5443722  37.3507546  37.9122962  94.0178580  33.5703755  44.1419070
  94.0126619  32.6983571  44.1461496  94.7239574  33.7691924  43.6688525
  94.1223584  33.4707629  44.0726105  87.7449473  33.2980739  43.5132890
  87.8892849  33.8781947  42.8776000  88.0925122  33.6757035  44.2182744
  87.8176935  33.4401443  43.5231885  89.9169391  32.4970907  41.2958021
  89.1692705  32.6901922  40.8906299  90.0710916  31.6716127  41.0582143
  89.8291818  32.4036019  41.2003427  86.8177228  41.4883511  40.3793917
  86.9666792  40.9286426  39.7267321  87.5977230  41.5675512  40.7626435
  86.9551322  41.4169076  40.3390866  97.1753868  36.6285633  28.6513187
  96.7960677  35.8422771  28.6442477  96.5120113  37.1772490  28.5084831
  97.0212343  36.5930457  28.6293984  89.3430529  41.6598153  41.6578407
  89.2674200  40.9906964  42.2129196  89.2720388  42.3615942  42.1719074
  89.3211136  41.6643061  41.8155256  90.1571168  26.3921458  42.1853425
  90.6143782  27.1245432  42.3126217  90.2327497  25.9687923  42.9440681
  90.2362138  26.4378696  42.3154502  82.4004159  26.6387278  43.2742869
  81.8646348  26.0267636  43.5903636  82.4621924  27.2135414  43.9276535
  82.3299792  26.6334205  43.4178296  94.6298494  19.5711333  36.0547268
  94.7482062  20.0287796  35.3214571  94.4560669  18.7656594  35.7683486
  94.6217665  19.5205105  35.9048202  90.0000776  40.1799152  32.4902013
  90.7650667  39.9108796  32.1684678  89.8978866  39.6949163  33.2072076
  90.0982271  40.0688717  32.5481841  88.0353546  28.3823562  39.0295249
  87.2449620  28.2015022  39.3512585  88.4314169  27.6050514  39.0125544
  87.9770422  28.2411023  39.0747798  92.5219436  37.2111336  24.4701963
  93.2892422  37.2711461  24.0607815  92.0750745  36.6391778  23.9858281
  92.5692864  37.1347912  24.3379673  93.4197232  36.0165992  36.7554695
  92.7442234  35.7851224  37.2568082  93.4289608  35.4087175  36.1296800
  93.3215737  35.8924917  36.7370847  90.5491376  30.8583821  43.5118748
  90.4850517  31.7193777  43.3838885  90.6888564  30.5415814  42.7114299
  90.5606846  30.9383988  43.3746961  95.4213967  38.8731124  28.9864873
  95.5033804  39.6798111  28.6626324  95.9063709  38.8927084  29.7105647
  95.5051124  38.9951787  29.0451772  89.2310470  33.5515960  37.6534951
  88.8072719  33.7520459  36.9173969  89.0555325  32.7044808  37.7659251
  89.1421350  33.4564742  37.5608641  88.7322163  45.0666473  40.1156408
  89.2218094  44.3677262  39.9332073  88.1606396  44.7690343  40.7032466
  88.7206693  44.9192697  40.1757449  84.5192915  34.0468012  33.0862923
  84.6757534  33.9814814  33.9418916  84.8593508  34.8216564  32.8741603
  84.5926150  34.1517210  33.1817518  91.0572059  33.4225895  31.9556287
  91.5987605  32.9196276  32.4194907  91.3718618  33.3691090  31.1445772
  91.1836457  33.3405316  31.9040099  94.9289167  37.6328543  49.0683199
  95.7424032  37.3613691  49.2288331  94.7684133  37.3336083  48.2643395
  95.0259115  37.5483469  48.9728605  89.2258509  38.8143247  29.2396315
  89.2951329  37.9557785  29.3789315  90.0046964  39.0315128  28.9115339
  89.3511359  38.7196111  29.2113472  92.2061329  28.3162200  42.0078587
  92.4203298  27.6773114  41.4541941  91.5895228  28.7608024  41.5786449
  92.1466658  28.2872343  41.8629018  93.6165997  41.2380948  33.4532808
  93.2245788  40.9347663  32.7355674  93.7719069  42.0750038  33.2637762
  93.5819587  41.3164785  33.3189305  81.0927176  31.2302962  33.4023691
  81.4726141  31.6487507  32.7383958  80.5182541  31.8116418  33.7092534
  81.0638501  31.3780821  33.3500432  94.3700417  29.9251265  42.9461894
  93.5577099  29.6177155  43.0275067  94.8290351  29.4450265  43.5104606
  94.3180802  29.8087757  43.0416488  93.7805672  37.8030937  33.3938839
  93.4220326  37.9745580  34.1702871  93.2944382  38.2644143  32.8366837
  93.6564368  37.8969908  33.4264108  91.5976057  21.4262135  36.9965930
  90.7269615  21.4000857  36.9499239  91.8516399  21.2539328  36.1791776
  91.5069618  21.3972279  36.8686067  88.5694037  33.4830102  25.9339073
  88.8586562  34.2594985  26.2082647  88.6565836  32.9718834  26.6353572
  88.6248293  33.5222021  26.0781571  91.4653924  31.3311336  47.7290597
  91.9353556  31.9553453  48.1158471  91.5115805  30.6628312  48.2883811
  91.5421800  31.3246017  47.8690668  88.6225198  23.4368364  38.4539400
  88.1063687  22.7448555  38.5790979  88.0619127  24.1039141  38.4001999
  88.4631711  23.4331622  38.4645466  90.6917431  23.9761324  40.2832253
  90.3049185  24.0010355  41.0645783  90.2050369  23.4103003  39.8306770
  90.5629940  23.8957075  40.3320157  94.9410411  38.6934833  44.3406039
  95.5790131  38.1995029  44.0068496  94.2984502  38.6212233  43.7558266
  94.9404637  38.6093841  44.2048394  96.6667411  30.5423979  38.9071955
  96.2395019  30.4550327  38.1520055  96.0293464  30.6501754  39.4926799
  96.5097018  30.5456639  38.8817397  90.3574573  20.8628309  42.5742513
  90.9867691  21.3988609  42.2963583  90.5260436  20.7705668  43.4256079
  90.4752368  20.9289672  42.6591041  90.1588488  25.6499504  44.8468924
  90.9861917  25.3784653  44.9027539  90.1796334  26.4460346  45.2032743
  90.2841338  25.7279258  44.9084107  94.9964667  39.3854641  40.9811396
  95.7857046  39.0343706  41.1013478  95.1708265  40.1991030  40.7188030
  95.1384949  39.4540498  40.9599264  84.7357978  32.7963367  38.0339185
  83.8945984  32.6967241  38.2418079  84.9447986  33.5658847  38.3853506
  84.6422670  32.8955410  38.1166500  82.2133545  30.4182904  35.8623936
  81.8190243  30.4925916  35.0874045  81.6573662  30.8040850  36.4132298
  82.0736357  30.4864678  35.8291596  93.8498492  23.3964198  35.5427815
  94.0548085  23.3286506  36.3884812  93.5224916  24.2023019  35.4748992
  93.8313740  23.5050138  35.6587470  88.5474643  30.7244766  37.2836783
  88.2437780  30.1700754  37.8847190  87.8454064  30.9036976  36.7964817
  88.3990853  30.6689548  37.3006488  87.6040740  28.0345286  31.8481484
  87.8800474  27.3164198  31.4359052  88.2039409  28.6330206  31.6402591
  87.7334004  28.0165657  31.7562246  86.6092994  37.9394487  41.9908880
  86.5013349  37.9496549  42.8570938  86.8188775  38.7649267  41.8013834
  86.6243105  38.0635562  42.0912972  97.1032179  23.9495962  35.0230580
  96.4906493  24.4366364  35.4084312  97.1996354  23.2739453  35.5668231
  97.0270077  23.9214271  35.1609438  91.1051260  25.7058803  30.1228079
  91.5595007  25.8769364  30.8475924  91.5791306  25.0926914  29.7225855
  91.2419580  25.6409689  30.1701841  84.6266786  35.1907129  39.4530818
  84.0354719  35.8316627  39.4233833  85.3887809  35.6144746  39.4262117
  84.6515046  35.3482968  39.4445965  85.0227409  26.3509127  40.1198836
  85.4828890  26.4248056  40.8573959  85.0683515  27.1490381  39.7698657
  85.0977964  26.4803274  40.1771592  86.6710758  27.0175822  44.6870863
  86.2796323  26.3709169  45.1226640  86.8396621  27.6087257  45.3065118
  86.6381669  27.0090090  44.8433569 100.7457207  35.0212899  40.4508096
 100.8040331  35.4699548  41.1968073 100.1123675  35.4311712  40.0138176
 100.6608502  35.1486634  40.4960645  94.3856302  40.6416441  36.8862842
  94.1875991  41.1307255  36.1919054  93.7644013  40.8457682  37.4646976
  94.2643866  40.7432979  36.8686066  88.4464280  32.4101338  31.2273087
  89.1906325  32.7975614  31.4656037  88.5924977  31.5658763  31.3913575
  88.5774865  32.3431810  31.2867056  90.3643856  24.2051597  36.2604948
  89.5179901  24.3774404  36.1346298  90.3614988  23.4000940  36.5970776
  90.2391006  24.1112625  36.2916075  91.4342156  27.9826811  37.1267006
  90.9602110  27.4568573  37.6372317  91.8060292  27.4356284  36.5581868
  91.4192045  27.8242808  37.1182153  81.8115186  29.9798318  42.4950552
  82.6740799  29.8794027  42.4087882  81.4806969  29.3993027  41.9336124
  81.8900383  29.8789944  42.3995958  97.6978887  33.0429187  38.5373787
  97.4577110  32.2035602  38.5416213  98.1770894  33.1229353  39.2614560
  97.7331070  32.9310586  38.6448589  93.3625656  28.8763366  30.1892760
  92.8348674  28.9592110  29.4998469  93.8221364  29.6181237  30.1857405
  93.3527506  28.9984028  30.0867455  99.6984074  29.8230644  36.4903046
  99.4593844  29.7826478  35.6523830  99.8617975  30.6701796  36.6168767
  99.6874377  29.9422729  36.3856528  96.3030104  34.2080593  42.4208091
  97.0264303  33.7553120  42.2419111  96.0380066  34.4885259  41.6380419
  96.3711377  34.1831562  42.2786806  85.1716972  28.8040767  39.1560970
  84.5470042  28.8159159  38.5486923  84.8362567  29.2800942  39.8052210
  85.0302464  28.8759284  39.1617539  85.3558721  27.1465885  25.2133655
  85.0071525  27.7985610  25.6765204  84.8755167  27.1322998  24.4857526
  85.2328965  27.2408939  25.1744746  81.8842648  36.8641227  40.5964734
  81.3542572  36.1733666  40.6459709  82.1567741  36.8551412  39.7677443
  81.8467370  36.7608359  40.4812150  92.9162738  37.4466929  29.3202417
  93.6396937  37.9125042  29.1766990  92.4763329  37.5140539  28.5700014
  92.9578431  37.5250766  29.1887198  92.0848893  34.3064471  40.5703106
  91.4705887  33.7622522  40.8651741  92.6016178  33.7928708  40.0908922
  92.0704556  34.1500880  40.5427334  91.3245191  35.3768741  38.3047405
  90.8972799  34.7518460  37.8712840  91.3170135  35.0943663  39.1306412
  91.2604332  35.2421522  38.3627232  84.4407718  30.4133914  41.3735838
  84.6001204  29.6577239  41.7787560  84.2600611  30.9624854  42.0276576
  84.4373077  30.3827728  41.5298544  92.3828021  22.5795150  41.9286628
  91.8868582  22.7758824  41.2378195  93.1397083  22.9787818  41.7575430
  92.4214845  22.6672884  41.8006765  89.6530900  26.2537496  38.5189939
  89.6773387  25.7197608  37.8302718  89.9042374  25.7454805  39.1815529
  89.6940819  26.0998400  38.5154583  77.1638490  33.5368991  37.9533083
  77.0581939  33.4915835  37.0885167  76.4138710  33.8822771  38.2347367
  77.0374093  33.5809899  37.8670412  85.9332222  24.9808314  37.8995683
  85.9730594  25.4817521  38.6130390  85.1081887  25.0718708  37.6301606
  85.8171748  25.0690130  37.9646221  88.1161835  34.5469054  46.0015977
  87.2657466  34.6840768  46.1373622  88.2789963  33.8132832  46.4463679
  88.0145699  34.4583155  46.0871577  87.3546586  31.4968824  40.1969582
  86.5238516  31.6642642  39.9904830  87.2998103  31.1204775  40.9818467
  87.2236001  31.4658555  40.2818110  85.1630369  24.9877717  45.8325993
  85.7883073  24.4439850  46.1055425  84.7080849  24.5072634  45.2633783
  85.1878630  24.8367198  45.7887586  85.7282630  29.7724416  30.7259700
  85.8685591  30.2696880  31.4288341  86.2265163  29.0710710  30.8673913
  85.8223711  29.7426394  30.8511279  85.7582852  30.6391527  28.0552276
  86.3927932  31.2351952  27.9901738  85.8408463  30.3394984  28.8698147
  85.8639403  30.6832435  28.1655363  98.7365418  33.1707004  40.9238641
  99.3283258  33.8104255  40.9556839  99.1724412  32.4730041  41.2130707
  98.8883849  33.1625354  40.9719473  87.3361835  26.5705502  28.0297718
  87.6577676  26.0908584  27.3756981  87.5988779  27.3805148  27.8388530
  87.4227860  26.6195400  27.9053210  90.5658808  37.5924376  41.5496534
  90.0583899  38.1460223  41.9937165  90.2685454  37.6532666  40.7315309
  90.4463693  37.6830687  41.4944991  92.7320990  25.9577696  40.3921197
  93.1576062  25.5050222  39.7804724  92.1177983  25.4037767  40.6685985
  92.7049635  25.8091672  40.3426223  82.2635840  32.8359367  31.3241822
  82.7728069  33.4323875  31.7053128  82.7370112  32.5685341  30.6418242
  82.4079216  32.8845183  31.2796345  93.1766588  41.5087634  29.4800478
  92.4595898  41.3348496  29.0147715  93.8273326  41.2740206  28.9475964
  93.1668439  41.4483427  29.3329696  91.1715213  22.4292796  33.8011774
  90.5283531  22.2790442  34.3696913  90.8314620  22.1835141  33.0360879
  91.0260290  22.3704918  33.7714790  95.7614559  30.3852223  33.2241783
  95.0905749  30.9281925  33.0954849  96.4554310  30.8547078  32.9823478
  95.7643427  30.5350494  33.1697311  89.8101293  42.5248935  38.4553541
  89.5866947  41.7667764  38.8237568  89.3211136  42.5546956  37.7333981
  89.7044742  42.4171159  38.4030282  95.9242687  26.8408106  36.1332156
  96.2770297  26.4137829  36.8077955  95.0657488  26.7558950  36.2633233
  95.8492131  26.7652847  36.2527167  84.6226372  29.4715626  34.1915003
  83.9038361  29.8879758  34.4587866  84.9938734  30.0369865  33.6406641
  84.5718304  29.6164907  34.1497810  93.9225953  30.1043475  40.0816999
  93.9023880  29.9226770  40.9351777  93.9705153  30.9755493  40.0576582
  93.9260594  30.2060013  40.2040293  91.8672282  36.6930667  46.0065475
  91.8268137  36.0480344  45.4210631  92.6795601  36.6367284  46.3190887
  91.9815436  36.5889634  45.9662424  88.4579750  42.7449393  35.9090626
  88.0440149  42.0823523  35.5194468  89.1427124  42.8927251  35.3886320
  88.4978122  42.6690051  35.7747123  91.8245044  41.9039478  36.6614243
  91.4261327  42.0141748  35.8935063  91.2096264  42.1121544  37.2440802
  91.6743933  41.9513046  36.6345542  90.3972946  28.5113626  29.5288382
  89.8037785  28.8330622  28.9772949  90.4348224  27.6654721  29.3209488
  90.3147335  28.4337954  29.4171154  97.3566747  21.9626518  37.0616469
  96.8497611  21.2555658  36.9937646  98.1534181  21.6319707  37.1917545
  97.3993986  21.8099669  37.0715464  93.2730763  28.4693130  32.9590132
  93.0444456  28.4925832  32.1168491  93.5328839  27.6450597  33.0785143
  93.2776951  28.3509210  32.8515330  87.5549991  30.3227603  42.5615233
  87.0428894  29.7148786  42.9200264  87.3829487  31.0384196  43.0289208
  87.4539628  30.3390903  42.6831456  82.4015706  28.7665179  45.2117594
  82.2318296  29.4266553  44.6665801  81.9581656  28.9771740  45.9330084
  82.3115039  28.8951161  45.2379224  86.3275525  27.0069677  34.2544328
  86.8032891  27.3686756  33.6194509  85.8264125  27.6626144  34.5344471
  86.3240884  27.1563865  34.2021069  99.5586887  36.4791445  30.0457333
  99.9420493  37.2282801  30.2755430  98.7631000  36.7257264  29.7869322
  99.4980669  36.6261138  30.0414907  91.4319061  28.2451848  45.0017488
  91.9890492  28.0165657  44.3695954  91.1080126  29.0057514  44.7252701
  91.4665472  28.3235685  44.8673985  79.3017770  31.6712044  40.4706084
  78.7544490  31.0012690  40.5886953  80.0910149  31.3041892  40.5349552
  79.3369954  31.5177031  40.4974785  89.1502179  31.3319501  45.9669495
  89.9013506  31.6471178  46.2809050  89.3424755  31.1298672  45.1403417
  89.2893593  31.3486883  45.8912891  88.3702178  29.1510876  27.6217712
  88.7501143  29.1690506  26.8368827  87.6294774  29.5964865  27.5008559
  88.3171016  29.2192651  27.4881280  95.9987469  27.4593068  33.2093291
  95.9981695  27.3041724  34.0677567  95.7943649  28.3056055  33.1534676
  95.9687247  27.5613688  33.3281230  78.0604740  30.8832852  37.6252107
  77.8826501  30.4309461  38.3507023  77.7723762  31.6859013  37.8090585
  77.9917693  30.9355410  37.7595610  93.7228321  32.1390569  36.8629498
  94.2181986  31.4213564  36.8233518  92.9128097  31.8361367  36.7483985
  93.6772214  31.9888216  36.8403224  89.1686932  35.9888383  29.0126502
  88.3598255  35.6655056  28.9659812  89.6761841  35.2821605  28.9454751
  89.1236599  35.8369699  28.9956797  79.7977210  33.4160576  34.7373866
  78.9322729  33.4046266  34.6256638  79.8976026  33.2290799  35.5845006
  79.6851377  33.3866637  34.8462811  95.7880140  34.8894257  39.5506626
  96.2135211  34.3668679  38.9977051  95.4237060  35.4875094  39.0295249
  95.7966742  34.9004484  39.3915636  85.4234220  43.1858474  38.3103972
  85.7380779  43.9994863  38.3181754  85.8327633  42.8008693  38.9786131
  85.5302318  43.2487177  38.4108064  92.3758739  38.6028521  35.8807784
  92.8469917  39.3168784  36.0497769  92.7118918  38.0027271  36.4167653
  92.4953854  38.6199985  35.9840160  94.4635724  40.2129834  48.0599856
  94.5732689  39.4238395  48.4156603  94.7926620  40.1235771  47.2574194
  94.5288130  40.0835687  47.9942247  89.2928234  23.3755992  42.8365879
  89.4256140  22.5786985  43.1646854  89.6773387  23.9022395  43.4164154
  89.3684563  23.3355908  42.9709382  93.0132686  38.3946455  42.6435477
  92.4653632  37.7704339  42.3755542  93.4745714  38.5840727  41.9279556
  92.9999895  38.3305505  42.4985908  92.3660589  20.2986318  39.4346972
  91.5606553  20.1884047  39.7514810  92.2367325  20.3998774  38.5776838
  92.2280722  20.2969988  39.3555012  95.8226550  26.4631810  40.0286669
  95.2389539  26.9641016  39.6164236  96.1430844  25.9561366  39.3950992
  95.7839725  26.4623645  39.8745176  88.3621349  25.3772405  30.3045344
  89.1837043  25.5470717  30.0627039  87.8991000  25.5319666  29.5811641
  88.4152511  25.4254138  30.1616988  86.9516681  23.3715167  41.0843772
  87.4961094  23.0306294  41.6748114  87.0053617  24.2300628  41.2265057
  87.0405800  23.4470426  41.1925646  82.7647240  37.1331583  37.9582580
  83.3692097  37.0927417  37.3296401  82.5574552  37.9802735  37.9886636
  82.8236137  37.2519585  37.8698697  92.5791012  39.3997528  39.1744818
  93.3989386  39.2560494  39.4361113  92.2985090  40.0243727  39.7161256
  92.6587755  39.4707880  39.2932757  77.9998522  36.1166200  37.8281503
  77.9022800  35.3062472  38.1371560  78.7827392  36.0957994  37.4427772
  78.1014658  35.9933291  37.8168366 109.0504662  47.0562380  32.1387694
 109.0198667  47.9107016  32.3105964 109.6486011  46.7557672  32.6973838
 109.1341820  47.1378876  32.2462496 102.2504347  46.1438031  36.8940625
 101.3942243  46.3046529  36.9449741 102.2972001  45.2730095  36.9145686
 102.1303459  46.0388833  36.9046691  96.6345487  55.6800749  32.6577856
  95.8828386  55.3016287  32.4293901  97.0831498  55.7119182  31.9096666
  96.5895154  55.6286356  32.5135358 105.5598064  52.4124556  46.5001081
 106.2664831  51.9176587  46.6288015 105.7485999  52.8533638  45.7703739
 105.6925969  52.4042907  46.4110126 102.0870447  56.1026118  28.0863403
 101.7521815  56.7803040  27.6507625 102.5997317  55.7131429  27.4980275
 102.1136028  56.1450696  27.9350195 101.6274738  58.0540387  34.0274515
 102.0114117  58.6227285  33.4879290 101.5633879  57.3289897  33.5480331
 101.6748165  58.0315850  33.8768377 105.0956168  48.2030075  39.5372276
 105.6412128  48.8815161  39.5966246 105.0373044  48.0617535  38.6773858
 105.1672082  48.2822076  39.4184337  98.2130243  55.6919141  34.9240629
  98.3140606  54.8819495  35.2337756  97.6171988  55.5976087  34.2940307
  98.1402782  55.5584169  34.8766867 106.8721237  49.6314682  30.4106004
 106.7560763  50.3822368  30.8398142 107.6677123  49.3738635  30.6602091
 106.9725826  49.7049529  30.5110096  98.0530983  60.6096730  36.3255485
  98.6968438  61.0509894  36.7151643  98.3787238  59.8050156  36.2385743
  98.1962811  60.5561925  36.3700962  91.4095287  51.7139427  34.5492962
  91.1745472  50.8807080  34.4425231  91.5480928  51.9944093  33.7354163
  91.3950950  51.6322931  34.4135317  93.7085375  43.8825158  37.4477270
  93.0890406  43.2917805  37.2787285  93.6069238  44.4736593  36.8141593
  93.6023050  43.8829240  37.3282260  98.7551562  53.6208705  31.6975346
  99.0767403  54.1613912  31.0936654  99.4023659  53.0505476  31.8297636
  98.8977617  53.6167880  31.6282382 100.8053270  45.6224700  31.7809733
 101.5033435  45.8012827  32.2731196 101.1205603  45.0995039  31.1580122
 100.9548608  45.5718472  31.7611743  93.4354508  47.4277440  39.6920839
  93.3113205  48.0139885  40.3270658  94.0872792  46.9337635  39.9933114
  93.5128157  47.4416244  39.8306768 100.9941206  52.0095145  31.7689525
 101.4334841  51.4012245  32.2144297 100.8445869  51.6302518  30.9974990
 101.0362671  51.8633616  31.7208692  98.4612849  50.6039157  38.9708350
  99.1061851  50.1111600  38.6519299  98.7014626  50.7463943  39.7974428
  98.5923434  50.5516599  39.0457883 100.9998940  53.4494062  38.6215243
 101.2822183  52.6545468  38.4001998 101.7285100  53.9274650  38.6420304
 101.1488504  53.4028659  38.5918258  98.9780134  40.9917096  35.8631008
  98.6483464  41.4428240  35.1934706  98.3025136  40.9133260  36.4104014
  98.8290570  41.0468232  35.8454231 104.5950542  50.3622326  28.7220294
 104.5101837  51.2183293  28.8669863 105.0834926  50.0866650  29.3902453
 104.6539440  50.4479647  28.8422375 106.1856542  36.9802619  34.1080618
 105.8709983  37.6706098  34.5401041 105.6683483  36.9247401  33.4066119
 106.0621012  37.0737508  34.0677567 105.5268975  46.9807120  30.2218029
 104.9980447  47.1966754  30.8815335 106.0493995  47.6743259  30.1418998
 105.5257428  47.1150257  30.3073628 110.9817028  52.5553425  35.5951073
 110.1514732  52.7664068  35.7584490 110.9326281  51.7290479  35.3193357
 110.8523764  52.4643031  35.5788439  97.4168583  50.8770337  29.0225497
  96.8325799  51.3820368  29.4291361  97.0138678  50.6512724  28.2822089
  97.2707887  50.9178585  28.9730522  92.9712612  56.5925098  35.8249168
  92.4880190  57.3175588  35.8008752  93.7835930  56.8901228  35.9359326
  93.0203360  56.7427452  35.8376448  99.0426766  55.3857279  38.4298983
  98.5253708  55.0264694  37.8260291  99.7401157  54.8619453  38.4405049
  99.0692347  55.2554967  38.3429242 102.6990358  55.8352093  44.3915156
 102.7873704  55.6478233  45.2393366 103.1280071  55.1889522  43.9920003
 102.7752460  55.7115101  44.4586907 100.2660818  55.1183253  43.3732818
  99.7031653  54.7055863  43.8972479 101.0281841  55.0436158  43.7925961
 100.2955266  55.0460653  43.5125818 101.8745798  47.1235989  27.4994417
 102.1141801  47.3313973  26.6869761 102.1961639  46.3193498  27.6083362
 101.9582956  47.0350090  27.3954971  97.1836088  39.0529385  31.3453955
  97.9382056  39.4207702  31.1071006  97.0063623  39.4268939  32.1133135
  97.2690566  39.1627573  31.4238844  95.8256809  57.1081274  35.9769448
  96.5277388  56.5933263  36.0342205  95.7454292  57.4355425  36.7816323
  95.9180570  57.0795500  36.1042240 110.4770987  45.2023825  39.3901495
 109.6399408  45.2726012  39.6249089 110.4459218  45.2048320  38.5175797
 110.3489269  45.2134052  39.2961043  96.8735716  47.3456861  45.1049863
  97.0456219  47.2362756  45.9535145  97.4105073  47.9911266  44.8681056
  96.9780720  47.4248863  45.1954960  95.5393153  41.4599704  28.0432068
  95.3568726  41.6771585  27.2173061  96.4018766  41.5738716  28.0990683
  95.6397742  41.5089602  27.9286555  95.1507585  53.2987626  35.4855056
  95.9896484  53.5310559  35.5328818  95.1819354  52.4291937  35.4162092
  95.2789302  53.2044572  35.4819701  95.7760288  53.7188501  39.7868362
  96.3158513  53.5759632  40.4571734  95.0930234  54.1185252  40.1552388
  95.7552442  53.7568172  39.9402784 101.2192872  38.4626114  31.0781092
 101.9479032  38.2842069  30.6319248 101.3087765  39.3044194  31.2888270
 101.3399534  38.5609993  31.0434610 105.2001173  49.3979502  34.9813386
 105.9558688  49.8311016  35.0202295 105.3063497  48.7484272  35.5548022
 105.3271343  49.3656986  35.0711412 108.2381344  53.2252779  35.7315789
 107.8016576  53.2289521  36.4874761 107.9044259  53.9058278  35.2995367
 108.1243964  53.3265235  35.7796622 102.8110417  55.2661112  47.0558940
 103.5950834  55.3791960  47.4214682 102.6107012  54.4402249  47.2517625
 102.8976443  55.1607831  47.1393326  91.1797433  49.9388792  39.9402783
  90.9135848  49.1227909  40.0993774  91.1935997  49.9841947  39.0698299
  91.1422155  49.8245697  39.8356265 108.1578827  40.2666607  37.9745217
 108.8004735  40.3364711  38.5607132 108.4101847  39.5995830  37.4724759
 108.2900959  40.1792955  37.9872496  95.0855180  44.7373876  26.5554541
  94.3713357  44.4512056  26.9676974  95.5699148  45.0770502  27.1960929
  95.0514543  44.7455526  26.7110176  95.9296039  43.4767170  42.5869791
  95.2367836  43.0064150  42.8330523  96.5456366  43.2505475  43.1611498
  95.9180569  43.3734302  42.7078944 102.9680811  57.1771214  40.7025395
 102.1696056  56.9370714  40.9599264 103.4166822  57.2285607  41.4492443
 102.9155422  57.1493605  40.8510319 111.3725690  49.9433699  34.6235426
 112.0342124  49.3824367  34.5231335 110.7317102  49.4485730  34.9488118
 111.3754557  49.7870108  34.6567767 102.2602498  53.2403830  26.9316350
 102.6753646  52.9088854  26.2400845 101.4294427  53.0072733  26.8036486
 102.1990506  53.1575086  26.8107197  91.5890846  50.7247571  37.2214528
  91.4066420  50.6994457  36.3686820  92.3240515  51.1946509  37.2603436
  91.6704910  50.7908934  37.1012446 107.6590521  50.9599081  34.3647415
 107.8946110  51.1044280  33.5374266 107.8080084  51.7241489  34.7578929
 107.7156324  51.0938136  34.3011019  94.6536598  47.4432574  43.7296636
  95.3776570  47.4285605  44.2161531  94.7552735  48.1527929  43.2318604
  94.7754807  47.5457277  43.7275423 109.4880977  49.8000747  32.2017019
 109.8189194  50.3328387  31.5957114 110.0614065  49.8539635  32.8578970
 109.6214656  49.8870316  32.2094801 102.0281547  50.9231659  48.5945583
 101.2354528  51.2375171  48.7798203 102.1430475  51.1383127  47.7566368
 101.9276958  51.0015496  48.4983918 104.7012866  47.6465650  32.8840599
 104.7959721  48.3854944  33.3380225 104.0771710  47.2183125  33.3175164
 104.6221897  47.6926971  33.0148747 102.9565340  50.8251863  43.5330880
 103.5304202  50.1879107  43.6879444 102.8780144  50.8255945  42.6640538
 103.0298575  50.7316974  43.4277291  91.5561757  47.6041072  37.3713594
  92.1335259  47.4677523  38.0105840  90.8575818  47.1476856  37.6259179
  91.5382778  47.5163338  37.5035884 104.9535888  49.4914390  26.1177551
 104.8716050  49.5616577  26.9832538 105.5915608  50.0544134  25.9261292
 105.0355725  49.5853361  26.2167501  98.3129059  49.2575128  35.5852077
  98.0548303  48.4246863  35.5583377  98.3677542  49.4832741  34.7444578
  98.2828837  49.1672899  35.4572214 103.3930109  41.3603578  35.6856170
 102.6886436  40.8712764  35.8440089 103.4415083  41.3726053  34.8144615
 103.2960161  41.2893226  35.5795510  97.2863771  46.8112890  36.0716972
  96.7113362  46.9705059  36.7080933  96.9099447  46.1748299  35.6085423
  97.1466583  46.7410703  36.0971531 100.9537060  45.2836239  40.9309351
 100.5651492  44.8590457  40.2761542 100.2891758  45.5318389  41.4386377
 100.7983987  45.2574961  40.9097219 110.5960329  45.0411244  33.7057181
 110.3396894  44.2291186  33.5155063 111.4389643  45.0488811  33.4787368
 110.6826354  44.9223242  33.6441998  87.0320590  46.4552965  34.0861413
  87.1180842  46.0784833  34.8674943  87.6596387  46.0813411  33.6081371
  87.1377141  46.3438447  34.1306890 104.7763421  38.9810868  38.4433335
 105.1573933  38.2989039  38.8301209 103.9726705  38.6920470  38.2608999
 104.7139883  38.8377917  38.4737391 102.0575998  49.5134844  29.1286158
 102.8716637  49.8049737  29.0168929 101.9935139  48.8594706  28.5544451
 102.1678737  49.4600039  29.0274995 108.2785488  52.1960840  43.5415733
 108.0424125  51.3648905  43.4227794 108.9228717  52.1446447  44.1270577
 108.3380159  52.0658528  43.6101627  97.9283906  52.9856361  34.2558470
  98.5657853  52.7468109  34.8010263  98.3538978  53.1893520  33.5211630
  98.0860072  52.9807372  34.2275627  92.6196549  55.2244698  38.1392773
  92.6600694  55.4959549  37.3112553  93.1791073  55.7486606  38.5550561
  92.7079894  55.3420453  38.0784662  98.5686721  48.2058651  28.5933359
  98.9531874  47.9866358  29.3449904  98.3198342  49.0321597  28.7234435
  98.5888794  48.2956798  28.7234435  98.7355262  41.4865066  48.3095943
  98.4208703  42.2564629  48.0465506  98.4145194  40.9235322  47.7248170
  98.6414181  41.5175335  48.1837293 109.3021909  51.9805289  39.6044028
 108.9967726  52.7133346  39.9657343 108.5828124  51.5743218  39.3236814
 109.1509251  52.0287022  39.6157165 100.3105378  53.4628784  35.9352256
 100.3844386  53.3003956  36.7894106 101.1274884  53.6518974  35.6912738
 100.4421737  53.4665526  36.0250282 115.0023701  48.6198290  38.9312372
 114.9348201  48.6394249  38.0614959 114.9879363  49.4628617  39.1568043
 114.9902457  48.7472024  38.8364849  94.0711135  53.8086647  32.9646699
  93.2449252  54.0548384  32.8380978  94.1323126  53.7298728  33.8308757
  93.9585302  53.8331596  33.0735644  96.2887159  39.8755588  33.9242140
  95.4209584  39.9478187  33.9899749  96.5762363  40.6777667  34.1130115
  96.2026907  40.0049735  33.9616906 105.4120047  40.0233447  42.2553461
 106.1573639  39.8343258  41.8416887 104.9957352  40.5491685  41.6967318
 105.4605022  40.0735593  42.1118035  98.8509964  56.4263527  30.6665729
  99.1408262  56.0352508  29.9424956  99.5813445  56.6080232  31.1071005
  99.0016848  56.3957341  30.6248536 112.7882318  47.3942676  37.2058966
 113.3390240  46.7610745  37.4456058 112.7726434  47.9258069  37.8974471
 112.8667515  47.3791624  37.3437825  99.4404709  51.2281273  41.7518860
  98.9416403  51.9397041  41.8303748 100.2504933  51.5481940  41.7137022
  99.4860816  51.3808122  41.7575428  96.7915879  58.4030910  33.7325879
  96.5716175  58.1128264  34.5252546  96.5710401  57.7445865  33.2043791
  96.7263474  58.2630618  33.7714788  95.7032827  50.4904226  35.9981581
  95.4146075  49.8641697  36.5327308  96.5716175  50.4324514  36.0646261
  95.7893079  50.3891770  36.0872535 106.4910724  45.6339009  36.3163563
 106.1475490  44.9129345  36.6670812 106.5903767  45.4252861  35.4741921
 106.4552767  45.4963213  36.2435243  98.9583835  59.7760300  32.5156571
  99.6107893  59.2436742  32.7447597  98.2609444  59.4228952  32.9024445
  98.9514553  59.6449823  32.6068739  95.9065100  52.1299477  31.9223946
  96.6611068  52.5112516  32.1359408  95.3135713  52.5810621  32.3770642
  95.9301814  52.2528305  32.0206824 106.9523753  52.0964714  31.8587551
 107.5181786  52.7557923  31.7746094 106.3051657  52.4414412  32.3303953
 106.9402510  52.2446655  31.9160307  98.3671767  44.0862318  47.0481158
  97.5571543  44.3920097  46.9371000  98.8446454  44.8067900  47.1633742
  98.3175246  44.2376919  47.0488229  97.2263327  53.3008038  37.2964061
  96.7044080  53.4408330  37.9815926  97.6137347  52.5418703  37.4866178
  97.2067028  53.2093562  37.4265138  94.2154511  43.3513847  31.3659016
  93.9279306  42.9815118  30.6290963  94.9024979  43.8208703  31.1042721
  94.2743408  43.3660817  31.2174092 103.4230332  55.0403498  31.2824630
 103.1817007  54.3071358  30.8751695 103.6031664  55.5890355  30.6290963
 103.4137956  55.0125889  31.1254853  98.6529652  50.3312058  32.6945552
  98.4572435  50.9386792  32.1005855  98.8763998  49.6380002  32.2137226
  98.6564293  50.3189583  32.5361633  97.0508182  47.2166795  32.8126421
  97.7730834  47.3807954  32.3530227  96.5716175  47.9376460  32.7065760
  97.0871913  47.3465025  32.7292035 105.0101690  43.5530594  38.1923105
 104.1712790  43.5791873  37.9561369 105.0806057  44.2001330  38.7728452
 104.8970083  43.6526720  38.2432222  94.7015799  49.6224868  41.9180560
  95.2136896  49.9009121  41.2689320  94.4152142  50.3614162  42.2843373
  94.7350662  49.7727222  41.8770438 103.4570968  40.4515971  32.9250721
 104.1597321  40.2523720  32.4470680 103.1915157  39.6791914  33.2319565
 103.5217600  40.3078937  32.8996163 108.8859214  48.7598581  35.4784347
 108.7993188  48.9154007  36.3319126 108.4309694  49.4036657  35.1043752
 108.8062470  48.8774336  35.5491454  91.7882705  44.1295060  32.2144297
  91.8898842  44.9321221  32.5425272  92.5838592  43.9282396  31.9167377
  91.9210611  44.2180958  32.2179652  98.2199524  41.7151256  41.9781602
  98.0282721  41.7306391  42.8281026  99.0698120  41.9114931  41.9548257
  98.3175246  41.7465608  42.1004897  92.6046437  44.2442238  39.9565418
  92.4631929  43.3926179  40.0809926  92.8887001  44.2870899  39.1327624
  92.6254283  44.1241988  39.8533043 102.7585030  46.0809328  34.1009907
 102.5119744  46.0005079  34.9346696 103.0870153  45.2962796  33.9072434
 102.7706273  45.9535593  34.1957430 106.6533079  52.7892687  37.8896688
 106.5147438  53.4873733  38.3945430 105.8733076  52.6341344  37.5332870
 106.5176305  52.8692854  37.9122962 104.9911164  49.0889063  44.1419070
 104.9859202  48.2168879  44.1461496 105.6972158  49.2877232  43.6688525
 105.0956168  48.9892937  44.0726105  98.7182057  48.8166047  43.5132890
  98.8625433  49.3967255  42.8776000  99.0657706  49.1942343  44.2182744
  98.7909518  48.9586751  43.5231885 100.8901974  48.0156215  41.2958021
 100.1425288  48.2087229  40.8906299 101.0443500  47.1901435  41.0582143
 100.8024402  47.9221326  41.2003427  97.7909812  57.0068819  40.3793917
  97.9399376  56.4471734  39.7267321  98.5709814  57.0860820  40.7626435
  97.9283906  56.9354384  40.3390866 108.1486451  52.1470941  28.6513187
 107.7693260  51.3608079  28.6442477 107.4852697  52.6957798  28.5084831
 107.9944926  52.1115765  28.6293984 100.3163113  57.1783461  41.6578407
 100.2406784  56.5092272  42.2129196 100.2452972  57.8801250  42.1719074
 100.2943719  57.1828369  41.8155256 101.1303751  41.9106766  42.1853425
 101.5876365  42.6430740  42.3126217 101.2060080  41.4873231  42.9440681
 101.2094721  41.9564004  42.3154502  93.3736743  42.1572586  43.2742869
  92.8378932  41.5452944  43.5903636  93.4354507  42.7320721  43.9276535
  93.3032375  42.1519513  43.4178296 105.6031077  35.0896641  36.0547268
 105.7214645  35.5473104  35.3214571 105.4293253  34.2841902  35.7683486
 105.5950248  35.0390413  35.9048202 100.9733360  55.6984460  32.4902013
 101.7383251  55.4294104  32.1684678 100.8711450  55.2134471  33.2072076
 101.0714855  55.5874025  32.5481841  99.0086129  43.9008870  39.0295249
  98.2182204  43.7200330  39.3512585  99.4046752  43.1235822  39.0125544
  98.9503005  43.7596331  39.0747798 103.4952020  52.7296644  24.4701963
 104.2625005  52.7896769  24.0607815 103.0483329  52.1577085  23.9858281
 103.5425447  52.6533220  24.3379673 104.3929816  51.5351300  36.7554695
 103.7174817  51.3036532  37.2568082 104.4022192  50.9272483  36.1296800
 104.2948320  51.4110225  36.7370847 101.5223960  46.3769129  43.5118748
 101.4583101  47.2379085  43.3838885 101.6621147  46.0601122  42.7114299
 101.5339430  46.4569295  43.3746961 106.3946550  54.3916432  28.9864873
 106.4766388  55.1983418  28.6626324 106.8796292  54.4112391  29.7105647
 106.4783708  54.5137095  29.0451772 100.2043053  49.0701268  37.6534951
  99.7805303  49.2705767  36.9173969 100.0287909  48.2230116  37.7659251
 100.1153934  48.9750050  37.5608641  99.7054747  60.5851781  40.1156408
 100.1950677  59.8862570  39.9332073  99.1338979  60.2875651  40.7032466
  99.6939277  60.4378005  40.1757449  95.4925498  49.5653320  33.0862923
  95.6490118  49.5000122  33.9418916  95.8326092  50.3401872  32.8741603
  95.5658733  49.6702518  33.1817518 102.0304643  48.9411203  31.9556287
 102.5720189  48.4381584  32.4194907 102.3451202  48.8876398  31.1445772
 102.1569040  48.8590624  31.9040099 105.9021750  53.1513851  49.0683199
 106.7156616  52.8798999  49.2288331 105.7416717  52.8521391  48.2643395
 105.9991699  53.0668777  48.9728605 100.1991093  54.3328555  29.2396315
 100.2683913  53.4743093  29.3789315 100.9779548  54.5500436  28.9115339
 100.3243943  54.2381419  29.2113472 103.1793912  43.8347508  42.0078587
 103.3935882  43.1958422  41.4541941 102.5627812  44.2793332  41.5786449
 103.1199242  43.8057651  41.8629018 104.5898580  56.7566256  33.4532808
 104.1978372  56.4532971  32.7355674 104.7451653  57.5935346  33.2637762
 104.5552170  56.8350093  33.3189305  92.0659760  46.7488270  33.4023691
  92.4458725  47.1672815  32.7383958  91.4915125  47.3301726  33.7092534
  92.0371085  46.8966129  33.3500432 105.3433000  45.4436573  42.9461894
 104.5309682  45.1362463  43.0275067 105.8022935  44.9635573  43.5104606
 105.2913385  45.3273065  43.0416488 104.7538255  53.3216245  33.3938839
 104.3952910  53.4930888  34.1702871 104.2676966  53.7829451  32.8366837
 104.6296952  53.4155216  33.4264108 102.5708641  36.9447443  36.9965930
 101.7002199  36.9186164  36.9499239 102.8248982  36.7724636  36.1791776
 102.4802201  36.9157587  36.8686067  99.5426620  49.0015410  25.9339073
  99.8319145  49.7780293  26.2082647  99.6298419  48.4904142  26.6353572
  99.5980877  49.0407329  26.0781571 102.4386508  46.8496644  47.7290597
 102.9086139  47.4738761  48.1158471 102.4848388  46.1813620  48.2883811
 102.5154384  46.8431325  47.8690668  99.5957782  38.9553672  38.4539400
  99.0796270  38.2633863  38.5790979  99.0351710  39.6224449  38.4001999
  99.4364295  38.9516929  38.4645466 101.6650015  39.4946632  40.2832253
 101.2781768  39.5195663  41.0645783 101.1782952  38.9288310  39.8306770
 101.5362524  39.4142383  40.3320157 105.9142994  54.2120141  44.3406039
 106.5522715  53.7180336  44.0068496 105.2717086  54.1397541  43.7558266
 105.9137221  54.1279149  44.2048394 107.6399995  46.0609287  38.9071955
 107.2127603  45.9735635  38.1520055 107.0026047  46.1687062  39.4926799
 107.4829602  46.0641947  38.8817397 101.3307157  36.3813617  42.5742513
 101.9600275  36.9173917  42.2963583 101.4993019  36.2890976  43.4256079
 101.4484951  36.4474980  42.6591041 101.1321072  41.1684812  44.8468924
 101.9594501  40.8969961  44.9027539 101.1528918  41.9645654  45.2032743
 101.2573922  41.2464566  44.9084107 105.9697251  54.9039949  40.9811396
 106.7589629  54.5529014  41.1013478 106.1440849  55.7176338  40.7188030
 106.1117533  54.9725806  40.9599264  95.7090561  48.3148675  38.0339185
  94.8678568  48.2152549  38.2418079  95.9180569  49.0844155  38.3853506
  95.6155254  48.4140718  38.1166500  93.1866128  45.9368212  35.8623936
  92.7922826  46.0111224  35.0874045  92.6306245  46.3226158  36.4132298
  93.0468941  46.0049986  35.8291596 104.8231075  38.9149506  35.5427815
 105.0280669  38.8471814  36.3884812 104.4957499  39.7208327  35.4748992
 104.8046323  39.0235446  35.6587470  99.5207226  46.2430074  37.2836783
  99.2170364  45.6886062  37.8847190  98.8186647  46.4222284  36.7964817
  99.3723436  46.1874856  37.3006488  98.5773323  43.5530594  31.8481484
  98.8533058  42.8349506  31.4359052  99.1771993  44.1515514  31.6402591
  98.7066588  43.5350965  31.7562246  97.5825577  53.4579795  41.9908880
  97.4745932  53.4681857  42.8570938  97.7921359  54.2834575  41.8013834
  97.5975688  53.5820870  42.0912972 108.0764763  39.4681270  35.0230580
 107.4639077  39.9551672  35.4084312 108.1728938  38.7924761  35.5668231
 108.0002661  39.4399579  35.1609438 102.0783844  41.2244111  30.1228079
 102.5327590  41.3954672  30.8475924 102.5523890  40.6112222  29.7225855
 102.2152164  41.1594996  30.1701841  95.5999369  50.7092437  39.4530818
  95.0087303  51.3501935  39.4233833  96.3620393  51.1330054  39.4262117
  95.6247630  50.8668276  39.4445965  95.9959992  41.8694435  40.1198836
  96.4561474  41.9433364  40.8573959  96.0416099  42.6675689  39.7698657
  96.0710547  41.9988582  40.1771592  97.6443342  42.5361130  44.6870863
  97.2528907  41.8894477  45.1226640  97.8129205  43.1272565  45.3065118
  97.6114252  42.5275398  44.8433569 111.7189791  50.5398207  40.4508096
 111.7772915  50.9884856  41.1968073 111.0856258  50.9497020  40.0138176
 111.6341086  50.6671941  40.4960645 105.3588886  56.1601749  36.8862842
 105.1608574  56.6492563  36.1919054 104.7376597  56.3642990  37.4646976
 105.2376450  56.2618287  36.8686066  99.4196864  47.9286646  31.2273087
 100.1638909  48.3160922  31.4656037  99.5657560  47.0844071  31.3913575
  99.5507449  47.8617118  31.2867056 101.3376439  39.7236904  36.2604948
 100.4912484  39.8959712  36.1346298 101.3347572  38.9186248  36.5970776
 101.2123589  39.6297933  36.2916075 102.4074740  43.5012119  37.1267006
 101.9334694  42.9753881  37.6372317 102.7792876  42.9541592  36.5581868
 102.3924629  43.3428115  37.1182153  92.7847770  45.4983626  42.4950552
  93.6473383  45.3979335  42.4087882  92.4539553  44.9178335  41.9336124
  92.8632966  45.3975252  42.3995958 108.6711470  48.5614495  38.5373787
 108.4309693  47.7220910  38.5416213 109.1503478  48.6414661  39.2614560
 108.7063654  48.4495894  38.6448589 104.3358239  44.3948673  30.1892760
 103.8081258  44.4777417  29.4998469 104.7953948  45.1366545  30.1857405
 104.3260090  44.5169336  30.0867455 110.6716657  45.3415952  36.4903046
 110.4326427  45.3011786  35.6523830 110.8350559  46.1887104  36.6168767
 110.6606961  45.4608037  36.3856528 107.2762687  49.7265901  42.4208091
 107.9996886  49.2738427  42.2419111 107.0112650  50.0070567  41.6380419
 107.3443961  49.7016870  42.2786806  96.1449556  44.3226075  39.1560970
  95.5202626  44.3344467  38.5486923  95.8095151  44.7986250  39.8052210
  96.0035048  44.3944592  39.1617539  96.3291305  42.6651193  25.2133655
  95.9804109  43.3170918  25.6765204  95.8487750  42.6508306  24.4857526
  96.2061549  42.7594247  25.1744746  92.8575231  52.3826535  40.5964734
  92.3275156  51.6918974  40.6459709  93.1300325  52.3736720  39.7677443
  92.8199954  52.2793666  40.4812150 103.8895322  52.9652237  29.3202417
 104.6129521  53.4310350  29.1766990 103.4495913  53.0325847  28.5700014
 103.9311014  53.0436074  29.1887198 103.0581477  49.8249779  40.5703106
 102.4438470  49.2807830  40.8651741 103.5748762  49.3114016  40.0908922
 103.0437139  49.6686188  40.5427334 102.2977774  50.8954049  38.3047405
 101.8705382  50.2703768  37.8712840 102.2902719  50.6128971  39.1306412
 102.2336915  50.7606830  38.3627232  95.4140301  45.9319222  41.3735838
  95.5733788  45.1762547  41.7787560  95.2333195  46.4810162  42.0276576
  95.4105660  45.9013036  41.5298544 103.3560604  38.0980458  41.9286628
 102.8601166  38.2944132  41.2378195 104.1129666  38.4973126  41.7575430
 103.3947429  38.1858192  41.8006765 100.6263484  41.7722804  38.5189939
 100.6505971  41.2382916  37.8302718 100.8774957  41.2640113  39.1815529
 100.6673403  41.6183708  38.5154583  88.1371074  49.0554299  37.9533083
  88.0314523  49.0101143  37.0885167  87.3871294  49.4008079  38.2347367
  88.0106677  49.0995207  37.8670412  96.9064806  40.4993622  37.8995683
  96.9463178  41.0002829  38.6130390  96.0814471  40.5904016  37.6301606
  96.7904332  40.5875438  37.9646221  99.0894419  50.0654362  46.0015977
  98.2390050  50.2026076  46.1373622  99.2522547  49.3318140  46.4463679
  98.9878283  49.9768463  46.0871577  98.3279169  47.0154132  40.1969582
  97.4971099  47.1827950  39.9904830  98.2730687  46.6390083  40.9818467
  98.1968584  46.9843863  40.2818110  96.1362953  40.5063025  45.8325993
  96.7615656  39.9625158  46.1055425  95.6813433  40.0257942  45.2633783
  96.1611213  40.3552506  45.7887586  96.7015213  45.2909723  30.7259700
  96.8418174  45.7882188  31.4288341  97.1997746  44.5896018  30.8673913
  96.7956294  45.2611702  30.8511279  96.7315436  46.1576834  28.0552276
  97.3660515  46.7537260  27.9901738  96.8141046  45.8580292  28.8698147
  96.8371987  46.2017743  28.1655363 109.7098001  48.6892312  40.9238641
 110.3015842  49.3289563  40.9556839 110.1456996  47.9915349  41.2130707
 109.8616433  48.6810662  40.9719473  98.3094419  42.0890810  28.0297718
  98.6310260  41.6093892  27.3756981  98.5721362  42.8990456  27.8388530
  98.3960444  42.1380708  27.9053210 101.5391391  53.1109684  41.5496534
 101.0316482  53.6645531  41.9937165 101.2418038  53.1717974  40.7315309
 101.4196276  53.2015995  41.4944991 103.7053574  41.4763004  40.3921197
 104.1308645  41.0235530  39.7804724 103.0910567  40.9223075  40.6685985
 103.6782219  41.3276980  40.3426223  93.2368424  48.3544675  31.3241822
  93.7460653  48.9509183  31.7053128  93.7102696  48.0870649  30.6418242
  93.3811799  48.4030491  31.2796345 104.1499172  57.0272942  29.4800478
 103.4328481  56.8533804  29.0147715 104.8005909  56.7925514  28.9475964
 104.1401022  56.9668734  29.3329696 102.1447796  37.9478104  33.8011774
 101.5016114  37.7975750  34.3696913 101.8047203  37.7020449  33.0360879
 101.9992874  37.8890226  33.7714790 106.7347143  45.9037530  33.2241783
 106.0638333  46.4467233  33.0954849 107.4286893  46.3732386  32.9823478
 106.7376010  46.0535802  33.1697311 100.7833877  58.0434242  38.4553541
 100.5599531  57.2853072  38.8237568 100.2943720  58.0732264  37.7333981
 100.6777326  57.9356467  38.4030282 106.8975270  42.3593414  36.1332156
 107.2502880  41.9323137  36.8077955 106.0390072  42.2744258  36.2633233
 106.8224715  42.2838155  36.2527167  95.5958955  44.9900934  34.1915003
  94.8770944  45.4065066  34.4587866  95.9671318  45.5555173  33.6406641
  95.5450887  45.1350215  34.1497810 104.8958536  45.6228783  40.0816999
 104.8756463  45.4412078  40.9351777 104.9437737  46.4940801  40.0576582
 104.8993177  45.7245321  40.2040293 102.8404866  52.2115975  46.0065475
 102.8000721  51.5665652  45.4210631 103.6528184  52.1552592  46.3190887
 102.9548020  52.1074942  45.9662424  99.4312334  58.2634701  35.9090626
  99.0172732  57.6008831  35.5194468 100.1159708  58.4112559  35.3886320
  99.4710705  58.1875359  35.7747123 102.7977628  57.4224786  36.6614243
 102.3993911  57.5327056  35.8935063 102.1828847  57.6306852  37.2440802
 102.6476517  57.4698354  36.6345542 101.3705530  44.0298934  29.5288382
 100.7770369  44.3515930  28.9772949 101.4080807  43.1840029  29.3209488
 101.2879919  43.9523262  29.4171154 108.3299330  37.4811826  37.0616469
 107.8230195  36.7740966  36.9937646 109.1266764  37.1505015  37.1917545
 108.3726570  37.3284977  37.0715464 104.2463346  43.9878438  32.9590132
 104.0177039  44.0111140  32.1168491 104.5061422  43.1635905  33.0785143
 104.2509534  43.8694518  32.8515330  98.5282575  45.8412911  42.5615233
  98.0161478  45.2334094  42.9200264  98.3562071  46.5569504  43.0289208
  98.4272212  45.8576211  42.6831456  93.3748289  44.2850487  45.2117594
  93.2050880  44.9451861  44.6665801  92.9314239  44.4957048  45.9330084
  93.2847623  44.4136469  45.2379224  97.3008109  42.5254985  34.2544328
  97.7765475  42.8872064  33.6194509  96.7996708  43.1811452  34.5344471
  97.2973468  42.6749173  34.2021069 110.5319470  51.9976753  30.0457333
 110.9153076  52.7468109  30.2755430 109.7363584  52.2442572  29.7869322
 110.4713253  52.1446446  30.0414907 102.4051645  43.7637156  45.0017488
 102.9623075  43.5350965  44.3695954 102.0812710  44.5242822  44.7252701
 102.4398055  43.8420993  44.8673985  90.2750354  47.1897352  40.4706084
  89.7277073  46.5197998  40.5886953  91.0642732  46.8227200  40.5349552
  90.3102538  47.0362339  40.4974785 100.1234762  46.8504809  45.9669495
 100.8746089  47.1656486  46.2809050 100.3157339  46.6483980  45.1403417
 100.2626176  46.8672191  45.8912891  99.3434762  44.6696184  27.6217712
  99.7233727  44.6875813  26.8368827  98.6027358  45.1150173  27.5008559
  99.2903600  44.7377959  27.4881280 106.9720052  42.9778375  33.2093291
 106.9714279  42.8227032  34.0677567 106.7676232  43.8241363  33.1534676
 106.9419830  43.0798996  33.3281230  89.0337323  46.4018160  37.6252107
  88.8559084  45.9494769  38.3507023  88.7456346  47.2044321  37.8090585
  88.9650277  46.4540718  37.7595610 104.6960904  47.6575877  36.8629498
 105.1914570  46.9398872  36.8233518 103.8860680  47.3546675  36.7483985
 104.6504798  47.5073524  36.8403224 100.1419516  51.5073691  29.0126502
  99.3330839  51.1840364  28.9659812 100.6494425  50.8006913  28.9454751
 100.0969183  51.3555007  28.9956797  90.7709793  48.9345884  34.7373866
  89.9055313  48.9231574  34.6256638  90.8708609  48.7476107  35.5845006
  90.6583960  48.9051945  34.8462811 106.7612723  50.4079565  39.5506626
 107.1867795  49.8853987  38.9977051 106.3969643  51.0060402  39.0295249
 106.7699326  50.4189792  39.3915636  96.3966803  58.7043782  38.3103972
  96.7113362  59.5180171  38.3181754  96.8060217  58.3194001  38.9786131
  96.5034901  58.7672485  38.4108064 103.3491323  54.1213829  35.8807784
 103.8202501  54.8354092  36.0497769 103.6851501  53.5212579  36.4167653
 103.4686438  54.1385293  35.9840160 105.4368307  55.7315142  48.0599856
 105.5465273  54.9423703  48.4156603 105.7659204  55.6421079  47.2574194
 105.5020713  55.6020995  47.9942247 100.2660818  38.8941300  42.8365879
 100.3988723  38.0972293  43.1646854 100.6505971  39.4207703  43.4164154
 100.3417147  38.8541216  42.9709382 103.9865269  53.9131763  42.6435477
 103.4386215  53.2889647  42.3755542 104.4478298  54.1026035  41.9279556
 103.9732479  53.8490813  42.4985908 103.3393173  35.8171626  39.4346972
 102.5339137  35.7069355  39.7514810 103.2099908  35.9184081  38.5776838
 103.2013306  35.8155296  39.3555012 106.7959133  41.9817118  40.0286669
 106.2122122  42.4826324  39.6164236 107.1163428  41.4746674  39.3950992
 106.7572309  41.9808953  39.8745176  99.3353933  40.8957712  30.3045344
 100.1569627  41.0656025  30.0627039  98.8723584  41.0504973  29.5811641
  99.3885095  40.9439445  30.1616988  97.9249265  38.8900475  41.0843772
  98.4693678  38.5491602  41.6748114  97.9786200  39.7485936  41.2265057
  98.0138384  38.9655734  41.1925646  93.7379823  52.6516891  37.9582580
  94.3424681  52.6112725  37.3296401  93.5307136  53.4988043  37.9886636
  93.7968721  52.7704893  37.8698697 103.5523595  54.9182836  39.1744818
 104.3721969  54.7745802  39.4361113 103.2717673  55.5429035  39.7161256
 103.6320339  54.9893188  39.2932757  88.9731106  51.6351508  37.8281503
  88.8755384  50.8247780  38.1371560  89.7559975  51.6143302  37.4427772
  89.0747242  51.5118598  37.8168366 120.0237246  62.5747688  32.1387694
 119.9931250  63.4292324  32.3105964 120.6218595  62.2742980  32.6973838
 120.1074404  62.6564184  32.2462496 113.2236931  61.6623339  36.8940625
 112.3674826  61.8231837  36.9449741 113.2704584  60.7915403  36.9145686
 113.1036042  61.5574140  36.9046691 107.6078070  71.1986056  32.6577856
 106.8560970  70.8201595  32.4293901 108.0564082  71.2304490  31.9096666
 107.5627737  71.1471664  32.5135358 116.5330647  67.9309864  46.5001081
 117.2397414  67.4361895  46.6288015 116.7218583  68.3718946  45.7703739
 116.6658553  67.9228215  46.4110126 113.0603030  71.6211426  28.0863403
 112.7254399  72.2988348  27.6507625 113.5729901  71.2316737  27.4980275
 113.0868611  71.6636004  27.9350195 112.6007322  73.5725695  34.0274515
 112.9846701  74.1412593  33.4879290 112.5366463  72.8475205  33.5480331
 112.6480749  73.5501158  33.8768377 116.0688752  63.7215383  39.5372276
 116.6144712  64.4000469  39.5966246 116.0105628  63.5802843  38.6773858
 116.1404666  63.8007384  39.4184337 109.1862827  71.2104449  34.9240629
 109.2873189  70.4004803  35.2337756 108.5904572  71.1161395  34.2940307
 109.1135365  71.0769477  34.8766867 117.8453820  65.1499990  30.4106004
 117.7293346  65.9007676  30.8398142 118.6409707  64.8923943  30.6602091
 117.9458410  65.2234837  30.5110096 109.0263566  76.1282038  36.3255485
 109.6701022  76.5695202  36.7151643 109.3519822  75.3235464  36.2385743
 109.1695395  76.0747233  36.3700962 102.3827871  67.2324735  34.5492962
 102.1478055  66.3992388  34.4425231 102.5213512  67.5129401  33.7354163
 102.3683533  67.1508239  34.4135317 104.6817958  59.4010466  37.4477270
 104.0622990  58.8103113  37.2787285 104.5801822  59.9921901  36.8141593
 104.5755634  59.4014548  37.3282260 109.7284146  69.1394013  31.6975346
 110.0499987  69.6799220  31.0936654 110.3756242  68.5690784  31.8297636
 109.8710201  69.1353188  31.6282382 111.7785854  61.1410008  31.7809733
 112.4766019  61.3198135  32.2731196 112.0938186  60.6180347  31.1580122
 111.9281191  61.0903780  31.7611743 104.4087091  62.9462748  39.6920839
 104.2845788  63.5325193  40.3270658 105.0605376  62.4522943  39.9933114
 104.4860741  62.9601552  39.8306768 111.9673789  67.5280453  31.7689525
 112.4067425  66.9197553  32.2144297 111.8178452  67.1487826  30.9974990
 112.0095255  67.3818924  31.7208692 109.4345432  66.1224464  38.9708350
 110.0794435  65.6296908  38.6519299 109.6747209  66.2649251  39.7974428
 109.5656017  66.0701907  39.0457883 111.9731524  68.9679370  38.6215243
 112.2554767  68.1730776  38.4001998 112.7017684  69.4459958  38.6420304
 112.1221087  68.9213967  38.5918258 109.9512717  56.5102404  35.8631008
 109.6216048  56.9613548  35.1934706 109.2757719  56.4318568  36.4104014
 109.8023154  56.5653539  35.8454231 115.5683126  65.8807634  28.7220294
 115.4834421  66.7368601  28.8669863 116.0567509  65.6051958  29.3902453
 115.6272023  65.9664955  28.8422375 117.1589125  52.4987927  34.1080618
 116.8442566  53.1891406  34.5401041 116.6416067  52.4432709  33.4066119
 117.0353596  52.5922816  34.0677567 116.5001559  62.4992428  30.2218029
 115.9713031  62.7152062  30.8815335 117.0226579  63.1928567  30.1418998
 116.4990012  62.6335565  30.3073628 121.9549612  68.0738733  35.5951073
 121.1247315  68.2849376  35.7584490 121.9058864  67.2475787  35.3193357
 121.8256347  67.9828339  35.5788439 108.3901167  66.3955645  29.0225497
 107.8058382  66.9005676  29.4291361 107.9871262  66.1698032  28.2822089
 108.2440471  66.4363893  28.9730522 103.9445195  72.1110406  35.8249168
 103.4612774  72.8360896  35.8008752 104.7568514  72.4086536  35.9359326
 103.9935943  72.2612760  35.8376448 110.0159350  70.9042587  38.4298983
 109.4986291  70.5450002  37.8260291 110.7133741  70.3804761  38.4405049
 110.0424931  70.7740275  38.3429242 113.6722942  71.3537401  44.3915156
 113.7606287  71.1663541  45.2393366 114.1012654  70.7074830  43.9920003
 113.7485044  71.2300408  44.4586907 111.2393401  70.6368561  43.3732818
 110.6764236  70.2241171  43.8972479 112.0014425  70.5621466  43.7925961
 111.2687850  70.5645961  43.5125818 112.8478381  62.6421297  27.4994417
 113.0874385  62.8499281  26.6869761 113.1694222  61.8378806  27.6083362
 112.9315539  62.5535398  27.3954971 108.1568672  54.5714693  31.3453955
 108.9114640  54.9393010  31.1071006 107.9796206  54.9454247  32.1133135
 108.2423150  54.6812881  31.4238844 106.7989393  72.6266582  35.9769448
 107.5009972  72.1118571  36.0342205 106.7186876  72.9540733  36.7816323
 106.8913153  72.5980808  36.1042240 121.4503570  60.7209133  39.3901495
 120.6131991  60.7911320  39.6249089 121.4191801  60.7233628  38.5175797
 121.3221853  60.7319360  39.2961043 107.8468299  62.8642169  45.1049863
 108.0188803  62.7548063  45.9535145 108.3837657  63.5096574  44.8681056
 107.9513303  62.9434171  45.1954960 106.5125736  56.9785012  28.0432068
 106.3301309  57.1956892  27.2173061 107.3751349  57.0924024  28.0990683
 106.6130326  57.0274910  27.9286555 106.1240168  68.8172934  35.4855056
 106.9629068  69.0495867  35.5328818 106.1551937  67.9477245  35.4162092
 106.2521886  68.7229880  35.4819701 106.7492871  69.2373809  39.7868362
 107.2891096  69.0944940  40.4571734 106.0662817  69.6370560  40.1552388
 106.7285025  69.2753480  39.9402784 112.1925455  53.9811422  31.0781092
 112.9211616  53.8027377  30.6319248 112.2820348  54.8229502  31.2888270
 112.3132117  54.0795301  31.0434610 116.1733756  64.9164810  34.9813386
 116.9291271  65.3496324  35.0202295 116.2796081  64.2669579  35.5548022
 116.3003927  64.8842294  35.0711412 119.2113927  68.7438087  35.7315789
 118.7749159  68.7474829  36.4874761 118.8776843  69.4243586  35.2995367
 119.0976547  68.8450543  35.7796622 113.7843001  70.7846420  47.0558940
 114.5683417  70.8977268  47.4214682 113.5839595  69.9587557  47.2517625
 113.8709026  70.6793139  47.1393326 102.1530016  65.4574100  39.9402783
 101.8868431  64.6413217  40.0993774 102.1668580  65.5027255  39.0698299
 102.1154739  65.3431005  39.8356265 119.1311410  55.7851915  37.9745217
 119.7737319  55.8550019  38.5607132 119.3834431  55.1181138  37.4724759
 119.2633542  55.6978263  37.9872496 106.0587763  60.2559184  26.5554541
 105.3445940  59.9697364  26.9676974 106.5431732  60.5955810  27.1960929
 106.0247127  60.2640834  26.7110176 106.9028623  58.9952478  42.5869791
 106.2100419  58.5249458  42.8330523 107.5188950  58.7690783  43.1611498
 106.8913153  58.8919610  42.7078944 113.9413394  72.6956522  40.7025395
 113.1428640  72.4556022  40.9599264 114.3899406  72.7470915  41.4492443
 113.8888005  72.6678913  40.8510319 122.3458273  65.4619007  34.6235426
 123.0074708  64.9009675  34.5231335 121.7049685  64.9671038  34.9488118
 122.3487141  65.3055416  34.6567767 113.2335081  68.7589138  26.9316350
 113.6486230  68.4274162  26.2400845 112.4027011  68.5258041  26.8036486
 113.1723090  68.6760394  26.8107197 102.5623430  66.2432879  37.2214528
 102.3799003  66.2179765  36.3686820 103.2973099  66.7131817  37.2603436
 102.6437494  66.3094242  37.1012446 118.6323104  66.4784389  34.3647415
 118.8678693  66.6229588  33.5374266 118.7812668  67.2426797  34.7578929
 118.6888907  66.6123444  34.3011019 105.6269182  62.9617882  43.7296636
 106.3509154  62.9470913  44.2161531 105.7285318  63.6713237  43.2318604
 105.7487391  63.0642585  43.7275423 120.4613561  65.3186055  32.2017019
 120.7921778  65.8513695  31.5957114 121.0346649  65.3724943  32.8578970
 120.5947240  65.4055624  32.2094801 113.0014131  66.4416967  48.5945583
 112.2087112  66.7560479  48.7798203 113.1163058  66.6568435  47.7566368
 112.9009542  66.5200803  48.4983918 115.6745450  63.1650958  32.8840599
 115.7692304  63.9040252  33.3380225 115.0504294  62.7368433  33.3175164
 115.5954480  63.2112278  33.0148747 113.9297924  66.3437171  43.5330880
 114.5036785  65.7064415  43.6879444 113.8512728  66.3441253  42.6640538
 114.0031159  66.2502282  43.4277291 102.5294340  63.1226380  37.3713594
 103.1067843  62.9862831  38.0105840 101.8308402  62.6662164  37.6259179
 102.5115362  63.0348646  37.5035884 115.9268471  65.0099698  26.1177551
 115.8448634  65.0801885  26.9832538 116.5648192  65.5729442  25.9261292
 116.0088309  65.1038669  26.2167501 109.2861642  64.7760436  35.5852077
 109.0280887  63.9432170  35.5583377 109.3410125  65.0018049  34.7444578
 109.2561420  64.6858207  35.4572214 114.3662693  56.8788886  35.6856170
 113.6619019  56.3898072  35.8440089 114.4147667  56.8911361  34.8144615
 114.2692744  56.8078534  35.5795510 108.2596355  62.3298198  36.0716972
 107.6845946  62.4890366  36.7080933 107.8832031  61.6933607  35.6085423
 108.1199167  62.2596011  36.0971531 111.9269643  60.8021547  40.9309351
 111.5384076  60.3775765  40.2761542 111.2624342  61.0503697  41.4386377
 111.7716571  60.7760268  40.9097219 121.5692912  60.5596552  33.7057181
 121.3129477  59.7476494  33.5155063 122.4122226  60.5674119  33.4787368
 121.6558938  60.4408550  33.6441998  98.0053173  61.9738273  34.0861413
  98.0913425  61.5970141  34.8674943  98.6328971  61.5998718  33.6081371
  98.1109724  61.8623755  34.1306890 115.7496005  54.4996176  38.4433335
 116.1306517  53.8174347  38.8301209 114.9459289  54.2105778  38.2608999
 115.6872466  54.3563225  38.4737391 113.0308581  65.0320152  29.1286158
 113.8449220  65.3235045  29.0168929 112.9667723  64.3780014  28.5544451
 113.1411321  64.9785347  29.0274995 119.2518072  67.7146148  43.5415733
 119.0156709  66.8834213  43.4227794 119.8961301  67.6631755  44.1270577
 119.3112742  67.5843836  43.6101627 108.9016490  68.5041669  34.2558470
 109.5390437  68.2653417  34.8010263 109.3271561  68.7078828  33.5211630
 109.0592656  68.4992680  34.2275627 103.5929132  70.7430006  38.1392773
 103.6333277  71.0144857  37.3112553 104.1523656  71.2671914  38.5550561
 103.6812478  70.8605761  38.0784662 109.5419305  63.7243959  28.5933359
 109.9264458  63.5051666  29.3449904 109.2930925  64.5506905  28.7234435
 109.5621377  63.8142105  28.7234435 109.7087845  57.0050374  48.3095943
 109.3941286  57.7749937  48.0465506 109.3877778  56.4420630  47.7248170
 109.6146764  57.0360643  48.1837293 120.2754492  67.4990597  39.6044028
 119.9700309  68.2318654  39.9657343 119.5560708  67.0928526  39.3236814
 120.1241835  67.5472330  39.6157165 111.2837962  68.9814092  35.9352256
 111.3576970  68.8189264  36.7894106 112.1007468  69.1704282  35.6912738
 111.4154320  68.9850834  36.0250282 105.0443718  69.3271955  32.9646699
 104.2181836  69.5733692  32.8380978 105.1055710  69.2484036  33.8308757
 104.9317885  69.3516904  33.0735644 107.2619742  55.3940896  33.9242140
 106.3942168  55.4663495  33.9899749 107.5494946  56.1962975  34.1130115
 107.1759490  55.5235043  33.9616906 116.3852631  55.5418755  42.2553461
 117.1306223  55.3528566  41.8416887 115.9689936  56.0676993  41.6967318
 116.4337605  55.5920901  42.1118035 109.8242547  71.9448835  30.6665729
 110.1140846  71.5537816  29.9424956 110.5546028  72.1265540  31.1071005
 109.9749432  71.9142649  30.6248536 123.7614902  62.9127984  37.2058966
 124.3122823  62.2796053  37.4456058 123.7459017  63.4443377  37.8974471
 123.8400098  62.8976932  37.3437825 110.4137293  66.7466581  41.7518860
 109.9148986  67.4582349  41.8303748 111.2237517  67.0667248  41.7137022
 110.4593399  66.8993430  41.7575428 107.7648463  73.9216218  33.7325879
 107.5448758  73.6313572  34.5252546 107.5442985  73.2631173  33.2043791
 107.6996057  73.7815926  33.7714788 106.6765410  66.0089534  35.9981581
 106.3878659  65.3827005  36.5327308 107.5448758  65.9509821  36.0646261
 106.7625662  65.9077078  36.0872535 117.4643308  61.1524317  36.3163563
 117.1208074  60.4314653  36.6670812 117.5636351  60.9438169  35.4741921
 117.4285351  61.0148521  36.2435243 109.9316419  75.2945607  32.5156571
 110.5840477  74.7622050  32.7447597 109.2342027  74.9414260  32.9024445
 109.9247137  75.1635130  32.6068739 106.8797684  67.6484785  31.9223946
 107.6343652  68.0297824  32.1359408 106.2868296  68.0995929  32.3770642
 106.9034397  67.7713612  32.0206824 117.9256337  67.6150021  31.8587551
 118.4914370  68.2743231  31.7746094 117.2784240  67.9599720  32.3303953
 117.9135093  67.7631963  31.9160307 109.3404351  59.6047625  47.0481158
 108.5304126  59.9105405  46.9371000 109.8179037  60.3253208  47.1633742
 109.2907829  59.7562227  47.0488229 108.1995910  68.8193346  37.2964061
 107.6776664  68.9593638  37.9815926 108.5869930  68.0604011  37.4866178
 108.1799611  68.7278870  37.4265138 105.1887094  58.8699155  31.3659016
 104.9011890  58.5000426  30.6290963 105.8757562  59.3394010  31.1042721
 105.2475992  58.8846125  31.2174092 114.3962915  70.5588806  31.2824630
 114.1549591  69.8256666  30.8751695 114.5764248  71.1075663  30.6290963
 114.3870539  70.5311197  31.1254853 109.6262236  65.8497365  32.6945552
 109.4305018  66.4572100  32.1005855 109.8496581  65.1565309  32.2137226
 109.6296877  65.8374891  32.5361633 108.0240766  62.7352103  32.8126421
 108.7463418  62.8993261  32.3530227 107.5448759  63.4561768  32.7065760
 108.0604496  62.8650333  32.7292035 115.9834273  59.0715902  38.1923105
 115.1445374  59.0977181  37.9561369 116.0538641  59.7186638  38.7728452
 115.8702667  59.1712028  38.2432222 105.6748382  65.1410176  41.9180560
 106.1869479  65.4194429  41.2689320 105.3884725  65.8799470  42.2843373
 105.7083246  65.2912529  41.8770438 114.4303552  55.9701279  32.9250721
 115.1329904  55.7709027  32.4470680 114.1647740  55.1977222  33.2319565
 114.4950184  55.8264245  32.8996163 119.8591797  64.2783889  35.4784347
 119.7725772  64.4339315  36.3319126 119.4042277  64.9221964  35.1043752
 119.7795054  64.3959644  35.5491454 102.7615289  59.6480368  32.2144297
 102.8631425  60.4506529  32.5425272 103.5571176  59.4467704  31.9167377
 102.8943194  59.7366266  32.2179652 109.1932108  57.2336564  41.9781602
 109.0015305  57.2491699  42.8281026 110.0430704  57.4300239  41.9548257
 109.2907830  57.2650916  42.1004897 103.5779021  59.7627546  39.9565418
 103.4364513  58.9111487  40.0809926 103.8619584  59.8056206  39.1327624
 103.5986867  59.6427296  39.8533043 113.7317613  61.5994636  34.1009907
 113.4852328  61.5190387  34.9346696 114.0602736  60.8148104  33.9072434
 113.7438857  61.4720901  34.1957430 117.6265662  68.3077995  37.8896688
 117.4880021  69.0059041  38.3945430 116.8465660  68.1526652  37.5332870
 117.4908889  68.3878162  37.9122962 115.9643747  64.6074371  44.1419070
 115.9591786  63.7354187  44.1461496 116.6704741  64.8062540  43.6688525
 116.0688751  64.5078245  44.0726105 109.6914641  64.3351355  43.5132890
 109.8358016  64.9152563  42.8776000 110.0390289  64.7127651  44.2182744
 109.7642102  64.4772059  43.5231885 111.8634558  63.5341523  41.2958021
 111.1157872  63.7272537  40.8906299 112.0176083  62.7086743  41.0582143
 111.7756986  63.4406634  41.2003427 108.7642396  72.5254126  40.3793917
 108.9131959  71.9657042  39.7267321 109.5442398  72.6046128  40.7626435
 108.9016489  72.4539692  40.3390866 119.1219035  67.6656249  28.6513187
 118.7425844  66.8793387  28.6442477 118.4585280  68.2143106  28.5084831
 118.9677510  67.6301073  28.6293984 111.2895696  72.6968769  41.6578407
 111.2139367  72.0277580  42.2129196 111.2185555  73.3986557  42.1719074
 111.2676303  72.7013677  41.8155256 112.1036335  57.4292074  42.1853425
 112.5608949  58.1616048  42.3126217 112.1792664  57.0058539  42.9440681
 112.1827305  57.4749312  42.3154502 104.3469326  57.6757893  43.2742869
 103.8111516  57.0638252  43.5903636 104.4087091  58.2506029  43.9276535
 104.2764959  57.6704821  43.4178296 116.5763661  50.6081949  36.0547268
 116.6947229  51.0658412  35.3214571 116.4025837  49.8027210  35.7683486
 116.5682832  50.5575721  35.9048202 111.9465943  71.2169768  32.4902013
 112.7115834  70.9479412  32.1684678 111.8444033  70.7319779  33.2072076
 112.0447439  71.1059333  32.5481841 109.9818713  59.4194178  39.0295249
 109.1914788  59.2385638  39.3512585 110.3779336  58.6421130  39.0125544
 109.9235589  59.2781639  39.0747798 114.4684604  68.2481952  24.4701963
 115.2357589  68.3082077  24.0607815 114.0215913  67.6762393  23.9858281
 114.5158031  68.1718528  24.3379673 115.3662399  67.0536608  36.7554695
 114.6907401  66.8221840  37.2568082 115.3754775  66.4457791  36.1296800
 115.2680904  66.9295533  36.7370847 112.4956543  61.8954437  43.5118748
 112.4315684  62.7564393  43.3838885 112.6353731  61.5786430  42.7114299
 112.5072013  61.9754603  43.3746961 117.3679134  69.9101740  28.9864873
 117.4498971  70.7168726  28.6626324 117.8528876  69.9297699  29.7105647
 117.4516292  70.0322403  29.0451772 111.1775637  64.5886576  37.6534951
 110.7537886  64.7891075  36.9173969 111.0020492  63.7415424  37.7659251
 111.0886518  64.4935358  37.5608641 110.6787330  76.1037089  40.1156408
 111.1683261  75.4047878  39.9332073 110.1071563  75.8060959  40.7032466
 110.6671860  75.9563313  40.1757449 106.4658082  65.0838628  33.0862923
 106.6222701  65.0185430  33.9418916 106.8058675  65.8587180  32.8741603
 106.5391317  65.1887826  33.1817518 113.0037227  64.4596511  31.9556287
 113.5452772  63.9566892  32.4194907 113.3183786  64.4061706  31.1445772
 113.1301624  64.3775932  31.9040099 116.8754334  68.6699158  49.0683199
 117.6889199  68.3984307  49.2288331 116.7149300  68.3706698  48.2643395
 116.9724282  68.5854084  48.9728605 111.1723676  69.8513863  29.2396315
 111.2416497  68.9928401  29.3789315 111.9512131  70.0685744  28.9115339
 111.2976526  69.7566727  29.2113472 114.1526496  59.3532816  42.0078587
 114.3668466  58.7143730  41.4541941 113.5360395  59.7978639  41.5786449
 114.0931825  59.3242959  41.8629018 115.5631164  72.2751564  33.4532808
 115.1710956  71.9718279  32.7355674 115.7184236  73.1120654  33.2637762
 115.5284754  72.3535401  33.3189305 103.0392344  62.2673578  33.4023691
 103.4191308  62.6858123  32.7383958 102.4647708  62.8487034  33.7092534
 103.0103668  62.4151437  33.3500432 116.3165584  60.9621881  42.9461894
 115.5042266  60.6547771  43.0275067 116.7755519  60.4820881  43.5104606
 116.2645969  60.8458373  43.0416488 115.7270839  68.8401553  33.3938839
 115.3685493  69.0116196  34.1702871 115.2409549  69.3014758  32.8366837
 115.6029536  68.9340524  33.4264108 113.5441225  52.4632751  36.9965930
 112.6734783  52.4371472  36.9499239 113.7981566  52.2909943  36.1791776
 113.4534785  52.4342895  36.8686067 110.5159204  64.5200718  25.9339073
 110.8051729  65.2965601  26.2082647 110.6031003  64.0089450  26.6353572
 110.5713460  64.5592637  26.0781571 113.4119092  62.3681952  47.7290597
 113.8818723  62.9924069  48.1158471 113.4580972  61.6998928  48.2883811
 113.4886967  62.3616633  47.8690668 110.5690365  54.4738980  38.4539400
 110.0528854  53.7819171  38.5790979 110.0084294  55.1409757  38.4001999
 110.4096878  54.4702237  38.4645466 112.6382599  55.0131940  40.2832253
 112.2514352  55.0380971  41.0645783 112.1515536  54.4473618  39.8306770
 112.5095108  54.9327691  40.3320157 116.8875578  69.7305449  44.3406039
 117.5255299  69.2365644  44.0068496 116.2449670  69.6582849  43.7558266
 116.8869805  69.6464457  44.2048394 118.6132578  61.5794595  38.9071955
 118.1860186  61.4920943  38.1520055 117.9758631  61.6872370  39.4926799
 118.4562185  61.5827255  38.8817397 112.3039740  51.8998925  42.5742513
 112.9332858  52.4359225  42.2963583 112.4725603  51.8076284  43.4256079
 112.4217535  51.9660288  42.6591041 112.1053655  56.6870120  44.8468924
 112.9327085  56.4155269  44.9027539 112.1261501  57.4830962  45.2032743
 112.2306505  56.7649874  44.9084107 116.9429835  70.4225257  40.9811396
 117.7322213  70.0714322  41.1013478 117.1173432  71.2361645  40.7188030
 117.0850116  70.4911114  40.9599264 106.6823145  63.8333983  38.0339185
 105.8411152  63.7337857  38.2418079 106.8913153  64.6029463  38.3853506
 106.5887838  63.9326026  38.1166500 104.1598712  61.4553520  35.8623936
 103.7655410  61.5296532  35.0874045 103.6038829  61.8411466  36.4132298
 104.0201524  61.5235294  35.8291596 115.7963659  54.4334814  35.5427815
 116.0013252  54.3657122  36.3884812 115.4690083  55.2393635  35.4748992
 115.7778907  54.5420754  35.6587470 110.4939810  61.7615382  37.2836783
 110.1902947  61.2071370  37.8847190 109.7919231  61.9407592  36.7964817
 110.3456020  61.7060164  37.3006488 109.5505907  59.0715902  31.8481484
 109.8265641  58.3534814  31.4359052 110.1504576  59.6700822  31.6402591
 109.6799172  59.0536272  31.7562246 108.5558161  68.9765103  41.9908880
 108.4478516  68.9867165  42.8570938 108.7653942  69.8019883  41.8013834
 108.5708272  69.1006177  42.0912972 119.0497347  54.9866578  35.0230580
 118.4371660  55.4736980  35.4084312 119.1461521  54.3110069  35.5668231
 118.9735244  54.9584887  35.1609438 113.0516427  56.7429419  30.1228079
 113.5060174  56.9139980  30.8475924 113.5256473  56.1297530  29.7225855
 113.1884748  56.6780304  30.1701841 106.5731953  66.2277745  39.4530818
 105.9819886  66.8687243  39.4233833 107.3352976  66.6515362  39.4262117
 106.5980214  66.3853583  39.4445965 106.9692576  57.3879743  40.1198836
 107.4294057  57.4618672  40.8573959 107.0148682  58.1860997  39.7698657
 107.0443131  57.5173890  40.1771592 108.6175925  58.0546438  44.6870863
 108.2261491  57.4079785  45.1226640 108.7861788  58.6457873  45.3065118
 108.5846836  58.0460706  44.8433569 122.6922374  66.0583515  40.4508096
 122.7505498  66.5070164  41.1968073 122.0588842  66.4682328  40.0138176
 122.6073670  66.1857249  40.4960645 116.3321469  71.6787057  36.8862842
 116.1341158  72.1677871  36.1919054 115.7109180  71.8828298  37.4646976
 116.2109034  71.7803595  36.8686066 110.3929447  63.4471953  31.2273087
 111.1371492  63.8346230  31.4656037 110.5390144  62.6029379  31.3913575
 110.5240033  63.3802426  31.2867056 112.3109023  55.2422212  36.2604948
 111.4645068  55.4145020  36.1346298 112.3080155  54.4371556  36.5970776
 112.1856173  55.1483241  36.2916075 113.3807323  59.0197427  37.1267006
 112.9067278  58.4939189  37.6372317 113.7525459  58.4726900  36.5581868
 113.3657212  58.8613423  37.1182153 103.7580353  61.0168933  42.4950552
 104.6205967  60.9164643  42.4087882 103.4272137  60.4363643  41.9336124
 103.8365550  60.9160560  42.3995958 119.6444054  64.0799802  38.5373787
 119.4042277  63.2406218  38.5416213 120.1236061  64.1599969  39.2614560
 119.6796238  63.9681202  38.6448589 115.3090823  59.9133981  30.1892760
 114.7813842  59.9962725  29.4998469 115.7686531  60.6551853  30.1857405
 115.2992673  60.0354644  30.0867455 121.6449241  60.8601260  36.4903046
 121.4059011  60.8197094  35.6523830 121.8083142  61.7072412  36.6168767
 121.6339544  60.9793345  36.3856528 118.2495271  65.2451209  42.4208091
 118.9729470  64.7923735  42.2419111 117.9845233  65.5255875  41.6380419
 118.3176544  65.2202177  42.2786806 107.1182139  59.8411383  39.1560970
 106.4935210  59.8529774  38.5486923 106.7827734  60.3171558  39.8052210
 106.9767631  59.9129899  39.1617539 107.3023888  58.1836501  25.2133655
 106.9536692  58.8356226  25.6765204 106.8220334  58.1693614  24.4857526
 107.1794132  58.2779555  25.1744746 103.8307815  67.9011843  40.5964734
 103.3007740  67.2104282  40.6459709 104.1032908  67.8922028  39.7677443
 103.7932537  67.7978974  40.4812150 114.8627906  68.4837545  29.3202417
 115.5862104  68.9495658  29.1766990 114.4228497  68.5511155  28.5700014
 114.9043598  68.5621382  29.1887198 114.0314061  65.3435087  40.5703106
 113.4171054  64.7993137  40.8651741 114.5481346  64.8299324  40.0908922
 114.0169723  65.1871496  40.5427334 113.2710358  66.4139357  38.3047405
 112.8437966  65.7889076  37.8712840 113.2635302  66.1314279  39.1306412
 113.2069499  66.2792138  38.3627232 106.3872885  61.4504530  41.3735838
 106.5466372  60.6947854  41.7787560 106.2065778  61.9995470  42.0276576
 106.3838244  61.4198344  41.5298544 114.3293188  53.6165766  41.9286628
 113.8333749  53.8129440  41.2378195 115.0862250  54.0158434  41.7575430
 114.3680013  53.7043500  41.8006765 111.5996067  57.2908112  38.5189939
 111.6238555  56.7568224  37.8302718 111.8507541  56.7825421  39.1815529
 111.6405986  57.1369016  38.5154583  99.1103657  64.5739607  37.9533083
  99.0047106  64.5286451  37.0885167  98.3603877  64.9193387  38.2347367
  98.9839260  64.6180515  37.8670412 107.8797390  56.0178930  37.8995683
 107.9195761  56.5188137  38.6130390 107.0547054  56.1089324  37.6301606
 107.7636916  56.1060746  37.9646221 110.0627003  65.5839670  46.0015977
 109.2122633  65.7211384  46.1373622 110.2255130  64.8503448  46.4463679
 109.9610866  65.4953771  46.0871577 109.3011753  62.5339440  40.1969582
 108.4703683  62.7013258  39.9904830 109.2463270  62.1575391  40.9818467
 109.1701168  62.5029171  40.2818110 107.1095536  56.0248333  45.8325993
 107.7348240  55.4810466  46.1055425 106.6546016  55.5443250  45.2633783
 107.1343797  55.8737814  45.7887586 107.6747797  60.8095031  30.7259700
 107.8150758  61.3067496  31.4288341 108.1730330  60.1081326  30.8673913
 107.7688878  60.7797010  30.8511279 107.7048019  61.6762142  28.0552276
 108.3393099  62.2722567  27.9901738 107.7873630  61.3765600  28.8698147
 107.8104570  61.7203051  28.1655363 120.6830585  64.2077620  40.9238641
 121.2748425  64.8474870  40.9556839 121.1189580  63.5100657  41.2130707
 120.8349016  64.1995970  40.9719473 109.2827002  57.6076118  28.0297718
 109.6042843  57.1279200  27.3756981 109.5453946  58.4175764  27.8388530
 109.3693028  57.6566016  27.9053210 112.5123975  68.6294992  41.5496534
 112.0049066  69.1830839  41.9937165 112.2150621  68.6903282  40.7315309
 112.3928860  68.7201303  41.4944991 114.6786157  56.9948312  40.3921197
 115.1041229  56.5420838  39.7804724 114.0643150  56.4408382  40.6685985
 114.6514802  56.8462288  40.3426223 104.2101007  63.8729983  31.3241822
 104.7193236  64.4694491  31.7053128 104.6835279  63.6055957  30.6418242
 104.3544383  63.9215799  31.2796345 115.1231755  72.5458250  29.4800478
 114.4061065  72.3719112  29.0147715 115.7738493  72.3110822  28.9475964
 115.1133606  72.4854042  29.3329696 113.1180380  53.4663412  33.8011774
 112.4748698  53.3161058  34.3696913 112.7779787  53.2205757  33.0360879
 112.9725457  53.4075534  33.7714790 117.7079726  61.4222838  33.2241783
 117.0370916  61.9652541  33.0954849 118.4019477  61.8917694  32.9823478
 117.7108594  61.5721110  33.1697311 111.7566460  73.5619550  38.4553541
 111.5332115  72.8038380  38.8237568 111.2676303  73.5917572  37.7333981
 111.6509909  73.4541775  38.4030282 117.8707854  57.8778722  36.1332156
 118.2235464  57.4508445  36.8077955 117.0122655  57.7929566  36.2633233
 117.7957299  57.8023463  36.2527167 106.5691539  60.5086242  34.1915003
 105.8503528  60.9250374  34.4587866 106.9403901  61.0740481  33.6406641
 106.5183471  60.6535523  34.1497810 115.8691120  61.1414091  40.0816999
 115.8489047  60.9597386  40.9351777 115.9170320  62.0126109  40.0576582
 115.8725761  61.2430629  40.2040293 113.8137450  67.7301283  46.0065475
 113.7733304  67.0850960  45.4210631 114.6260768  67.6737900  46.3190887
 113.9280603  67.6260249  45.9662424 110.4044917  73.7820009  35.9090626
 109.9905316  73.1194139  35.5194468 111.0892291  73.9297867  35.3886320
 110.4443289  73.7060667  35.7747123 113.7710211  72.9410094  36.6614243
 113.3726494  73.0512364  35.8935063 113.1561431  73.1492160  37.2440802
 113.6209101  72.9883662  36.6345542 112.3438113  59.5484242  29.5288382
 111.7502953  59.8701238  28.9772949 112.3813391  58.7025337  29.3209488
 112.2612502  59.4708570  29.4171154 119.3031914  52.9997134  37.0616469
 118.7962779  52.2926273  36.9937646 120.0999348  52.6690323  37.1917545
 119.3459153  52.8470285  37.0715464 115.2195930  59.5063746  32.9590132
 114.9909623  59.5296448  32.1168491 115.4794006  58.6821213  33.0785143
 115.2242118  59.3879826  32.8515330 109.5015158  61.3598219  42.5615233
 108.9894061  60.7519402  42.9200264 109.3294654  62.0754812  43.0289208
 109.4004795  61.3761518  42.6831456 104.3480873  59.8035794  45.2117594
 104.1783463  60.4637169  44.6665801 103.9046823  60.0142356  45.9330084
 104.2580207  59.9321777  45.2379224 108.2740692  58.0440292  34.2544328
 108.7498059  58.4057372  33.6194509 107.7729292  58.6996760  34.5344471
 108.2706051  58.1934481  34.2021069 121.5052054  67.5162061  30.0457333
 121.8885660  68.2653417  30.2755430 120.7096167  67.7627880  29.7869322
 121.4445836  67.6631754  30.0414907 113.3784229  59.2822464  45.0017488
 113.9355659  59.0536273  44.3695954 113.0545294  60.0428129  44.7252701
 113.4130639  59.3606301  44.8673985 101.2482937  62.7082660  40.4706084
 100.7009657  62.0383306  40.5886953 102.0375316  62.3412508  40.5349552
 101.2835121  62.5547646  40.4974785 111.0967346  62.3690117  45.9669495
 111.8478673  62.6841794  46.2809050 111.2889922  62.1669288  45.1403417
 111.2358760  62.3857499  45.8912891 110.3167345  60.1881492  27.6217712
 110.6966310  60.2061121  26.8368827 109.5759942  60.6335481  27.5008559
 110.2636183  60.2563267  27.4881280 117.9452636  58.4963683  33.2093291
 117.9446862  58.3412340  34.0677567 117.7408816  59.3426670  33.1534676
 117.9152414  58.5984304  33.3281230 100.0069907  61.9203468  37.6252107
  99.8291668  61.4680077  38.3507023  99.7188929  62.7229629  37.8090585
  99.9382860  61.9726026  37.7595610 115.6693488  63.1761185  36.8629498
 116.1647153  62.4584180  36.8233518 114.8593264  62.8731983  36.7483985
 115.6237381  63.0258831  36.8403224 111.1152100  67.0258998  29.0126502
 110.3063422  66.7025672  28.9659812 111.6227008  66.3192221  28.9454751
 111.0701766  66.8740315  28.9956797 101.7442377  64.4531192  34.7373866
 100.8787896  64.4416882  34.6256638 101.8441193  64.2661414  35.5845006
 101.6316544  64.4237253  34.8462811 117.7345307  65.9264873  39.5506626
 118.1600378  65.4039295  38.9977051 117.3702227  66.5245710  39.0295249
 117.7431909  65.9375100  39.3915636 107.3699387  74.2229090  38.3103972
 107.6845946  75.0365479  38.3181754 107.7792800  73.8379309  38.9786131
 107.4767485  74.2857793  38.4108064 114.3223906  69.6399137  35.8807784
 114.7935085  70.3539400  36.0497769 114.6584085  69.0397887  36.4167653
 114.4419021  69.6570601  35.9840160 116.4100891  71.2500450  48.0599856
 116.5197856  70.4609011  48.4156603 116.7391788  71.1606387  47.2574194
 116.4753297  71.1206303  47.9942247 111.2393401  54.4126608  42.8365879
 111.3721307  53.6157601  43.1646854 111.6238554  54.9393011  43.4164154
 111.3149730  54.3726524  42.9709382 114.9597853  69.4317071  42.6435477
 114.4118799  68.8074955  42.3755542 115.4210881  69.6211343  41.9279556
 114.9465062  69.3676121  42.4985908 114.3125756  51.3356934  39.4346972
 113.5071720  51.2254663  39.7514810 114.1832492  51.4369389  38.5776838
 114.1745889  51.3340604  39.3555012 117.7691717  57.5002426  40.0286669
 117.1854706  58.0011632  39.6164236 118.0896011  56.9931982  39.3950992
 117.7304892  57.4994261  39.8745176 110.3086516  56.4143020  30.3045344
 111.1302211  56.5841333  30.0627039 109.8456167  56.5690281  29.5811641
 110.3617678  56.4624753  30.1616988 108.8981848  54.4085783  41.0843772
 109.4426261  54.0676909  41.6748114 108.9518784  55.2671244  41.2265057
 108.9870967  54.4841042  41.1925646 104.7112407  68.1702199  37.9582580
 105.3157264  68.1298033  37.3296401 104.5039719  69.0173351  37.9886636
 104.7701304  68.2890201  37.8698697 114.5256179  70.4368144  39.1744818
 115.3454553  70.2931110  39.4361113 114.2450257  71.0614343  39.7161256
 114.6052922  70.5078496  39.2932757  99.9463689  67.1536816  37.8281503
  99.8487967  66.3433088  38.1371560 100.7292559  67.1328610  37.4427772
 100.0479826  67.0303906  37.8168366 124.1969514  77.1808647  36.8940625
 123.3407410  77.3417145  36.9449741 124.2437168  76.3100710  36.9145686
 124.0768626  77.0759448  36.9046691 118.5810654  86.7171364  32.6577856
 117.8293553  86.3386903  32.4293901 119.0296666  86.7489798  31.9096666
 118.5360321  86.6656972  32.5135358 124.0335614  87.1396734  28.0863403
 123.6986982  87.8173655  27.6507625 124.5462484  86.7502045  27.4980275
 124.0601195  87.1821312  27.9350195 123.5739905  89.0911003  34.0274515
 123.9579284  89.6597901  33.4879290 123.5099046  88.3660513  33.5480331
 123.6213332  89.0686466  33.8768377 120.1595410  86.7289757  34.9240629
 120.2605773  85.9190110  35.2337756 119.5637155  86.6346703  34.2940307
 120.0867949  86.5954785  34.8766867 119.9996150  91.6467346  36.3255485
 120.6433605  92.0880510  36.7151643 120.3252405  90.8420772  36.2385743
 120.1427978  91.5932540  36.3700962 113.3560454  82.7510043  34.5492962
 113.1210639  81.9177695  34.4425231 113.4946095  83.0314709  33.7354163
 113.3416117  82.6693547  34.4135317 115.6550542  74.9195774  37.4477270
 115.0355573  74.3288421  37.2787285 115.5534405  75.5107209  36.8141593
 115.5488217  74.9199856  37.3282260 120.7016729  84.6579321  31.6975346
 121.0232570  85.1984528  31.0936654 121.3488826  84.0876092  31.8297636
 120.8442785  84.6538496  31.6282382 122.7518437  76.6595316  31.7809733
 123.4498602  76.8383443  32.2731196 123.0670770  76.1365655  31.1580122
 122.9013775  76.6089088  31.7611743 115.3819675  78.4648055  39.6920839
 115.2578372  79.0510501  40.3270658 116.0337959  77.9708251  39.9933114
 115.4593324  78.4786860  39.8306768 122.9406373  83.0465761  31.7689525
 123.3800008  82.4382861  32.2144297 122.7911036  82.6673134  30.9974990
 122.9827839  82.9004232  31.7208692 120.4078016  81.6409772  38.9708350
 121.0527018  81.1482216  38.6519299 120.6479793  81.7834559  39.7974428
 120.5388601  81.5887215  39.0457883 122.9464107  84.4864678  38.6215243
 123.2287350  83.6916084  38.4001998 123.6750268  84.9645266  38.6420304
 123.0953671  84.4399275  38.5918258 120.9245301  72.0287712  35.8631008
 120.5948631  72.4798856  35.1934706 120.2490303  71.9503876  36.4104014
 120.7755737  72.0838847  35.8454231 119.3633750  81.9140953  29.0225497
 118.7790966  82.4190984  29.4291361 118.9603846  81.6883340  28.2822089
 119.2173054  81.9549201  28.9730522 114.9177779  87.6295714  35.8249168
 114.4345357  88.3546204  35.8008752 115.7301097  87.9271844  35.9359326
 114.9668527  87.7798068  35.8376448 120.9891933  86.4227895  38.4298983
 120.4718875  86.0635310  37.8260291 121.6866324  85.8990069  38.4405049
 121.0157514  86.2925583  38.3429242 124.6455525  86.8722709  44.3915156
 124.7338871  86.6848849  45.2393366 125.0745238  86.2260138  43.9920003
 124.7217627  86.7485716  44.4586907 122.2125985  86.1553869  43.3732818
 121.6496820  85.7426478  43.8972479 122.9747008  86.0806774  43.7925961
 122.2420433  86.0831269  43.5125818 123.8210965  78.1606605  27.4994417
 124.0606969  78.3684589  26.6869761 124.1426806  77.3564114  27.6083362
 123.9048123  78.0720706  27.3954971 119.1301255  70.0900001  31.3453955
 119.8847223  70.4578318  31.1071006 118.9528790  70.4639555  32.1133135
 119.2155734  70.1998188  31.4238844 117.7721976  88.1451890  35.9769448
 118.4742556  87.6303879  36.0342205 117.6919459  88.4726041  36.7816323
 117.8645737  88.1166116  36.1042240 118.8200883  78.3827477  45.1049863
 118.9921387  78.2733371  45.9535145 119.3570240  79.0281882  44.8681056
 118.9245887  78.4619478  45.1954960 117.4858320  72.4970320  28.0432068
 117.3033893  72.7142200  27.2173061 118.3483933  72.6109332  28.0990683
 117.5862909  72.5460218  27.9286555 117.0972752  84.3358242  35.4855056
 117.9361651  84.5681175  35.5328818 117.1284521  83.4662553  35.4162092
 117.2254469  84.2415188  35.4819701 117.7225455  84.7559117  39.7868362
 118.2623680  84.6130248  40.4571734 117.0395401  85.1555868  40.1552388
 117.7017609  84.7938788  39.9402784 123.1658039  69.4996730  31.0781092
 123.8944199  69.3212685  30.6319248 123.2552932  70.3414810  31.2888270
 123.2864701  69.5980609  31.0434610 124.7575584  86.3031728  47.0558940
 125.5416001  86.4162575  47.4214682 124.5572179  85.4772865  47.2517625
 124.8441610  86.1978447  47.1393326 113.1262600  80.9759408  39.9402783
 112.8601015  80.1598524  40.0993774 113.1401164  81.0212563  39.0698299
 113.0887322  80.8616313  39.8356265 117.0320347  75.7744492  26.5554541
 116.3178524  75.4882672  26.9676974 117.5164316  76.1141118  27.1960929
 116.9979710  75.7826142  26.7110176 117.8761206  74.5137786  42.5869791
 117.1833003  74.0434766  42.8330523 118.4921534  74.2876091  43.1611498
 117.8645736  74.4104918  42.7078944 124.9145978  88.2141830  40.7025395
 124.1161223  87.9741330  40.9599264 125.3631989  88.2656223  41.4492443
 124.8620589  88.1864221  40.8510319 124.2067665  84.2774446  26.9316350
 124.6218813  83.9459470  26.2400845 123.3759594  84.0443348  26.8036486
 124.1455673  84.1945702  26.8107197 113.5356013  81.7618187  37.2214528
 113.3531587  81.7365073  36.3686820 114.2705682  82.2317125  37.2603436
 113.6170077  81.8279549  37.1012446 116.6001765  78.4803190  43.7296636
 117.3241737  78.4656221  44.2161531 116.7017902  79.1898545  43.2318604
 116.7219974  78.5827893  43.7275423 123.9746715  81.9602275  48.5945583
 123.1819695  82.2745787  48.7798203 124.0895642  82.1753743  47.7566368
 123.8742125  82.0386111  48.4983918 124.9030507  81.8622478  43.5330880
 125.4769369  81.2249723  43.6879444 124.8245311  81.8626561  42.6640538
 124.9763742  81.7687590  43.4277291 113.5026924  78.6411688  37.3713594
 114.0800426  78.5048139  38.0105840 112.8040986  78.1847472  37.6259179
 113.4847945  78.5533954  37.5035884 120.2594226  80.2945744  35.5852077
 120.0013470  79.4617478  35.5583377 120.3142709  80.5203357  34.7444578
 120.2294004  80.2043515  35.4572214 125.3395276  72.3974194  35.6856170
 124.6351603  71.9083380  35.8440089 125.3880250  72.4096669  34.8144615
 125.2425328  72.3263842  35.5795510 119.2328938  77.8483506  36.0716972
 118.6578529  78.0075674  36.7080933 118.8564614  77.2118915  35.6085423
 119.0931751  77.7781319  36.0971531 122.9002227  76.3206855  40.9309351
 122.5116660  75.8961073  40.2761542 122.2356925  76.5689005  41.4386377
 122.7449155  76.2945576  40.9097219 108.9785757  77.4923581  34.0861413
 109.0646009  77.1155449  34.8674943 109.6061555  77.1184026  33.6081371
 109.0842308  77.3809063  34.1306890 124.0041165  80.5505460  29.1286158
 124.8181804  80.8420353  29.0168929 123.9400306  79.8965322  28.5544451
 124.1143904  80.4970655  29.0274995 119.8749073  84.0226977  34.2558470
 120.5123020  83.7838725  34.8010263 120.3004145  84.2264136  33.5211630
 120.0325240  84.0177988  34.2275627 114.5661716  86.2615314  38.1392773
 114.6065861  86.5330165  37.3112553 115.1256240  86.7857222  38.5550561
 114.6545062  86.3791069  38.0784662 120.5151888  79.2429267  28.5933359
 120.8997041  79.0236974  29.3449904 120.2663509  80.0692213  28.7234435
 120.5353961  79.3327413  28.7234435 120.6820429  72.5235682  48.3095943
 120.3673870  73.2935245  48.0465506 120.3610361  71.9605938  47.7248170
 120.5879348  72.5545951  48.1837293 122.2570545  84.4999400  35.9352256
 122.3309554  84.3374572  36.7894106 123.0740052  84.6889590  35.6912738
 122.3886904  84.5036142  36.0250282 116.0176302  84.8457263  32.9646699
 115.1914420  85.0919000  32.8380978 116.0788293  84.7669344  33.8308757
 115.9050469  84.8702212  33.0735644 118.2352326  70.9126204  33.9242140
 117.3674751  70.9848803  33.9899749 118.5227530  71.7148283  34.1130115
 118.1492074  71.0420351  33.9616906 120.7975131  87.4634143  30.6665729
 121.0873429  87.0723124  29.9424956 121.5278612  87.6450848  31.1071005
 120.9482015  87.4327957  30.6248536 121.3869876  82.2651889  41.7518860
 120.8881570  82.9767657  41.8303748 122.1970100  82.5852556  41.7137022
 121.4325983  82.4178738  41.7575428 118.7381047  89.4401525  33.7325879
 118.5181342  89.1498880  34.5252546 118.5175569  88.7816480  33.2043791
 118.6728641  89.3001234  33.7714788 117.6497994  81.5274842  35.9981581
 117.3611242  80.9012313  36.5327308 118.5181342  81.4695129  36.0646261
 117.7358246  81.4262386  36.0872535 120.9049002  90.8130915  32.5156571
 121.5573060  90.2807358  32.7447597 120.2074611  90.4599568  32.9024445
 120.8979720  90.6820438  32.6068739 117.8530267  83.1670093  31.9223946
 118.6076235  83.5483132  32.1359408 117.2600880  83.6181237  32.3770642
 117.8766981  83.2898920  32.0206824 120.3136934  75.1232933  47.0481158
 119.5036710  75.4290713  46.9371000 120.7911621  75.8438516  47.1633742
 120.2640413  75.2747535  47.0488229 119.1728494  84.3378654  37.2964061
 118.6509247  84.4778946  37.9815926 119.5602514  83.5789319  37.4866178
 119.1532195  84.2464178  37.4265138 116.1619678  74.3884463  31.3659016
 115.8744474  74.0185734  30.6290963 116.8490146  74.8579318  31.1042721
 116.2208575  74.4031432  31.2174092 125.3695499  86.0774114  31.2824630
 125.1282175  85.3441974  30.8751695 125.5496832  86.6260971  30.6290963
 125.3603123  86.0496505  31.1254853 120.5994819  81.3682673  32.6945552
 120.4037602  81.9757408  32.1005855 120.8229165  80.6750617  32.2137226
 120.6029460  81.3560199  32.5361633 118.9973349  78.2537411  32.8126421
 119.7196001  78.4178569  32.3530227 118.5181342  78.9747076  32.7065760
 119.0337080  78.3835641  32.7292035 116.6480966  80.6595484  41.9180560
 117.1602063  80.9379737  41.2689320 116.3617309  81.3984778  42.2843373
 116.6815829  80.8097837  41.8770438 113.7347872  75.1665676  32.2144297
 113.8364009  75.9691837  32.5425272 114.5303759  74.9653011  31.9167377
 113.8675778  75.2551574  32.2179652 120.1664691  72.7521872  41.9781602
 119.9747888  72.7677007  42.8281026 121.0163287  72.9485547  41.9548257
 120.2640413  72.7836224  42.1004897 114.5511604  75.2812854  39.9565418
 114.4097096  74.4296794  40.0809926 114.8352168  75.3241514  39.1327624
 114.5719451  75.1612604  39.8533043 124.7050197  77.1179944  34.1009907
 124.4584911  77.0375695  34.9346696 125.0335320  76.3333412  33.9072434
 124.7171440  76.9906209  34.1957430 120.6647224  79.8536663  43.5132890
 120.8090600  80.4337871  42.8776000 121.0122873  80.2312959  44.2182744
 120.7374685  79.9957367  43.5231885 122.8367141  79.0526831  41.2958021
 122.0890456  79.2457845  40.8906299 122.9908667  78.2272050  41.0582143
 122.7489569  78.9591942  41.2003427 119.7374979  88.0439434  40.3793917
 119.8864543  87.4842350  39.7267321 120.5174981  88.1231436  40.7626435
 119.8749073  87.9725000  40.3390866 122.2628280  88.2154077  41.6578407
 122.1871951  87.5462888  42.2129196 122.1918139  88.9171865  42.1719074
 122.2408887  88.2198985  41.8155256 123.0768919  72.9477382  42.1853425
 123.5341533  73.6801356  42.3126217 123.1525247  72.5243847  42.9440681
 123.1559888  72.9934620  42.3154502 115.3201910  73.1943201  43.2742869
 114.7844099  72.5823560  43.5903636 115.3819674  73.7691337  43.9276535
 115.2497542  73.1890129  43.4178296 122.9198527  86.7355076  32.4902013
 123.6848418  86.4664720  32.1684678 122.8176617  86.2505086  33.2072076
 123.0180022  86.6244641  32.5481841 120.9551296  74.9379486  39.0295249
 120.1647371  74.7570946  39.3512585 121.3511919  74.1606438  39.0125544
 120.8968173  74.7966947  39.0747798 123.4689127  77.4139745  43.5118748
 123.4048268  78.2749701  43.3838885 123.6086314  77.0971738  42.7114299
 123.4804597  77.4939911  43.3746961 122.1508221  80.1071884  37.6534951
 121.7270470  80.3076383  36.9173969 121.9753076  79.2600732  37.7659251
 122.0619101  80.0120666  37.5608641 121.6519914  91.6222397  40.1156408
 122.1415844  90.9233186  39.9332073 121.0804146  91.3246267  40.7032466
 121.6404444  91.4748621  40.1757449 117.4390666  80.6023935  33.0862923
 117.5955285  80.5370738  33.9418916 117.7791259  81.3772488  32.8741603
 117.5123900  80.7073134  33.1817518 123.9769810  79.9781819  31.9556287
 124.5185356  79.4752200  32.4194907 124.2916369  79.9247014  31.1445772
 124.1034207  79.8961240  31.9040099 122.1456260  85.3699171  29.2396315
 122.2149080  84.5113709  29.3789315 122.9244715  85.5871051  28.9115339
 122.2709110  85.2752035  29.2113472 125.1259080  74.8718124  42.0078587
 125.3401049  74.2329038  41.4541941 124.5092979  75.3163947  41.5786449
 125.0664409  74.8428267  41.8629018 114.0124927  77.7858886  33.4023691
 114.3923892  78.2043431  32.7383958 113.4380292  78.3672342  33.7092534
 113.9836252  77.9336745  33.3500432 124.5173808  67.9818059  36.9965930
 123.6467366  67.9556780  36.9499239 124.7714149  67.8095251  36.1791776
 124.4267368  67.9528203  36.8686067 121.4891788  80.0386026  25.9339073
 121.7784312  80.8150909  26.2082647 121.5763586  79.5274758  26.6353572
 121.5446044  80.0777944  26.0781571 124.3851675  77.8867260  47.7290597
 124.8551306  78.5109377  48.1158471 124.4313555  77.2184236  48.2883811
 124.4619551  77.8801940  47.8690668 121.5422949  69.9924288  38.4539400
 121.0261437  69.3004479  38.5790979 120.9816878  70.6595065  38.4001999
 121.3829462  69.9887545  38.4645466 123.6115182  70.5317248  40.2832253
 123.2246935  70.5566279  41.0645783 123.1248119  69.9658926  39.8306770
 123.4827691  70.4512999  40.3320157 123.2772324  67.4184233  42.5742513
 123.9065442  67.9544533  42.2963583 123.4458187  67.3261592  43.4256079
 123.3950118  67.4845595  42.6591041 123.0786239  72.2055428  44.8468924
 123.9059668  71.9340577  44.9027539 123.0994085  73.0016270  45.2032743
 123.2039089  72.2835182  44.9084107 117.6555729  79.3519291  38.0339185
 116.8143735  79.2523165  38.2418079 117.8645737  80.1214771  38.3853506
 117.5620421  79.4511334  38.1166500 115.1331296  76.9738828  35.8623936
 114.7387993  77.0481839  35.0874045 114.5771412  77.3596774  36.4132298
 114.9934108  77.0420602  35.8291596 121.4672393  77.2800690  37.2836783
 121.1635531  76.7256678  37.8847190 120.7651814  77.4592900  36.7964817
 121.3188603  77.2245472  37.3006488 120.5238491  74.5901210  31.8481484
 120.7998225  73.8720122  31.4359052 121.1237160  75.1886130  31.6402591
 120.6531755  74.5721580  31.7562246 119.5290744  84.4950411  41.9908880
 119.4211099  84.5052473  42.8570938 119.7386526  85.3205191  41.8013834
 119.5440856  84.6191485  42.0912972 124.0249011  72.2614727  30.1228079
 124.4792758  72.4325287  30.8475924 124.4989057  71.6482838  29.7225855
 124.1617331  72.1965612  30.1701841 117.5464536  81.7463053  39.4530818
 116.9552470  82.3872551  39.4233833 118.3085560  82.1700670  39.4262117
 117.5712797  81.9038891  39.4445965 117.9425159  72.9065051  40.1198836
 118.4026641  72.9803980  40.8573959 117.9881266  73.7046305  39.7698657
 118.0175715  73.0359198  40.1771592 119.5908509  73.5731746  44.6870863
 119.1994074  72.9265093  45.1226640 119.7594372  74.1643181  45.3065118
 119.5579419  73.5646013  44.8433569 121.3662031  78.9657261  31.2273087
 122.1104076  79.3531538  31.4656037 121.5122727  78.1214687  31.3913575
 121.4972616  78.8987734  31.2867056 123.2841607  70.7607520  36.2604948
 122.4377652  70.9330328  36.1346298 123.2812739  69.9556864  36.5970776
 123.1588756  70.6668549  36.2916075 124.3539907  74.5382735  37.1267006
 123.8799861  74.0124497  37.6372317 124.7258043  73.9912208  36.5581868
 124.3389796  74.3798731  37.1182153 114.7312937  76.5354241  42.4950552
 115.5938550  76.4349951  42.4087882 114.4004720  75.9548951  41.9336124
 114.8098133  76.4345868  42.3995958 118.0914723  75.3596690  39.1560970
 117.4667793  75.3715082  38.5486923 117.7560318  75.8356866  39.8052210
 117.9500215  75.4315207  39.1617539 118.2756472  73.7021809  25.2133655
 117.9269276  74.3541534  25.6765204 117.7952918  73.6878922  24.4857526
 118.1526716  73.7964862  25.1744746 114.8040399  83.4197151  40.5964734
 114.2740323  82.7289589  40.6459709 115.0765492  83.4107336  39.7677443
 114.7665121  83.3164282  40.4812150 125.0046644  80.8620395  40.5703106
 124.3903637  80.3178445  40.8651741 125.5213929  80.3484632  40.0908922
 124.9902307  80.7056804  40.5427334 124.2442941  81.9324665  38.3047405
 123.8170549  81.3074384  37.8712840 124.2367886  81.6499587  39.1306412
 124.1802083  81.7977446  38.3627232 117.3605468  76.9689838  41.3735838
 117.5198955  76.2133162  41.7787560 117.1798362  77.5180778  42.0276576
 117.3570827  76.9383652  41.5298544 122.5728651  72.8093420  38.5189939
 122.5971138  72.2753532  37.8302718 122.8240125  72.3010729  39.1815529
 122.6138570  72.6554324  38.5154583 110.0836241  80.0924915  37.9533083
 109.9779690  80.0471759  37.0885167 109.3336461  80.4378695  38.2347367
 109.9571844  80.1365823  37.8670412 118.8529973  71.5364238  37.8995683
 118.8928345  72.0373445  38.6130390 118.0279638  71.6274632  37.6301606
 118.7369499  71.6246054  37.9646221 121.0359586  81.1024978  46.0015977
 120.1855217  81.2396692  46.1373622 121.1987714  80.3688756  46.4463679
 120.9343450  81.0139079  46.0871577 120.2744337  78.0524748  40.1969582
 119.4436266  78.2198566  39.9904830 120.2195854  77.6760699  40.9818467
 120.1433752  78.0214479  40.2818110 118.0828120  71.5433641  45.8325993
 118.7080823  70.9995773  46.1055425 117.6278600  71.0628558  45.2633783
 118.1076381  71.3923122  45.7887586 118.6480380  76.3280339  30.7259700
 118.7883342  76.8252804  31.4288341 119.1462913  75.6266634  30.8673913
 118.7421461  76.2982318  30.8511279 118.6780603  77.1947450  28.0552276
 119.3125682  77.7907875  27.9901738 118.7606214  76.8950908  28.8698147
 118.7837154  77.2388359  28.1655363 120.2559586  73.1261426  28.0297718
 120.5775427  72.6464508  27.3756981 120.5186529  73.9361072  27.8388530
 120.3425611  73.1751324  27.9053210 123.4856558  84.1480300  41.5496534
 122.9781650  84.7016147  41.9937165 123.1883205  84.2088590  40.7315309
 123.3661443  84.2386611  41.4944991 115.1833591  79.3915291  31.3241822
 115.6925820  79.9879799  31.7053128 115.6567863  79.1241265  30.6418242
 115.3276966  79.4401107  31.2796345 124.0912964  68.9848720  33.8011774
 123.4481281  68.8346366  34.3696913 123.7512371  68.7391065  33.0360879
 123.9458041  68.9260842  33.7714790 122.7299044  89.0804858  38.4553541
 122.5064698  88.3223688  38.8237568 122.2408887  89.1102880  37.7333981
 122.6242493  88.9727083  38.4030282 117.5424122  76.0271550  34.1915003
 116.8236112  76.4435682  34.4587866 117.9136485  76.5925788  33.6406641
 117.4916054  76.1720831  34.1497810 124.7870033  83.2486591  46.0065475
 124.7465888  82.6036268  45.4210631 125.5993351  83.1923208  46.3190887
 124.9013187  83.1445557  45.9662424 121.3777501  89.3005316  35.9090626
 120.9637899  88.6379447  35.5194468 122.0624875  89.4483175  35.3886320
 121.4175872  89.2245975  35.7747123 124.7442795  88.4595402  36.6614243
 124.3459078  88.5697672  35.8935063 124.1294014  88.6677468  37.2440802
 124.5941684  88.5068970  36.6345542 123.3170697  75.0669550  29.5288382
 122.7235536  75.3886546  28.9772949 123.3545975  74.2210645  29.3209488
 123.2345086  74.9893878  29.4171154 120.4747742  76.8783527  42.5615233
 119.9626645  76.2704710  42.9200264 120.3027238  77.5940120  43.0289208
 120.3737379  76.8946826  42.6831456 115.3213457  75.3221102  45.2117594
 115.1516047  75.9822477  44.6665801 114.8779406  75.5327664  45.9330084
 115.2312790  75.4507085  45.2379224 119.2473276  73.5625600  34.2544328
 119.7230642  73.9242680  33.6194509 118.7461876  74.2182068  34.5344471
 119.2438635  73.7119789  34.2021069 124.3516812  74.8007772  45.0017488
 124.9088242  74.5721581  44.3695954 124.0277877  75.5613437  44.7252701
 124.3863222  74.8791608  44.8673985 112.2215521  78.2267968  40.4706084
 111.6742240  77.5568614  40.5886953 113.0107899  77.8597816  40.5349552
 112.2567705  78.0732954  40.4974785 122.0699929  77.8875425  45.9669495
 122.8211256  78.2027102  46.2809050 122.2622506  77.6854596  45.1403417
 122.2091344  77.9042807  45.8912891 121.2899929  75.7066800  27.6217712
 121.6698894  75.7246429  26.8368827 120.5492525  76.1520789  27.5008559
 121.2368767  75.7748575  27.4881280 110.9802491  77.4388776  37.6252107
 110.8024252  76.9865385  38.3507023 110.6921513  78.2414937  37.8090585
 110.9115444  77.4911334  37.7595610 122.0884683  82.5444306  29.0126502
 121.2796006  82.2210980  28.9659812 122.5959592  81.8377528  28.9454751
 122.0434350  82.3925623  28.9956797 112.7174960  79.9716500  34.7373866
 111.8520480  79.9602190  34.6256638 112.8173776  79.7846722  35.5845006
 112.6049127  79.9422561  34.8462811 118.3431970  89.7414398  38.3103972
 118.6578529  90.5550787  38.3181754 118.7525384  89.3564617  38.9786131
 118.4500068  89.8043101  38.4108064 125.2956490  85.1584445  35.8807784
 125.7667668  85.8724708  36.0497769 125.6316668  84.5583195  36.4167653
 125.4151605  85.1755909  35.9840160 122.2125985  69.9311915  42.8365879
 122.3453891  69.1342909  43.1646854 122.5971138  70.4578318  43.4164154
 122.2882314  69.8911832  42.9709382 125.2858340  66.8542242  39.4346972
 124.4804304  66.7439971  39.7514810 125.1565076  66.9554697  38.5776838
 125.1478473  66.8525912  39.3555012 121.2819100  71.9328328  30.3045344
 122.1034794  72.1026641  30.0627039 120.8188751  72.0875589  29.5811641
 121.3350262  71.9810061  30.1616988 119.8714432  69.9271091  41.0843772
 120.4158845  69.5862217  41.6748114 119.9251367  70.7856552  41.2265057
 119.9603551  70.0026350  41.1925646 115.6844990  83.6887507  37.9582580
 116.2889848  83.6483341  37.3296401 115.4772303  84.5358659  37.9886636
 115.7433888  83.8075509  37.8698697 110.9196273  82.6722124  37.8281503
 110.8220551  81.8618396  38.1371560 111.7025142  82.6513917  37.4427772
 111.0212409  82.5489214  37.8168366 124.3293038  98.2695351  34.5492962
 124.0943222  97.4363003  34.4425231 124.4678679  98.5500017  33.7354163
 124.3148700  98.1878854  34.4135317 124.0995183  96.4944716  39.9402783
 123.8333599  95.6783832  40.0993774 124.1133748  96.5397871  39.0698299
 124.0619906  96.3801621  39.8356265 124.5088597  97.2803495  37.2214528
 124.3264170  97.2550381  36.3686820 125.2438266  97.7502433  37.2603436
 124.5902661  97.3464857  37.1012446 124.4759507  94.1596996  37.3713594
 125.0533010  94.0233447  38.0105840 123.7773569  93.7032780  37.6259179
 124.4580529  94.0719262  37.5035884 119.9518341  93.0108889  34.0861413
 120.0378592  92.6340757  34.8674943 120.5794138  92.6369334  33.6081371
 120.0574892  92.8994371  34.1306890 124.7080456  90.6850983  32.2144297
 124.8096592  91.4877145  32.5425272 125.5036343  90.4838319  31.9167377
 124.8408362  90.7736882  32.2179652 125.5244188  90.7998162  39.9565418
 125.3829680  89.9482102  40.0809926 125.8084751  90.8426822  39.1327624
 125.5452034  90.6797912  39.8533043 124.9857511  93.3044194  33.4023691
 125.3656475  93.7228739  32.7383958 124.4112875  93.8857650  33.7092534
 124.9568836  93.4522053  33.3500432 121.0568824  95.6110223  37.9533083
 120.9512273  95.5657067  37.0885167 120.3069044  95.9564003  38.2347367
 120.9304427  95.6551131  37.8670412 123.1948105  93.7453276  40.4706084
 122.6474824  93.0753921  40.5886953 123.9840483  93.3783124  40.5349552
 123.2300288  93.5918262  40.4974785 121.9535074  92.9574084  37.6252107
 121.7756835  92.5050693  38.3507023 121.6654096  93.7600245  37.8090585
 121.8848027  93.0096642  37.7595610 123.6907544  95.4901807  34.7373866
 122.8253063  95.4787498  34.6256638 123.7906360  95.3032030  35.5845006
 123.5781711  95.4607869  34.8462811 121.8928856  98.1907432  37.8281503
 121.7953134  97.3803704  38.1371560 122.6757726  98.1699225  37.4427772
 121.9944993  98.0674522  37.8168366  74.3831144   1.5808264  19.5917903
  73.6314043   1.2023802  19.3633948  74.8317155   1.6126697  18.8436713
  74.3380810   1.5293871  19.4475405  79.3760395   3.9547902  20.9614562
  79.7599774   4.5234801  20.4219337  79.3119536   3.2297412  20.4820378
  79.4233822   3.9323365  20.8108424  75.8016639   6.5104245  23.2595531
  76.4454095   6.9517409  23.6491690  76.1272895   5.7057671  23.1725790
  75.9448468   6.4569440  23.3041009  70.7198269   2.4932613  22.7589215
  70.2365847   3.2183103  22.7348799  71.5321587   2.7908743  22.8699373
  70.7689016   2.6434967  22.7716494  73.5742466   3.0088789  22.9109495
  74.2763045   2.4940778  22.9682252  73.4939949   3.3362941  23.7156370
  73.6666226   2.9803015  23.0382287  80.7166467   3.0778729  27.6365442
  79.9181713   2.8378229  27.8939311  81.1652479   3.1293122  28.3832490
  80.6641079   3.0501120  27.7850366  70.3682205   1.1252213  25.0732820
  70.4086351   1.3967064  24.2452600  70.9276729   1.6494121  25.4890608
  70.4565551   1.2427968  25.0124708  76.5995621   2.3271042  17.6005776
  76.8893919   1.9360024  16.8765003  77.3299101   2.5087747  18.0411051
  76.7502505   2.2964856  17.5588583  74.5401536   4.3038425  20.6665926
  74.3201832   4.0135780  21.4592593  74.3196058   3.6453380  20.1383838
  74.4749130   4.1638133  20.7054835  76.7069492   5.6767815  19.4496618
  77.3593550   5.1444257  19.6787644  76.0095101   5.3236467  19.8364492
  76.7000210   5.5457338  19.5408786  75.5395469   2.9076334  27.3133963
  75.6885033   2.3479250  26.6607368  76.3195471   2.9868336  27.6966482
  75.6769562   2.8361899  27.2730913  78.0648769   3.0790977  28.5918454
  77.9892440   2.4099787  29.1469243  77.9938629   3.7808765  29.1059121
  78.0429376   3.0835884  28.7495302  77.4540404   6.4859296  27.0496455
  77.9436334   5.7870086  26.8672120  76.8824636   6.1883166  27.6372512
  77.4424934   6.3385520  27.1097496  78.5319533   3.9441758  25.3893588
  78.3085188   3.1860587  25.7577615  78.0429377   3.9739779  24.6674028
  78.4262982   3.8363982  25.3370329  77.1797990   4.1642216  22.8430673
  76.7658389   3.5016346  22.4534514  77.8645365   4.3120075  22.3226367
  77.2196362   4.0882874  22.7087170  80.5463284   3.3232301  23.5954289
  80.1479568   3.4334572  22.8275110  79.9314504   3.5314367  24.1780849
  80.3962174   3.3705869  23.5685589  74.1452460   4.6051298  25.2444019
  74.4599019   5.4187686  25.2521801  74.5545873   4.2201516  25.9126178
  74.2520558   4.6680000  25.3448110  90.9722587   7.5630854  23.8280671
  90.1160483   7.7239352  23.8789788  91.0190241   6.6922918  23.8485732
  90.8521699   7.4581656  23.8386737  85.3563727  17.0993572  19.5917903
  84.6046627  16.7209110  19.3633948  85.8049739  17.1312005  18.8436713
  85.3113394  17.0479179  19.4475405  94.2816304  13.8317380  33.4341127
  94.9883071  13.3369410  33.5628062  94.4704239  14.2726461  32.7043785
  94.4144210  13.8235730  33.3450173  90.8088687  17.5218941  15.0203450
  90.4740056  18.1995863  14.5847672  91.3215557  17.1324253  14.4320322
  90.8354268  17.5643520  14.8690241  90.3492978  19.4733210  20.9614562
  90.7332358  20.0420109  20.4219337  90.2852120  18.7482720  20.4820378
  90.3966406  19.4508673  20.8108424  93.8174408   9.6222898  26.4712323
  94.3630369  10.3007984  26.5306293  93.7591285   9.4810359  25.6113905
  93.8890323   9.7014900  26.3524384  86.9348483  17.1111964  21.8580675
  87.0358846  16.3012318  22.1677803  86.3390229  17.0168910  21.2280354
  86.8621022  16.9776992  21.8106914  86.7749223  22.0289553  23.2595531
  87.4186678  22.4702717  23.6491690  87.1005478  21.2242979  23.1725790
  86.9181052  21.9754748  23.3041009  80.1313528  13.1332251  21.4833009
  79.8963712  12.2999903  21.3765278  80.2699168  13.4136916  20.6694210
  80.1169190  13.0515754  21.3475364  82.4303615   5.3017981  24.3817317
  81.8108647   4.7110628  24.2127332  82.3287479   5.8929416  23.7481640
  82.3241291   5.3022064  24.2622306  87.4769803  15.0401528  18.6315393
  87.7985644  15.5806735  18.0276701  88.1241899  14.4698299  18.7637683
  87.6195858  15.0360703  18.5622429  89.5271511   7.0417523  18.7149780
  90.2251675   7.2205650  19.2071243  89.8423843   6.5187862  18.0920169
  89.6766848   6.9911295  18.6951790  82.1572748   8.8470263  26.6260886
  82.0331445   9.4332708  27.2610705  82.8091033   8.3530459  26.9273161
  82.2346397   8.8609067  26.7646815  89.7159446  13.4287968  18.7029571
  90.1553082  12.8205068  19.1484344  89.5664109  13.0495341  17.9315036
  89.7580912  13.2826439  18.6548739  87.1831089  12.0231980  25.9048397
  87.8280092  11.5304423  25.5859345  87.4232866  12.1656766  26.7314475
  87.3141674  11.9709422  25.9797930  89.7217180  14.8686886  25.5555289
  90.0040423  14.0738291  25.3342045  90.4503341  15.3467473  25.5760350
  89.8706744  14.8221483  25.5258305  93.3168783  11.7815149  15.6560341
  93.2320078  12.6376116  15.8009909  93.8053166  11.5059473  16.3242500
  93.3757680  11.8672471  15.7762422  99.7035269  13.9746248  22.5291120
  98.8732972  14.1856892  22.6924537  99.6544521  13.1483302  22.2533404
  99.5742004  13.8835854  22.5128486  86.1386824  12.2963160  15.9565544
  85.5544039  12.8013192  16.3631408  85.7356919  12.0705547  15.2162136
  85.9926127  12.3371408  15.9070569  81.6930852  18.0117921  22.7589215
  81.2098431  18.7368411  22.7348799  82.5054171  18.3094051  22.8699373
  81.7421600  18.1620275  22.7716494  87.7645006  16.8050102  25.3639030
  87.2471948  16.4457517  24.7600338  88.4619398  16.2812276  25.3745096
  87.7910587  16.6747790  25.2769288  91.4208598  17.2544916  31.3255203
  91.5091944  17.0671056  32.1733413  91.8498311  16.6082346  30.9260050
  91.4970701  17.1307924  31.3926954  88.9879058  16.5376076  30.3072865
  88.4249893  16.1248686  30.8312526  89.7500082  16.4628982  30.7266008
  89.0173507  16.4653477  30.4465865  84.5475050  18.5274097  22.9109495
  85.2495629  18.0126086  22.9682252  84.4672533  18.8548249  23.7156370
  84.6398810  18.4988323  23.0382287  85.5953956   8.7649684  32.0389910
  85.7674460   8.6555579  32.8875192  86.1323314   9.4104090  31.8021102
  85.6998960   8.8441686  32.1295007  83.8725825  14.7180449  22.4195103
  84.7114724  14.9503382  22.4668865  83.9037594  13.8484761  22.3502139
  84.0007543  14.6237396  22.4159748  84.4978528  15.1381324  26.7208409
  85.0376753  14.9952455  27.3911781  83.8148474  15.5378075  27.0892435
  84.4770682  15.1760995  26.8742830  93.9219413  10.8172325  21.9153433
  94.6776928  11.2503839  21.9542342  94.0281737  10.1677095  22.4888069
  94.0489583  10.7849809  22.0051459  96.9599584  14.6445602  22.6655836
  96.5234816  14.6482345  23.4214807  96.6262499  15.3251101  22.2335413
  96.8462204  14.7458058  22.7136669  91.5328658  16.6853935  33.9898986
  92.3169074  16.7984783  34.3554728  91.3325252  15.8595072  34.1857672
  91.6194683  16.5800655  34.0733372  79.9015673  11.3581615  26.8742830
  79.6354088  10.5420732  27.0333820  79.9154237  11.4034771  26.0038346
  79.8640395  11.2438520  26.7696312  83.8073420   6.1566700  13.4894588
  83.0931597   5.8704879  13.9017021  84.2917389   6.4963325  14.1300976
  83.7732783   6.1648349  13.6450223  84.6514279   4.8959993  29.5209838
  83.9586076   4.4256973  29.7670569  85.2674607   4.6698298  30.0951545
  84.6398809   4.7927125  29.6418990  91.6899051  18.5964037  27.6365442
  90.8914297  18.3563537  27.8939311  92.1385062  18.6478430  28.3832490
  91.6373662  18.5686428  27.7850366 100.0943930  11.3626522  21.5575473
 100.7560364  10.8017191  21.4571382  99.4535342  10.8678553  21.8828164
 100.0972798  11.2062931  21.5907813  90.9820738  14.6596654  13.8656396
  91.3971886  14.3281677  13.1740892  90.1512668  14.4265556  13.7376533
  90.9208747  14.5767910  13.7447244  80.3109087  12.1440395  24.1554574
  80.1284660  12.1187281  23.3026867  81.0458756  12.6139332  24.1943483
  80.3923151  12.2101757  24.0352493  96.3808761  12.3791905  21.2987462
  96.6164350  12.5237103  20.4714313  96.5298325  13.1434313  21.6918976
  96.4374564  12.5130959  21.2351066  83.3754838   8.8625397  30.6636683
  84.0994811   8.8478428  31.1501578  83.4770975   9.5720753  30.1658651
  83.4973047   8.9650101  30.6615470  90.7499788  12.3424482  35.5285630
  89.9572769  12.6567994  35.7138250  90.8648715  12.5575950  34.6906415
  90.6495198  12.4208319  35.4323965  93.4231107   9.0658473  19.8180646
  93.5177961   9.8047767  20.2720271  92.7989950   8.6375949  20.2515210
  93.3440137   9.1119794  19.9488793  91.6783581  12.2444686  30.4670927
  92.2522442  11.6071930  30.6219491  91.5998384  12.2448768  29.5980584
  91.7516815  12.1509797  30.3617338  80.2779997   9.0233895  24.3053641
  80.8553500   8.8870346  24.9445886  79.5794059   8.5669679  24.5599225
  80.2601018   8.9356161  24.4375931  87.0347299  10.6767951  22.5192124
  86.7766544   9.8439686  22.4923424  87.0895782  10.9025564  21.6784625
  87.0047077  10.5865722  22.3912261  86.0082011   8.2305713  23.0057019
  85.4331603   8.3897882  23.6420980  85.6317688   7.5941123  22.5425470
  85.8684824   8.1603526  23.0311577  89.6755300   6.7029063  27.8649397
  89.2869733   6.2783280  27.2101589  89.0109998   6.9511212  28.3726424
  89.5202228   6.6767784  27.8437265  75.7538830   7.8745788  21.0201460
  75.8399082   7.4977657  21.8014990  76.3814628   7.5006234  20.5421418
  75.8595381   7.7631270  21.0646937  90.7794238  10.9327667  16.0626204
  91.5934877  11.2242560  15.9508976  90.7153380  10.2787530  15.4884497
  90.8896977  10.8792862  15.9615042  97.0003728  13.6153663  30.4755780
  96.7642366  12.7841728  30.3567841  97.6446957  13.5639271  31.0610624
  97.0598399  13.4851351  30.5441674  86.6502147  14.4049185  21.1898516
  87.2876093  14.1660932  21.7350310  87.0757218  14.6086344  20.4551677
  86.8078313  14.4000195  21.1615674  81.3414789  16.6437521  25.0732820
  81.3818934  16.9152372  24.2452600  81.9009313  17.1679429  25.4890608
  81.4298135  16.7613276  25.0124708  87.2904962   9.6251475  15.5273406
  87.6750114   9.4059181  16.2789951  87.0416582  10.4514420  15.6574482
  87.3107034   9.7149621  15.6574482  98.0240149  13.3998112  26.5384075
  97.7185966  14.1326169  26.8997390  97.3046365  12.9936042  26.2576861
  97.8727491  13.4479845  26.5497212  89.0323618  14.8821607  22.8692303
  89.1062627  14.7196779  23.7234153  89.8493125  15.0711797  22.6252784
  89.1639977  14.8858350  22.9590328  82.7929375  15.2279470  19.8986746
  81.9667493  15.4741207  19.7721025  82.8541366  15.1491551  20.7648804
  82.6803542  15.2524419  20.0075691  87.5728204  17.8456350  17.6005776
  87.8626503  17.4545332  16.8765003  88.3031685  18.0273055  18.0411051
  87.7235088  17.8150164  17.5588583  88.1622949  12.6474096  28.6858907
  87.6634643  13.3589864  28.7643795  88.9723174  12.9674763  28.6477069
  88.2079056  12.8000945  28.6915475  85.5134120  19.8223733  20.6665926
  85.2934415  19.5321088  21.4592593  85.2928642  19.1638688  20.1383838
  85.4481714  19.6823441  20.7054835  84.4251067  11.9097049  22.9321628
  84.1364316  11.2834521  23.4667355  85.2934415  11.8517337  22.9986308
  84.5111319  11.8084594  23.0212582  87.6802076  21.1953123  19.4496618
  88.3326134  20.6629565  19.6787644  86.9827684  20.8421775  19.8364492
  87.6732793  21.0642646  19.5408786  84.6283340  13.5492300  18.8563993
  85.3829308  13.9305339  19.0699455  84.0353953  14.0003444  19.3110689
  84.6520054  13.6721128  18.9546871  95.6741994  13.5157537  18.7927598
  96.2400026  14.1750747  18.7086140  95.0269897  13.8607235  19.2644000
  95.6620750  13.6639478  18.8500354  87.0890007   5.5055141  33.9821205
  86.2789783   5.8112920  33.8711047  87.5664694   6.2260723  34.0973789
  87.0393486   5.6569742  33.9828276  85.9481567  14.7200862  24.2304108
  85.4262320  14.8601153  24.9155973  86.3355587  13.9611526  24.4206225
  85.9285268  14.6286386  24.3605184  82.9372751   4.7706670  18.2999063
  82.6497547   4.4007941  17.5631010  83.6243219   5.2401526  18.0382768
  82.9961648   4.7853640  18.1514138  92.1448572  16.4596321  18.2164677
  91.9035248  15.7264182  17.8091742  92.3249905  17.0083178  17.5631010
  92.1356196  16.4318712  18.0594900  87.3747893  11.7504881  19.6285599
  87.1790675  12.3579615  19.0345902  87.5982238  11.0572825  19.1477273
  87.3782534  11.7382406  19.4701680  85.7726423   8.6359619  19.7466467
  86.4949075   8.8000777  19.2870273  85.2934415   9.3569284  19.6405807
  85.8090153   8.7657848  19.6632081  83.4234039  11.0417691  28.8520607
  83.9355136  11.3201944  28.2029367  83.1370382  11.7806985  29.2183420
  83.4568902  11.1920045  28.8110485  97.6077454  10.1791404  22.4124394
  97.5211429  10.3346830  23.2659173  97.1527934  10.8229480  22.0383799
  97.5280711  10.2967159  22.4831501  80.5100946   5.5487883  19.1484344
  80.6117082   6.3514044  19.4765319  81.3056832   5.3475219  18.8507424
  80.6428851   5.6373782  19.1519699  81.3264678   5.6635061  26.8905465
  81.1850170   4.8119002  27.0149973  81.6105241   5.7063722  26.0667671
  81.3472524   5.5434811  26.7873089  95.3751319  14.2085511  24.8236735
  95.2365678  14.9066557  25.3285477  94.5951317  14.0534167  24.4672917
  95.2394546  14.2885677  24.8463009  93.7129404  10.5081886  31.0759116
  93.7077443   9.6361703  31.0801543  94.4190398  10.7070055  30.6028572
  93.8174408  10.4085760  31.0066152  87.4400297  10.2358870  30.4472937
  87.5843673  10.8160078  29.8116047  87.7875946  10.6135167  31.1522791
  87.5127759  10.3779574  30.4571932  89.6120215   9.4349038  28.2298068
  88.8643529   9.6280053  27.8246346  89.7661740   8.6094258  27.9922190
  89.5242642   9.3414150  28.1343474  86.5128052  18.4261642  27.3133963
  86.6617616  17.8664558  26.6607368  87.2928054  18.5053643  27.6966482
  86.6502146  18.3547207  27.2730913  89.0381353  18.5976285  28.5918454
  88.9625024  17.9285095  29.1469243  88.9671212  19.2994073  29.1059121
  89.0161960  18.6021192  28.7495302  89.6951600  17.1177284  19.4242060
  90.4601491  16.8486927  19.1024724  89.5929690  16.6327294  20.1412123
  89.7933095  17.0066848  19.4821888  93.1148056  12.9544123  23.6894742
  92.4393058  12.7229355  24.1908129  93.1240432  12.3465306  23.0636847
  93.0166560  12.8303048  23.6710894  90.2442200   7.7961952  30.4458795
  90.1801341   8.6571909  30.3178932  90.3839388   7.4793945  29.6454346
  90.2557670   7.8762119  30.3087008  95.1164791  15.8109256  15.9204920
  95.1984628  16.6176242  15.5966371  95.6014533  15.8305215  16.6445693
  95.2001948  15.9329918  15.9791818  88.9261294  10.4894091  24.5874998
  88.5023543  10.6898590  23.8514016  88.7506149   9.6422939  24.6999298
  88.8372174  10.3942873  24.4948688  88.4272987  22.0044604  27.0496455
  88.9168918  21.3055394  26.8672120  87.8557220  21.7068474  27.6372512
  88.4157517  21.8570828  27.1097496  84.2143739  10.9846143  20.0202970
  84.3708358  10.9192946  20.8758962  84.5544332  11.7594695  19.8081650
  84.2876974  11.0895341  20.1157564  90.7522883  10.3604026  18.8896334
  91.2938429   9.8574408  19.3534954  91.0669442  10.3069221  18.0785819
  90.8787280  10.2783447  18.8380146  94.6239991  14.5706674  36.0023246
  95.4374856  14.2991823  36.1628378  94.4634957  14.2714214  35.1983442
  94.7209939  14.4861600  35.9068652  88.9209333  15.7521378  16.1736362
  88.9902153  14.8935916  16.3129362  89.6997788  15.9693259  15.8455386
  89.0462183  15.6574242  16.1453519  93.3116821  18.1759079  20.3872855
  92.9196612  17.8725794  19.6695721  93.4669893  19.0128169  20.1977809
  93.2770411  18.2542916  20.2529352  80.7878000   8.1681093  20.3363737
  81.1676965   8.5865638  19.6724005  80.2133365   8.7494549  20.6432581
  80.7589325   8.3158952  20.2840478  93.4756495  14.7409068  20.3278885
  93.1171150  14.9123711  21.1042918  92.9895206  15.2022274  19.7706884
  93.3515192  14.8348039  20.3604155  88.2644861  10.4208234  12.8679120
  88.5537386  11.1973116  13.1422694  88.3516660   9.9096965  13.5693619
  88.3199117  10.4600152  13.0121618  91.1604748   8.2689468  34.6630643
  91.6304379   8.8931584  35.0498517  91.2066628   7.6006443  35.2223858
  91.2372624   8.2624148  34.8030715  94.6361235  15.6312964  31.2746086
  95.2740955  15.1373160  30.9408542  93.9935326  15.5590365  30.6898313
  94.6355461  15.5471973  31.1388441  94.6915491  16.3232772  27.9151443
  95.4807870  15.9721837  28.0353525  94.8659089  17.1369161  27.6528077
  94.8335773  16.3918629  27.8939311  84.4308802   9.7341498  24.9679232
  83.5896808   9.6345372  25.1758126  84.6398810  10.5036978  25.3193553
  84.3373494   9.8333541  25.0506547  81.9084369   7.3561035  22.7963983
  81.5141067   7.4304047  22.0214092  81.3524486   7.7418981  23.3472344
  81.7687181   7.4242810  22.7631642  88.2425467   7.6622897  24.2176829
  87.9388604   7.1078886  24.8187237  87.5404887   7.8415107  23.7304864
  88.0941676   7.6067680  24.2346535  86.3043818  14.8772618  28.9248927
  86.1964173  14.8874680  29.7910985  86.5139599  15.7027398  28.7353881
  86.3193929  15.0013693  29.0253019  84.3217610  12.1285260  26.3870865
  83.7305543  12.7694759  26.3573880  85.0838633  12.5522878  26.3602164
  84.3465870  12.2861099  26.3786012 100.4408031  11.9591030  27.3848143
 100.4991155  12.4077679  28.1308120  99.8074499  12.3689843  26.9478223
 100.3559326  12.0864765  27.4300691  94.0807126  17.5794572  23.8202889
  93.8826815  18.0685386  23.1259101  93.4594837  17.7835813  24.3987023
  93.9594690  17.6811110  23.8026113  88.1415104   9.3479469  18.1613134
  88.8857149   9.7353745  18.3996083  88.2875800   8.5036894  18.3253621
  88.2725689   9.2809942  18.2207103  81.5066010   6.9176449  29.4290599
  82.3691623   6.8172158  29.3427928  81.1757793   6.3371158  28.8676171
  81.5851207   6.8168076  29.3336004  97.3929711   9.9807318  25.4713833
  97.1527934   9.1413733  25.4756260  97.8721718  10.0607484  26.1954607
  97.4281894   9.8688717  25.5788636  95.9980928  11.1458724  29.3548138
  96.7215127  10.6931251  29.1759158  95.7330890  11.4263390  28.5720465
  96.0662201  11.1209693  29.2126853  84.8667796   5.7418898  26.0901017
  84.2420866   5.7537290  25.4826970  84.5313391   6.2179073  26.7392257
  84.7253288   5.8137415  26.0957585  81.5793472  13.8019358  27.5304781
  81.0493396  13.1111797  27.5799756  81.8518565  13.7929543  26.7017490
  81.5418194  13.6986490  27.4152197  92.6113562  14.3845060  16.2542464
  93.3347761  14.8503173  16.1107037  92.1714153  14.4518670  15.5040061
  92.6529255  14.4628897  16.1227245  91.7799717  11.2442603  27.5043153
  91.1656710  10.7000653  27.7991788  92.2967002  10.7306839  27.0248969
  91.7655380  11.0879012  27.4767381  91.0196015  12.3146873  25.2387451
  90.5923623  11.6896591  24.8052887  91.0120959  12.0321794  26.0646459
  90.9555156  12.1799653  25.2967279  84.1358542   7.3512046  28.3075885
  84.2952028   6.5955370  28.7127607  83.9551435   7.9002985  28.9616623
  84.1323901   7.3205859  28.4638591  76.8589314  10.4747122  24.8873129
  76.7532763  10.4293966  24.0225213  76.1089534  10.8200903  25.1687414
  76.7324917  10.5188030  24.8010459  87.8112659  11.4847185  32.9356024
  86.9608290  11.6218900  33.0713669  87.9740787  10.7510964  33.3803726
  87.7096523  11.3961287  33.0211623  87.0497410   8.4346955  27.1309629
  86.2189339   8.6020773  26.9244877  86.9948927   8.0582906  27.9158514
  86.9186825   8.4036686  27.2158157  85.4233454   6.7102547  17.6599746
  85.5636415   7.2075011  18.3628388  85.9215986   6.0088841  17.8013960
  85.5174535   6.6804525  17.7851325  85.4533676   7.5769658  14.9892323
  86.0878756   8.1730083  14.9241785  85.5359287   7.2773115  15.8038193
  85.5590227   7.6210566  15.0995410  98.4316242  10.1085135  27.8578687
  99.0234082  10.7482386  27.8896885  98.8675236   9.4108172  28.1470754
  98.5834673  10.1003485  27.9059520  90.2609632  14.5302507  28.4836581
  89.7534723  15.0838354  28.9277212  89.9636278  14.5910797  27.6655356
  90.1414517  14.6208819  28.4285038  81.9586664   9.7737498  18.2581869
  82.4678893  10.3702006  18.6393175  82.4320936   9.5063472  17.5758289
  82.1030040   9.8223314  18.2136392  92.8717412  18.4465765  16.4140525
  92.1546722  18.2726627  15.9487762  93.5224150  18.2118337  15.8816011
  92.8619262  18.3861558  16.2669743  89.5052117  19.4627066  25.3893588
  89.2817771  18.7045895  25.7577615  89.0161960  19.4925087  24.6674028
  89.3995566  19.3549290  25.3370329  84.3177196   6.4093757  21.1255050
  83.5989185   6.8257890  21.3927913  84.6889558   6.9747996  20.5746688
  84.2669127   6.5543038  21.0837857  91.5623106  13.6308798  32.9405522
  91.5218961  12.9858475  32.3550678  92.3746425  13.5745415  33.2530934
  91.6766260  13.5267765  32.9002471  88.1530574  19.6827524  22.8430673
  87.7390973  19.0201654  22.4534514  88.8377948  19.8305383  22.3226367
  88.1928946  19.6068182  22.7087170  91.5195868  18.8417609  23.5954289
  91.1212151  18.9519879  22.8275110  90.9047088  19.0499675  24.1780849
  91.3694757  18.8891177  23.5685589  87.2500815   7.2605734  29.4955280
  86.7379718   6.6526917  29.8540311  87.0780311   7.9762327  29.9629255
  87.1490452   7.2769034  29.6171503  82.0966530   5.7043310  32.1457641
  81.9269120   6.3644685  31.6005848  81.6532480   5.9149871  32.8670130
  82.0065863   5.8329292  32.1719271  78.9968594   8.6090175  27.4046131
  78.4495314   7.9390821  27.5226999  79.7860972   8.2420023  27.4689598
  79.0320778   8.4555162  27.4314832  88.8453003   8.2697632  32.9009542
  89.5964330   8.5849309  33.2149096  89.0375579   8.0676803  32.0743464
  88.9844417   8.2865014  32.8252938  77.7555564   7.8210983  24.5592154
  77.5777325   7.3687592  25.2847070  77.4674586   8.6237145  24.7430632
  77.6868517   7.8733541  24.6935657  93.4179145   9.0768701  23.7969544
  93.9132810   8.3591696  23.7573565  92.6078921   8.7739498  23.6824031
  93.3723038   8.9266347  23.7743270  88.8637756  12.9266514  15.9466549
  88.0549079  12.6033187  15.8999858  89.3712665  12.2199736  15.8794798
  88.8187423  12.7747830  15.9296843  79.4928034  10.3538707  21.6713913
  78.6273553  10.3424397  21.5596684  79.5926850  10.1668930  22.5185053
  79.3802201  10.3244768  21.7802858  95.4830964  11.8272388  26.4846673
  95.9086035  11.3046810  25.9317098  95.1187884  12.4253225  25.9635296
  95.4917566  11.8382615  26.3255683  85.1185044  20.1236606  25.2444019
  85.4331602  20.9372994  25.2521801  85.5278457  19.7386824  25.9126178
  85.2253142  20.1865308  25.3448110  92.0709563  15.5406652  22.8147831
  92.5420741  16.2546915  22.9837816  92.4069742  14.9405402  23.3507700
  92.1904678  15.5578117  22.9180207  94.1586548  17.1507966  34.9939903
  94.2683513  16.3616526  35.3496650  94.4877444  17.0613902  34.1914241
  94.2238954  17.0213819  34.9282294  92.7083509  15.3324586  29.5775523
  92.1604455  14.7082470  29.3095589  93.1696538  15.5218858  28.8619603
  92.6950719  15.2683637  29.4325954  82.4598064  14.0709714  24.8922627
  83.0642921  14.0305548  24.2636448  82.2525376  14.9180866  24.9226683
  82.5186961  14.1897716  24.8038744  92.2741836  16.3375659  26.1084865
  93.0940210  16.1938625  26.3701160  91.9935913  16.9621858  26.6501302
  92.3538579  16.4086011  26.2272804  77.6949346  13.0544332  24.7621550
  77.5973624  12.2440603  25.0711607  78.4778216  13.0336125  24.3767818
  77.7965482  12.9311422  24.7508413 101.9455171  23.0816162  23.8280671
 101.0893067  23.2424660  23.8789788 101.9922825  22.2108226  23.8485732
 101.8254282  22.9766964  23.8386737  96.3296311  32.6178880  19.5917903
  95.5779210  32.2394418  19.3633948  96.7782322  32.6497313  18.8436713
  96.2845978  32.5664487  19.4475405 105.2548888  29.3502687  33.4341127
 105.9615655  28.8554718  33.5628062 105.4436823  29.7911769  32.7043785
 105.3876793  29.3421038  33.3450173 101.7821271  33.0404249  15.0203450
 101.4472639  33.7181171  14.5847672 102.2948141  32.6509560  14.4320322
 101.8086852  33.0828827  14.8690241 101.3225562  34.9918518  20.9614562
 101.7064941  35.5605417  20.4219337 101.2584703  34.2668028  20.4820378
 101.3698989  34.9693981  20.8108424 104.7906992  25.1408206  26.4712323
 105.3362952  25.8193292  26.5306293 104.7323868  24.9995667  25.6113905
 104.8622906  25.2200207  26.3524384  97.9081067  32.6297272  21.8580675
  98.0091430  31.8197626  22.1677803  97.3122812  32.5354218  21.2280354
  97.8353606  32.4962300  21.8106914  97.7481807  37.5474861  23.2595531
  98.3919262  37.9888025  23.6491690  98.0738062  36.7428287  23.1725790
  97.8913635  37.4940056  23.3041009  91.1046111  28.6517558  21.4833009
  90.8696296  27.8185211  21.3765278  91.2431752  28.9322224  20.6694210
  91.0901774  28.5701062  21.3475364  93.4036199  20.8203289  24.3817317
  92.7841230  20.2295936  24.2127332  93.3020062  21.4114724  23.7481640
  93.2973874  20.8207372  24.2622306  98.4502386  30.5586836  18.6315393
  98.7718227  31.0992043  18.0276701  99.0974483  29.9883607  18.7637683
  98.5928441  30.5546011  18.5622429 100.5004094  22.5602831  18.7149780
 101.1984259  22.7390958  19.2071243 100.8156427  22.0373170  18.0920169
 100.6499431  22.5096603  18.6951790  93.1305332  24.3655571  26.6260886
  93.0064029  24.9518016  27.2610705  93.7823616  23.8715766  26.9273161
  93.2078981  24.3794375  26.7646815 100.6892030  28.9473276  18.7029571
 101.1285665  28.3390376  19.1484344 100.5396693  28.5680649  17.9315036
 100.7313495  28.8011747  18.6548739  98.1563673  27.5417288  25.9048397
  98.8012675  27.0489731  25.5859345  98.3965450  27.6842074  26.7314475
  98.2874258  27.4894730  25.9797930 100.6949764  30.3872194  25.5555289
 100.9773007  29.5923599  25.3342045 101.4235924  30.8652781  25.5760350
 100.8439328  30.3406790  25.5258305  98.6730958  17.9295228  22.7971055
  98.3434288  18.3806371  22.1274753  97.9975960  17.8511391  23.3444061
  98.5241394  17.9846363  22.7794278 104.2901366  27.3000457  15.6560341
 104.2052661  28.1561424  15.8009909 104.7785749  27.0244781  16.3242500
 104.3490263  27.3857779  15.7762422 110.6767852  29.4931556  22.5291120
 109.8465555  29.7042199  22.6924537 110.6277105  28.6668610  22.2533404
 110.5474588  29.4021162  22.5128486  97.1119407  27.8148468  15.9565544
  96.5276622  28.3198499  16.3631408  96.7089502  27.5890855  15.2162136
  96.9658711  27.8556716  15.9070569  92.6663436  33.5303229  22.7589215
  92.1831014  34.2553719  22.7348799  93.4786754  33.8279359  22.8699373
  92.7154184  33.6805583  22.7716494  98.7377590  32.3235410  25.3639030
  98.2204532  31.9642825  24.7600338  99.4351981  31.7997584  25.3745096
  98.7643171  32.1933098  25.2769288 102.3941182  32.7730224  31.3255203
 102.4824528  32.5856364  32.1733413 102.8230894  32.1267654  30.9260050
 102.4703284  32.6493232  31.3926954  99.9611642  32.0561384  30.3072865
  99.3982476  31.6433994  30.8312526 100.7232665  31.9814290  30.7266008
  99.9906090  31.9838785  30.4465865  96.8786912  15.9907516  18.2794002
  97.6332880  16.3585833  18.0411052  96.7014447  16.3647070  19.0473182
  96.9641390  16.1005704  18.3578891  95.5207633  34.0459405  22.9109495
  96.2228212  33.5311394  22.9682252  95.4405116  34.3733556  23.7156370
  95.6131394  34.0173631  23.0382287 110.1721811  22.1401956  26.3241542
 109.3350232  22.2104144  26.5589136 110.1410042  22.1426451  25.4515844
 110.0440093  22.1512183  26.2301090  96.5686540  24.2834992  32.0389910
  96.7407043  24.1740887  32.8875192  97.1055897  24.9289398  31.8021102
  96.6731544  24.3626994  32.1295007  95.2343977  18.3977835  14.9772115
  95.0519550  18.6149716  14.1513108  96.0969590  18.5116848  15.0330730
  95.3348566  18.4467733  14.8626602  94.8458409  30.2365757  22.4195103
  95.6847308  30.4688690  22.4668865  94.8770178  29.3670069  22.3502139
  94.9740126  30.1422704  22.4159748  95.4711112  30.6566632  26.7208409
  96.0109337  30.5137763  27.3911781  94.7881058  31.0563383  27.0892435
  95.4503265  30.6946303  26.8742830 104.8951996  26.3357633  21.9153433
 105.6509511  26.7689147  21.9542342 105.0014321  25.6862403  22.4888069
 105.0222167  26.3035117  22.0051459 107.9332168  30.1630910  22.6655836
 107.4967399  30.1667653  23.4214807 107.5995083  30.8436409  22.2335413
 107.8194788  30.2643366  22.7136669 102.5061241  32.2039243  33.9898986
 103.2901658  32.3170091  34.3554728 102.3057836  31.3780380  34.1857672
 102.5927267  32.0985962  34.0733372  90.8748257  26.8766923  26.8742830
  90.6086672  26.0606040  27.0333820  90.8886821  26.9220079  26.0038346
  90.8372979  26.7623828  26.7696312 107.8529650  17.2044738  24.9085264
 108.4955559  17.2742843  25.4947179 108.1052671  16.5373961  24.4064806
 107.9851783  17.1171087  24.9212543  94.7806004  21.6752008  13.4894588
  94.0664181  21.3890187  13.9017021  95.2649972  22.0148633  14.1300976
  94.7465367  21.6833657  13.6450223  95.6246863  20.4145301  29.5209838
  94.9318660  19.9442281  29.7670569  96.2407190  20.1883606  30.0951545
  95.6131393  20.3112433  29.6418990 102.6631635  34.1149345  27.6365442
 101.8646880  33.8748845  27.8939311 103.1117646  34.1663738  28.3832490
 102.6106246  34.0871736  27.7850366 111.0676514  26.8811830  21.5575473
 111.7292948  26.3202499  21.4571382 110.4267926  26.3863861  21.8828164
 111.0705381  26.7248239  21.5907813 101.9553322  30.1781962  13.8656396
 102.3704470  29.8466985  13.1740892 101.1245251  29.9450864  13.7376533
 101.8941330  30.0953217  13.7447244  91.2841670  27.6625703  24.1554574
  91.1017244  27.6372589  23.3026867  92.0191339  28.1324640  24.1943483
  91.3655734  27.7287065  24.0352493 107.3541344  27.8977212  21.2987462
 107.5896934  28.0422411  20.4714313 107.5030908  28.6619621  21.6918976
 107.4107148  28.0316267  21.2351066  94.3487422  24.3810705  30.6636683
  95.0727394  24.3663736  31.1501578  94.4503558  25.0906061  30.1658651
  94.4705631  24.4835409  30.6615470 101.7232371  27.8609790  35.5285630
 100.9305352  28.1753302  35.7138250 101.8381298  28.0761258  34.6906415
 101.6227782  27.9393627  35.4323965 104.3963690  24.5843781  19.8180646
 104.4910545  25.3233075  20.2720271 103.7722534  24.1561257  20.2515210
 104.3172720  24.6305102  19.9488793 102.6516164  27.7629994  30.4670927
 103.2255026  27.1257238  30.6219491 102.5730968  27.7634076  29.5980584
 102.7249399  27.6695105  30.3617338  91.2512581  24.5419203  24.3053641
  91.8286083  24.4055654  24.9445886  90.5526642  24.0854987  24.5599225
  91.2333602  24.4541469  24.4375931  98.0079883  26.1953259  22.5192124
  97.7499127  25.3624994  22.4923424  98.0628366  26.4210872  21.6784625
  97.9779661  26.1051030  22.3912261 103.0880933  18.2981710  22.6196217
 102.3837260  17.8090895  22.7780136 103.1365907  18.3104184  21.7484661
 102.9910985  18.2271358  22.5135557  96.9814595  23.7491021  23.0057019
  96.4064186  23.9083190  23.6420980  96.6050271  23.1126430  22.5425470
  96.8417407  23.6788834  23.0311577 100.6487884  22.2214371  27.8649397
 100.2602316  21.7968588  27.2101589  99.9842582  22.4696520  28.3726424
 100.4934811  22.1953092  27.8437265  86.7271414  23.3931096  21.0201460
  86.8131666  23.0162964  21.8014990  87.3547211  23.0191542  20.5421418
  86.8327965  23.2816578  21.0646937 104.4714245  15.9188999  25.3773382
 104.8524757  15.2367170  25.7641256 103.6677529  15.6298601  25.1949046
 104.4090707  15.7756048  25.4077438 101.7526822  26.4512975  16.0626204
 102.5667461  26.7427868  15.9508976 101.6885963  25.7972838  15.4884497
 101.8629561  26.3978170  15.9615042 107.9736312  29.1338971  30.4755780
 107.7374949  28.3027036  30.3567841 108.6179541  29.0824579  31.0610624
 108.0330983  29.0036659  30.5441674  97.6234730  29.9234493  21.1898516
  98.2608677  29.6846240  21.7350310  98.0489802  30.1271652  20.4551677
  97.7810896  29.9185503  21.1615674  92.3147373  32.1622829  25.0732820
  92.3551518  32.4337680  24.2452600  92.8741897  32.6864737  25.4890608
  92.4030718  32.2798584  25.0124708  98.2637545  25.1436782  15.5273406
  98.6482698  24.9244489  16.2789951  98.0149165  25.9699728  15.6574482
  98.2839618  25.2334929  15.6574482  98.4306086  18.4243198  35.2435990
  98.1159527  19.1942760  34.9805553  98.1096018  17.8613454  34.6588217
  98.3365005  18.4553466  35.1177340 108.9972733  28.9183420  26.5384075
 108.6918550  29.6511477  26.8997390 108.2778948  28.5121350  26.2576861
 108.8460075  28.9665153  26.5497212 100.0056202  30.4006915  22.8692303
 100.0795210  30.2382087  23.7234153 100.8225708  30.5897105  22.6252784
 100.1372561  30.4043658  22.9590328 114.6974525  25.5576421  25.8652419
 114.6299025  25.5772380  24.9955005 114.6830187  26.4006748  26.0908089
 114.6853281  25.6850155  25.7704896  93.7661959  30.7464778  19.8986746
  92.9400076  30.9926515  19.7721025  93.8273950  30.6676859  20.7648804
  93.6536126  30.7709727  20.0075691  95.9837983  16.8133719  20.8582186
  95.1160408  16.8856319  20.9239796  96.2713187  17.6155798  21.0470161
  95.8977731  16.9427866  20.8956953 105.1070871  16.9611578  29.1893508
 105.8524463  16.7721389  28.7756934 104.6908176  17.4869816  28.6307365
 105.1555845  17.0113724  29.0458081  98.5460788  33.3641658  17.6005776
  98.8359086  32.9730640  16.8765003  99.2764269  33.5458363  18.0411051
  98.6967672  33.3335472  17.5588583 112.4833142  24.3320807  24.1399013
 113.0341064  23.6988876  24.3796105 112.4677257  24.8636200  24.8314517
 112.5618338  24.3169755  24.2777871  99.1355533  28.1659404  28.6858907
  98.6367227  28.8775172  28.7643795  99.9455757  28.4860071  28.6477069
  99.1811640  28.3186253  28.6915475  96.4866703  35.3409041  20.6665926
  96.2666999  35.0506395  21.4592593  96.2661225  34.6823996  20.1383838
  96.4214298  35.2008749  20.7054835  95.3983651  27.4282357  22.9321628
  95.1096899  26.8019829  23.4667355  96.2666999  27.3702645  22.9986308
  95.4843902  27.3269902  23.0212582 106.1861548  22.5717141  23.2503609
 105.8426314  21.8507476  23.6010859 106.2854591  22.3630992  22.4081968
 106.1503591  22.4341344  23.1775289  98.6534659  36.7138431  19.4496618
  99.3058717  36.1814873  19.6787644  97.9560268  36.3607083  19.8364492
  98.6465377  36.5827954  19.5408786  95.6015924  29.0677608  18.8563993
  96.3561892  29.4490647  19.0699455  95.0086537  29.5188752  19.3110689
  95.6252638  29.1906436  18.9546871 106.6474577  29.0342845  18.7927598
 107.2132610  29.6936055  18.7086140 106.0002481  29.3792543  19.2644000
 106.6353334  29.1824786  18.8500354  98.0622591  21.0240449  33.9821205
  97.2522367  21.3298228  33.8711047  98.5397278  21.7446031  34.0973789
  98.0126070  21.1755050  33.9828276  96.9214151  30.2386170  24.2304108
  96.3994904  30.3786461  24.9155973  97.3088171  29.4796834  24.4206225
  96.9017851  30.1471694  24.3605184  93.9105335  20.2891978  18.2999063
  93.6230130  19.9193249  17.5631010  94.5975803  20.7586834  18.0382768
  93.9694232  20.3038948  18.1514138 103.1181156  31.9781629  18.2164677
 102.8767831  31.2449490  17.8091742 103.2982488  32.5268486  17.5631010
 103.1088779  31.9504020  18.0594900  98.3480476  27.2690189  19.6285599
  98.1523259  27.8764923  19.0345902  98.5714822  26.5758133  19.1477273
  98.3515117  27.2567714  19.4701680  96.7459006  24.1544927  19.7466467
  97.4681658  24.3186085  19.2870273  96.2666999  24.8754591  19.6405807
  96.7822737  24.2843156  19.6632081 104.7052514  20.4908725  25.1263152
 103.8663614  20.5170004  24.8901416 104.7756881  21.1379461  25.7068499
 104.5920907  20.5904851  25.1772269  94.3966623  26.5602999  28.8520607
  94.9087720  26.8387252  28.2029367  94.1102965  27.2992293  29.2183420
  94.4301486  26.7105353  28.8110485 108.5810038  25.6976712  22.4124394
 108.4944012  25.8532138  23.2659173 108.1260518  26.3414788  22.0383799
 108.5013294  25.8152467  22.4831501  91.4833529  21.0673191  19.1484344
  91.5849666  21.8699352  19.4765319  92.2789416  20.8660527  18.8507424
  91.6161435  21.1559090  19.1519699  97.9150348  18.6529388  28.9121649
  97.7233545  18.6684522  29.7621072  98.7648944  18.8493062  28.8888304
  98.0126070  18.6843739  29.0344944  92.2997261  21.1820369  26.8905465
  92.1582753  20.3304310  27.0149973  92.5837825  21.2249030  26.0667671
  92.3205107  21.0620119  26.7873089 102.4535854  23.0187459  21.0349954
 102.2070568  22.9383210  21.8686742 102.7820977  22.2340927  20.8412481
 102.4657097  22.8913725  21.1297477 106.3483902  29.7270819  24.8236735
 106.2098262  30.4251864  25.3285477 105.5683900  29.5719475  24.4672917
 106.2127129  29.8070985  24.8463009 104.6861988  26.0267194  31.0759116
 104.6810026  25.1547011  31.0801543 105.3922981  26.2255363  30.6028572
 104.7906992  25.9271068  31.0066152  98.4132881  25.7544178  30.4472937
  98.5576257  26.3345386  29.8116047  98.7608529  26.1320475  31.1522791
  98.4860342  25.8964882  30.4571932 100.5852798  24.9534346  28.2298068
  99.8376112  25.1465361  27.8246346 100.7394324  24.1279566  27.9922190
 100.4975226  24.8599458  28.1343474  97.4860636  33.9446950  27.3133963
  97.6350200  33.3849866  26.6607368  98.2660638  34.0238951  27.6966482
  97.6234730  33.8732515  27.2730913 100.0113937  34.1161593  28.5918454
  99.9357608  33.4470403  29.1469243  99.9403796  34.8179381  29.1059121
  99.9894543  34.1206500  28.7495302 100.8254575  18.8484897  29.1193472
 101.2827189  19.5808871  29.2466264 100.9010904  18.4251362  29.8780728
 100.9045545  18.8942135  29.2494548  93.0687567  19.0950717  30.2082916
  92.5329756  18.4831075  30.5243683  93.1305331  19.6698853  30.8616582
  92.9983199  19.0897644  30.3518342 100.6684183  32.6362591  19.4242060
 101.4334075  32.3672235  19.1024724 100.5662273  32.1512602  20.1412123
 100.7665679  32.5252156  19.4821888  98.7036953  20.8387001  25.9635296
  97.9133028  20.6578461  26.2852632  99.0997576  20.0613953  25.9465590
  98.6453829  20.6974462  26.0087844 104.0880640  28.4729431  23.6894742
 103.4125641  28.2414663  24.1908129 104.0973016  27.8650614  23.0636847
 103.9899144  28.3488356  23.6710894 101.2174784  23.3147260  30.4458795
 101.1533925  24.1757216  30.3178932 101.3571971  22.9979253  29.6454346
 101.2290254  23.3947427  30.3087008 106.0897374  31.3294563  15.9204920
 106.1717212  32.1361550  15.5966371 106.5747116  31.3490523  16.6445693
 106.1734532  31.4515226  15.9791818  99.8993877  26.0079399  24.5874998
  99.4756127  26.2083898  23.8514016  99.7238733  25.1608247  24.6999298
  99.8104758  25.9128181  24.4948688  99.4005571  37.5229912  27.0496455
  99.8901501  36.8240702  26.8672120  98.8289803  37.2253782  27.6372512
  99.3890101  37.3756136  27.1097496  95.1876322  26.5031451  20.0202970
  95.3440942  26.4378254  20.8758962  95.5276915  27.2780003  19.8081650
  95.2609557  26.6080649  20.1157564 101.7255467  25.8789334  18.8896334
 102.2671012  25.3759715  19.3534954 102.0402026  25.8254529  18.0785819
 101.8519864  25.7968755  18.8380146 105.5972574  30.0891982  36.0023246
 106.4107440  29.8177131  36.1628378 105.4367541  29.7899522  35.1983442
 105.6942523  30.0046908  35.9068652  99.8941917  31.2706686  16.1736362
  99.9634737  30.4121224  16.3129362 100.6730372  31.4878567  15.8455386
 100.0194767  31.1759550  16.1453519 102.8744736  20.7725639  28.9418634
 103.0886706  20.1336553  28.3881988 102.2578636  21.2171463  28.5126496
 102.8150066  20.7435783  28.7969065 104.2849404  33.6944387  20.3872855
 103.8929196  33.3911102  19.6695721 104.4402476  34.5313477  20.1977809
 104.2502994  33.7728224  20.2529352  91.7610584  23.6866401  20.3363737
  92.1409549  24.1050946  19.6724005  91.1865949  24.2679857  20.6432581
  91.7321909  23.8344260  20.2840478 105.0383824  22.3814704  29.8801941
 104.2260506  22.0740594  29.9615114 105.4973759  21.9013704  30.4444653
 104.9864209  22.2651196  29.9756535 104.4489079  30.2594376  20.3278885
 104.0903734  30.4309019  21.1042918 103.9627790  30.7207582  19.7706884
 104.3247776  30.3533347  20.3604155 102.2659465  13.8825575  23.9305977
 101.3953023  13.8564296  23.8839286 102.5199806  13.7102767  23.1131822
 102.1753025  13.8535718  23.8026114  99.2377444  25.9393541  12.8679120
  99.5269969  26.7158424  13.1422694  99.3249243  25.4282273  13.5693619
  99.2931701  25.9785460  13.0121618 102.1337332  23.7874776  34.6630643
 102.6036963  24.4116892  35.0498517 102.1799212  23.1191751  35.2223858
 102.2105208  23.7809456  34.8030715  99.2908605  15.8931803  25.3879447
  98.7747094  15.2011994  25.5131026  98.7302534  16.5602580  25.3342046
  99.1315119  15.8895061  25.3985513 101.3600839  16.4324763  27.2172300
 100.9732592  16.4573795  27.9985830 100.8733776  15.8666442  26.7646816
 101.2313348  16.3520514  27.2660203 105.6093818  31.1498272  31.2746086
 106.2473539  30.6558468  30.9408542 104.9667910  31.0775672  30.6898313
 105.6088045  31.0657280  31.1388441 107.3350818  22.9987418  25.8412002
 106.9078427  22.9113767  25.0860101 106.6976871  23.1065193  26.4266846
 107.1780426  23.0020078  25.8157443 101.0257981  13.3191749  29.5082560
 101.6551099  13.8552049  29.2303630 101.1943843  13.2269107  30.3596125
 101.1435775  13.3853111  29.5931088 100.8271896  18.1062943  31.7808971
 101.6545325  17.8348092  31.8367586 100.8479742  18.9023785  32.1372789
 100.9524746  18.1842697  31.8424154 105.6648075  31.8418080  27.9151443
 106.4540453  31.4907145  28.0353525 105.8391673  32.6554469  27.6528077
 105.8068357  31.9103937  27.8939311  95.4041385  25.2526806  24.9679232
  94.5629392  25.1530680  25.1758126  95.6131393  26.0222286  25.3193553
  95.3106078  25.3518849  25.0506547  92.8816952  22.8746343  22.7963983
  92.4873650  22.9489355  22.0214092  92.3257069  23.2604289  23.3472344
  92.7419765  22.9428118  22.7631642 104.5181899  15.8527637  22.4767861
 104.7231493  15.7849945  23.3224859 104.1908323  16.6586458  22.4089039
 104.4997147  15.9613577  22.5927517  99.2158050  23.1808205  24.2176829
  98.9121188  22.6264193  24.8187237  98.5137471  23.3600415  23.7304864
  99.0674260  23.1252988  24.2346535  98.2724147  20.4908725  18.7821531
  98.5483882  19.7727638  18.3699099  98.8722817  21.0893645  18.5742637
  98.4017412  20.4729096  18.6902292  97.2776401  30.3957926  28.9248927
  97.1696756  30.4059988  29.7910985  97.4872183  31.2212706  28.7353881
  97.2926512  30.5199001  29.0253019  95.2950193  27.6470568  26.3870865
  94.7038127  28.2880066  26.3573880  96.0571217  28.0708186  26.3602164
  95.3198454  27.8046407  26.3786012  95.6910816  18.8072566  27.0538882
  96.1512298  18.8811495  27.7914006  95.7366923  19.6053820  26.7038704
  95.7661371  18.9366713  27.1111639  97.3394166  19.4739261  31.6210910
  96.9479731  18.8272608  32.0566687  97.5080029  20.0650696  32.2405165
  97.3065076  19.4653529  31.7773615 111.4140615  27.4776338  27.3848143
 111.4723739  27.9262987  28.1308120 110.7807082  27.8875151  26.9478223
 111.3291910  27.6050073  27.4300691 105.0539710  33.0979880  23.8202889
 104.8559398  33.5870694  23.1259101 104.4327421  33.3021121  24.3987023
 104.9327274  33.1996418  23.8026113  99.1147688  24.8664777  18.1613134
  99.8589733  25.2539053  18.3996083  99.2608384  24.0222202  18.3253621
  99.2458273  24.7995250  18.2207103 101.0327263  16.6615036  23.1944995
 100.1863308  16.8337843  23.0686345 101.0298396  15.8564379  23.5310823
 100.9074413  16.5676065  23.2256122 102.1025564  20.4390250  24.0607053
 101.6285518  19.9132012  24.5712364 102.4743700  19.8919723  23.4921914
 102.0875453  20.2806247  24.0522200  92.4798594  22.4361757  29.4290599
  93.3424207  22.3357466  29.3427928  92.1490377  21.8556466  28.8676171
  92.5583790  22.3353383  29.3336004 108.3662294  25.4992626  25.4713833
 108.1260517  24.6599041  25.4756260 108.8454301  25.5792792  26.1954607
 108.4014478  25.3874025  25.5788636 110.3667481  22.2794083  23.4243092
 110.1277251  22.2389917  22.5863877 110.5301383  23.1265235  23.5508814
 110.3557785  22.3986168  23.3196574 106.9713511  26.6644032  29.3548138
 107.6947710  26.2116559  29.1759158 106.7063474  26.9448698  28.5720465
 107.0394785  26.6395001  29.2126853  95.8400380  21.2604206  26.0901017
  95.2153450  21.2722598  25.4826970  95.5045975  21.7364381  26.7392257
  95.6985872  21.3322723  26.0957585  92.5526055  29.3204666  27.5304781
  92.0225980  28.6297105  27.5799756  92.8251149  29.3114851  26.7017490
  92.5150778  29.2171798  27.4152197 103.5846146  29.9030368  16.2542464
 104.3080345  30.3688481  16.1107037 103.1446737  29.9703978  15.5040061
 103.6261838  29.9814205  16.1227245 102.7532301  26.7627910  27.5043153
 102.1389294  26.2185961  27.7991788 103.2699586  26.2492147  27.0248969
 102.7387963  26.6064319  27.4767381 101.9928598  27.8332180  25.2387451
 101.5656206  27.2081899  24.8052887 101.9853542  27.5507102  26.0646459
 101.9287739  27.6984961  25.2967279  95.1091125  22.8697354  28.3075885
  95.2684612  22.1140678  28.7127607  94.9284019  23.4188293  28.9616623
  95.1056484  22.8391167  28.4638591 103.0511428  15.0358589  28.8626675
 102.5551989  15.2322263  28.1718242 103.8080490  15.4351257  28.6915476
 103.0898253  15.1236323  28.7346812 100.3214308  18.7100935  25.4529985
 100.3456795  18.1761047  24.7642765 100.5725781  18.2018244  26.1155576
 100.3624226  18.5561839  25.4494630  87.8321898  25.9932430  24.8873129
  87.7265347  25.9479274  24.0225213  87.0822118  26.3386211  25.1687414
  87.7057501  26.0373338  24.8010459  96.6015630  17.4371753  24.8335730
  96.6414002  17.9380960  25.5470437  95.7765295  17.5282147  24.5641653
  96.4855156  17.5253570  24.8986268  98.7845243  27.0032493  32.9356024
  97.9340873  27.1404207  33.0713669  98.9473371  26.2696271  33.3803726
  98.6829106  26.9146594  33.0211623  98.0229993  23.9532263  27.1309629
  97.1921923  24.1206081  26.9244877  97.9681511  23.5768214  27.9158514
  97.8919408  23.9221994  27.2158157  95.8313777  17.4441156  32.7666039
  96.4566480  16.9003289  33.0395472  95.3764257  16.9636074  32.1973830
  95.8562037  17.2930637  32.7227633  96.3966037  22.2287855  17.6599746
  96.5368998  22.7260319  18.3628388  96.8948570  21.5274149  17.8013960
  96.4907118  22.1989833  17.7851325  96.4266260  23.0954966  14.9892323
  97.0611339  23.6915391  14.9241785  96.5091870  22.7958423  15.8038193
  96.5322811  23.1395874  15.0995410 109.4048825  25.6270443  27.8578687
 109.9966666  26.2667694  27.8896885 109.8407820  24.9293480  28.1470754
 109.5567257  25.6188793  27.9059520 101.2342215  30.0487815  28.4836581
 100.7267306  30.6023662  28.9277212 100.9368861  30.1096105  27.6655356
 101.1147100  30.1394127  28.4285038 103.4004397  18.4141135  27.3261244
 103.8259469  17.9613661  26.7144771 102.7861391  17.8601206  27.6026032
 103.3733043  18.2655111  27.2766270  92.9319248  25.2922806  18.2581869
  93.4411477  25.8887314  18.6393175  93.4053520  25.0248780  17.5758289
  93.0762623  25.3408622  18.2136392 103.8449996  33.9651073  16.4140525
 103.1279305  33.7911935  15.9487762 104.4956733  33.7303645  15.8816011
 103.8351846  33.9046866  16.2669743 101.8398620  14.8856235  20.7351821
 101.1966938  14.7353881  21.3036960 101.4998027  14.6398580  19.9700926
 101.6943698  14.8268357  20.7054836 106.4297967  22.8415662  20.1581830
 105.7589157  23.3845364  20.0294895 107.1237717  23.3110517  19.9163525
 106.4326834  22.9913933  20.1037358 100.4784701  34.9812374  25.3893588
 100.2550355  34.2231203  25.7577615  99.9894544  35.0110395  24.6674028
 100.3728150  34.8734598  25.3370329 106.5926094  19.2971545  23.0672203
 106.9453704  18.8701268  23.7418002 105.7340896  19.2122389  23.1973279
 106.5175539  19.2216286  23.1867214  95.2909779  21.9279065  21.1255050
  94.5721768  22.3443198  21.3927913  95.6622142  22.4933304  20.5746688
  95.2401711  22.0728346  21.0837857 104.5909360  22.5606914  27.0157045
 104.5707287  22.3790209  27.8691824 104.6388561  23.4318932  26.9916629
 104.5944001  22.6623452  27.1380340 102.5355690  29.1494106  32.9405522
 102.4951545  28.5043783  32.3550678 103.3479008  29.0930723  33.2530934
 102.6498843  29.0453073  32.9002471  99.1263157  35.2012832  22.8430673
  98.7123556  34.5386962  22.4534514  99.8110532  35.3490691  22.3226367
  99.1661529  35.1253490  22.7087170 102.4928452  34.3602917  23.5954289
 102.0944735  34.4705187  22.8275110 101.8779671  34.5684983  24.1780849
 102.3427341  34.4076485  23.5685589 103.9414170  20.9256569  19.8930179
 103.7127863  20.9489271  19.0508538 104.2012246  20.1014036  20.0125190
 103.9460358  20.8072649  19.7855377  98.2233399  22.7791042  29.4955280
  97.7112302  22.1712225  29.8540311  98.0512895  23.4947635  29.9629255
  98.1223036  22.7954342  29.6171503  93.0699113  21.2228618  32.1457641
  92.9001704  21.8829993  31.6005848  92.6265063  21.4335179  32.8670130
  92.9798447  21.3514600  32.1719271  96.9958933  19.4633116  21.1884375
  97.4716299  19.8250195  20.5534556  96.4947532  20.1189583  21.4684518
  96.9924292  19.6127304  21.1361116 102.1002469  20.7015287  31.9357535
 102.6573899  20.4729097  31.3036000 101.7763534  21.4620953  31.6592747
 102.1348879  20.7799124  31.8014032  89.9701178  24.1275483  27.4046131
  89.4227897  23.4576129  27.5226999  90.7593556  23.7605331  27.4689598
  90.0053362  23.9740470  27.4314832  99.8185586  23.7882940  32.9009542
 100.5696913  24.1034617  33.2149096 100.0108163  23.5862111  32.0743464
  99.9577000  23.8050322  32.8252938  88.7288147  23.3396291  24.5592154
  88.5509908  22.8872900  25.2847070  88.4407169  24.1422452  24.7430632
  88.6601100  23.3918849  24.6935657 104.3911728  24.5954008  23.7969544
 104.8865394  23.8777003  23.7573565 103.5811504  24.2924806  23.6824031
 104.3455622  24.4451655  23.7743270  99.8370340  28.4451822  15.9466549
  99.0281663  28.1218495  15.8999858 100.3445249  27.7385044  15.8794798
  99.7920007  28.2933138  15.9296843  90.4660617  25.8724015  21.6713913
  89.6006137  25.8609705  21.5596684  90.5659433  25.6854238  22.5185053
  90.3534784  25.8430076  21.7802858 106.4563547  27.3457696  26.4846673
 106.8818619  26.8232118  25.9317098 106.0920467  27.9438533  25.9635296
 106.4650150  27.3567923  26.3255683  96.0917627  35.6421913  25.2444019
  96.4064186  36.4558302  25.2521801  96.5011040  35.2572132  25.9126178
  96.1985725  35.7050616  25.3448110 103.0442147  31.0591960  22.8147831
 103.5153325  31.7732223  22.9837816 103.3802325  30.4590710  23.3507700
 103.1637262  31.0763424  22.9180207 105.1319131  32.6693274  34.9939903
 105.2416097  31.8801834  35.3496650 105.4610028  32.5799210  34.1914241
 105.1971537  32.5399127  34.9282294  99.9611642  15.8319431  29.7705926
 100.0939547  15.0350424  30.0986901 100.3456794  16.3585834  30.3504201
 100.0367971  15.7919348  29.9049428 103.6816093  30.8509894  29.5775523
 103.1337039  30.2267778  29.3095589 104.1429122  31.0404166  28.8619603
 103.6683303  30.7868945  29.4325954 103.0343997  12.7549757  26.3687019
 102.2289961  12.6447487  26.6854857 102.9050732  12.8562213  25.5116885
 102.8964130  12.7533427  26.2895059 106.4909957  18.9195249  26.9626716
 105.9072946  19.4204455  26.5504283 106.8114251  18.4124805  26.3291039
 106.4523133  18.9187084  26.8085223  99.0304757  17.8335844  17.2385390
  99.8520451  18.0034157  16.9967085  98.5674407  17.9883105  16.5151688
  99.0835919  17.8817577  17.0957035  97.6200088  15.8278606  28.0183819
  98.1644501  15.4869733  28.6088161  97.6737024  16.6864067  28.1605104
  97.7089208  15.9033865  28.1265693  93.4330647  29.5895022  24.8922627
  94.0375505  29.5490856  24.2636448  93.2257960  30.4366174  24.9226683
  93.4919545  29.7083024  24.8038744 103.2474419  31.8560967  26.1084865
 104.0672793  31.7123933  26.3701160 102.9668497  32.4807166  26.6501302
 103.3271163  31.9271319  26.2272804  88.6681930  28.5729639  24.7621550
  88.5706208  27.7625911  25.0711607  89.4510799  28.5521433  24.3767818
  88.7698066  28.4496730  24.7508413 112.9187755  38.6001470  23.8280671
 112.0625650  38.7609968  23.8789788 112.9655408  37.7293534  23.8485732
 112.7986866  38.4952272  23.8386737 107.3028894  48.1364188  19.5917903
 106.5511794  47.7579726  19.3633948 107.7514906  48.1682621  18.8436713
 107.2578561  48.0849795  19.4475405 116.2281471  44.8687995  33.4341127
 116.9348238  44.3740026  33.5628062 116.4169407  45.3097077  32.7043785
 116.3609377  44.8606346  33.3450173 112.7553854  48.5589557  15.0203450
 112.4205223  49.2366479  14.5847672 113.2680725  48.1694868  14.4320322
 112.7819435  48.6014135  14.8690241 112.2958145  50.5103826  20.9614562
 112.6797525  51.0790724  20.4219337 112.2317287  49.7853336  20.4820378
 112.3431573  50.4879289  20.8108424 115.7639576  40.6593514  26.4712323
 116.3095536  41.3378600  26.5306293 115.7056452  40.5180975  25.6113905
 115.8355490  40.7385515  26.3524384 108.8813650  48.1482580  21.8580675
 108.9824013  47.3382934  22.1677803 108.2855396  48.0539526  21.2280354
 108.8086189  48.0147608  21.8106914 108.7214390  53.0660169  23.2595531
 109.3651846  53.5073333  23.6491690 109.0470646  52.2613595  23.1725790
 108.8646219  53.0125364  23.3041009 102.0778695  44.1702866  21.4833009
 101.8428879  43.3370519  21.3765278 102.2164335  44.4507532  20.6694210
 102.0634357  44.0886370  21.3475364 104.3768782  36.3388597  24.3817317
 103.7573814  35.7481244  24.2127332 104.2752646  36.9300032  23.7481640
 104.2706458  36.3392679  24.2622306 109.4234970  46.0772144  18.6315393
 109.7450811  46.6177351  18.0276701 110.0707066  45.5068915  18.7637683
 109.5661025  46.0731319  18.5622429 111.4736678  38.0788139  18.7149780
 112.1716843  38.2576266  19.2071243 111.7889010  37.5558478  18.0920169
 111.6232015  38.0281911  18.6951790 104.1037915  39.8840879  26.6260886
 103.9796612  40.4703324  27.2610705 104.7556200  39.3901074  26.9273161
 104.1811565  39.8979683  26.7646815 111.6624613  44.4658584  18.7029571
 112.1018249  43.8575684  19.1484344 111.5129276  44.0865957  17.9315036
 111.7046079  44.3197055  18.6548739 109.1296256  43.0602596  25.9048397
 109.7745259  42.5675039  25.5859345 109.3698033  43.2027382  26.7314475
 109.2606841  43.0080038  25.9797930 111.6682348  45.9057501  25.5555289
 111.9505590  45.1108907  25.3342045 112.3968508  46.3838089  25.5760350
 111.8171911  45.8592098  25.5258305 109.6463541  33.4480535  22.7971055
 109.3166871  33.8991679  22.1274753 108.9708543  33.3696699  23.3444061
 109.4973978  33.5031671  22.7794278 115.2633950  42.8185765  15.6560341
 115.1785245  43.6746732  15.8009909 115.7518333  42.5430089  16.3242500
 115.3222847  42.9043086  15.7762422 121.6500436  45.0116864  22.5291120
 120.8198139  45.2227507  22.6924537 121.6009688  44.1853918  22.2533404
 121.5207171  44.9206470  22.5128486 108.0851991  43.3333776  15.9565544
 107.5009206  43.8383807  16.3631408 107.6822086  43.1076163  15.2162136
 107.9391295  43.3742024  15.9070569 103.6396019  49.0488537  22.7589215
 103.1563598  49.7739027  22.7348799 104.4519338  49.3464667  22.8699373
 103.6886767  49.1990891  22.7716494 109.7110173  47.8420718  25.3639030
 109.1937115  47.4828133  24.7600338 110.4084565  47.3182892  25.3745096
 109.7375755  47.7118406  25.2769288 113.3673765  48.2915532  31.3255203
 113.4557111  48.1041672  32.1733413 113.7963478  47.6452961  30.9260050
 113.4435868  48.1678540  31.3926954 110.9344225  47.5746692  30.3072865
 110.3715060  47.1619302  30.8312526 111.6965249  47.4999598  30.7266008
 110.9638674  47.5024092  30.4465865 107.8519496  31.5092824  18.2794002
 108.6065464  31.8771141  18.0411052 107.6747030  31.8832378  19.0473182
 107.9373974  31.6191012  18.3578891 106.4940217  49.5644713  22.9109495
 107.1960796  49.0496702  22.9682252 106.4137700  49.8918864  23.7156370
 106.5863977  49.5358939  23.0382287 121.1454394  37.6587264  26.3241542
 120.3082815  37.7289451  26.5589136 121.1142625  37.6611759  25.4515844
 121.0172677  37.6697491  26.2301090 107.5419123  39.8020300  32.0389910
 107.7139627  39.6926195  32.8875192 108.0788481  40.4474705  31.8021102
 107.6464127  39.8812302  32.1295007 106.2076560  33.9163143  14.9772115
 106.0252133  34.1335024  14.1513108 107.0702173  34.0302156  15.0330730
 106.3081150  33.9653041  14.8626602 105.8190992  45.7551065  22.4195103
 106.6579892  45.9873998  22.4668865 105.8502761  44.8855376  22.3502139
 105.9472710  45.6608012  22.4159748 106.4443695  46.1751940  26.7208409
 106.9841920  46.0323071  27.3911781 105.7613641  46.5748691  27.0892435
 106.4235849  46.2131611  26.8742830 115.8684580  41.8542941  21.9153433
 116.6242095  42.2874455  21.9542342 115.9746904  41.2047711  22.4888069
 115.9954751  41.8220425  22.0051459 118.9064751  45.6816218  22.6655836
 118.4699983  45.6852961  23.4214807 118.5727667  46.3621717  22.2335413
 118.7927371  45.7828674  22.7136669 113.4793825  47.7224551  33.9898986
 114.2634241  47.8355399  34.3554728 113.2790419  46.8965688  34.1857672
 113.5659850  47.6171270  34.0733372 101.8480840  42.3952231  26.8742830
 101.5819255  41.5791348  27.0333820 101.8619404  42.4405387  26.0038346
 101.8105563  42.2809136  26.7696312 118.8262234  32.7230046  24.9085264
 119.4688142  32.7928151  25.4947179 119.0785255  32.0559269  24.4064806
 118.9584366  32.6356395  24.9212543 105.7538587  37.1937315  13.4894588
 105.0396764  36.9075495  13.9017021 106.2382556  37.5333941  14.1300976
 105.7197950  37.2018965  13.6450223 106.5979447  35.9330609  29.5209838
 105.9051243  35.4627589  29.7670569 107.2139774  35.7068914  30.0951545
 106.5863977  35.8297741  29.6418990 113.6364218  49.6334653  27.6365442
 112.8379464  49.3934153  27.8939311 114.0850230  49.6849046  28.3832490
 113.5838829  49.6057044  27.7850366 122.0409097  42.3997138  21.5575473
 122.7025531  41.8387806  21.4571382 121.4000509  41.9049169  21.8828164
 122.0437965  42.2433547  21.5907813 112.9285905  45.6967269  13.8656396
 113.3437054  45.3652293  13.1740892 112.0977835  45.4636172  13.7376533
 112.8673914  45.6138525  13.7447244 102.2574254  43.1811010  24.1554574
 102.0749827  43.1557896  23.3026867 102.9923923  43.6509948  24.1943483
 102.3388318  43.2472373  24.0352493 118.3273928  43.4162520  21.2987462
 118.5629517  43.5607719  20.4714313 118.4763492  44.1804928  21.6918976
 118.3839731  43.5501575  21.2351066 105.3220006  39.8996013  30.6636683
 106.0459978  39.8849044  31.1501578 105.4236142  40.6091369  30.1658651
 105.4438215  40.0020717  30.6615470 112.6964955  43.3795098  35.5285630
 111.9037936  43.6938610  35.7138250 112.8113882  43.5946566  34.6906415
 112.5960365  43.4578935  35.4323965 115.3696274  40.1029089  19.8180646
 115.4643128  40.8418383  20.2720271 114.7455117  39.6746565  20.2515210
 115.2905304  40.1490410  19.9488793 113.6248748  43.2815302  30.4670927
 114.1987609  42.6442546  30.6219491 113.5463551  43.2819384  29.5980584
 113.6981983  43.1880413  30.3617338 102.2245164  40.0604511  24.3053641
 102.8018667  39.9240962  24.9445886 101.5259226  39.6040295  24.5599225
 102.2066186  39.9726777  24.4375931 108.9812466  41.7138567  22.5192124
 108.7231711  40.8810302  22.4923424 109.0360949  41.9396180  21.6784625
 108.9512244  41.6236338  22.3912261 114.0613517  33.8167017  22.6196217
 113.3569843  33.3276203  22.7780136 114.1098491  33.8289492  21.7484661
 113.9643568  33.7456665  22.5135557 107.9547179  39.2676329  23.0057019
 107.3796770  39.4268498  23.6420980 107.5782855  38.6311738  22.5425470
 107.8149991  39.1974142  23.0311577 111.6220467  37.7399679  27.8649397
 111.2334900  37.3153896  27.2101589 110.9575166  37.9881828  28.3726424
 111.4667395  37.7138400  27.8437265  97.7003997  38.9116404  21.0201460
  97.7864249  38.5348272  21.8014990  98.3279795  38.5376850  20.5421418
  97.8060548  38.8001886  21.0646937 115.4446829  31.4374307  25.3773382
 115.8257340  30.7552478  25.7641256 114.6410113  31.1483909  25.1949046
 115.3823290  31.2941356  25.4077438 112.7259405  41.9698283  16.0626204
 113.5400044  42.2613176  15.9508976 112.6618547  41.3158145  15.4884497
 112.8362144  41.9163478  15.9615042 118.9468896  44.6524279  30.4755780
 118.7107533  43.8212344  30.3567841 119.5912125  44.6009886  31.0610624
 119.0063566  44.5221967  30.5441674 108.5967314  45.4419801  21.1898516
 109.2341261  45.2031548  21.7350310 109.0222385  45.6456960  20.4551677
 108.7543480  45.4370811  21.1615674 103.2879956  47.6808137  25.0732820
 103.3284101  47.9522988  24.2452600 103.8474480  48.2050045  25.4890608
 103.3763302  47.7983892  25.0124708 109.2370129  40.6622090  15.5273406
 109.6215281  40.4429797  16.2789951 108.9881749  41.4885036  15.6574482
 109.2572201  40.7520237  15.6574482 109.4038669  33.9428506  35.2435990
 109.0892110  34.7128068  34.9805553 109.0828602  33.3798762  34.6588217
 109.3097588  33.9738774  35.1177340 119.9705316  44.4368728  26.5384075
 119.6651133  45.1696785  26.8997390 119.2511532  44.0306658  26.2576861
 119.8192659  44.4850461  26.5497212 110.9788786  45.9192223  22.8692303
 111.0527794  45.7567395  23.7234153 111.7958292  46.1082413  22.6252784
 111.1105144  45.9228966  22.9590328 125.6707108  41.0761729  25.8652419
 125.6031609  41.0957688  24.9955005 125.6562771  41.9192056  26.0908089
 125.6585865  41.2035463  25.7704896 104.7394542  46.2650086  19.8986746
 103.9132660  46.5111823  19.7721025 104.8006534  46.1862167  20.7648804
 104.6268709  46.2895035  20.0075691 106.9570566  32.3319027  20.8582186
 106.0892992  32.4041627  20.9239796 107.2445770  33.1341106  21.0470161
 106.8710314  32.4613174  20.8956953 116.0803455  32.4796886  29.1893508
 116.8257047  32.2906697  28.7756934 115.6640759  33.0055124  28.6307365
 116.1288429  32.5299032  29.0458081 109.5193371  48.8826966  17.6005776
 109.8091670  48.4915948  16.8765003 110.2496852  49.0643671  18.0411051
 109.6700256  48.8520780  17.5588583 123.4565726  39.8506115  24.1399013
 124.0073647  39.2174184  24.3796105 123.4409841  40.3821508  24.8314517
 123.5350922  39.8355063  24.2777871 110.1088117  43.6844712  28.6858907
 109.6099810  44.3960480  28.7643795 110.9188341  44.0045379  28.6477069
 110.1544223  43.8371561  28.6915475 107.4599287  50.8594349  20.6665926
 107.2399582  50.5691703  21.4592593 107.2393809  50.2009304  20.1383838
 107.3946881  50.7194057  20.7054835 106.3716234  42.9467665  22.9321628
 106.0829483  42.3205136  23.4667355 107.2399582  42.8887953  22.9986308
 106.4576486  42.8455209  23.0212582 117.1594132  38.0902449  23.2503609
 116.8158898  37.3692784  23.6010859 117.2587174  37.8816300  22.4081968
 117.1236175  37.9526652  23.1775289 109.6267243  52.2323739  19.4496618
 110.2791301  51.7000181  19.6787644 108.9292851  51.8792391  19.8364492
 109.6197961  52.1013262  19.5408786 106.5748507  44.5862916  18.8563993
 107.3294475  44.9675955  19.0699455 105.9819120  45.0374060  19.3110689
 106.5985221  44.7091744  18.9546871 117.6207161  44.5528153  18.7927598
 118.1865194  45.2121363  18.7086140 116.9735064  44.8977851  19.2644000
 117.6085917  44.7010094  18.8500354 109.0355175  36.5425757  33.9821205
 108.2254950  36.8483536  33.8711047 109.5129861  37.2631339  34.0973789
 108.9858653  36.6940358  33.9828276 107.8946734  45.7571478  24.2304108
 107.3727488  45.8971769  24.9155973 108.2820754  44.9982142  24.4206225
 107.8750435  45.6657001  24.3605184 104.8837918  35.8077286  18.2999063
 104.5962714  35.4378557  17.5631010 105.5708386  36.2772142  18.0382768
 104.9426815  35.8224256  18.1514138 114.0913739  47.4966937  18.2164677
 113.8500415  46.7634798  17.8091742 114.2715072  48.0453794  17.5631010
 114.0821363  47.4689328  18.0594900 109.3213060  42.7875497  19.6285599
 109.1255842  43.3950231  19.0345902 109.5447405  42.0943441  19.1477273
 109.3247701  42.7753022  19.4701680 107.7191590  39.6730235  19.7466467
 108.4414242  39.8371393  19.2870273 107.2399583  40.3939899  19.6405807
 107.7555320  39.8028464  19.6632081 115.6785097  36.0094033  25.1263152
 114.8396198  36.0355312  24.8901416 115.7489465  36.6564769  25.7068499
 115.5653491  36.1090159  25.1772269 105.3699206  42.0788307  28.8520607
 105.8820303  42.3572560  28.2029367 105.0835549  42.8177601  29.2183420
 105.4034070  42.2290661  28.8110485 119.5542621  41.2162020  22.4124394
 119.4676596  41.3717446  23.2659173 119.0993101  41.8600096  22.0383799
 119.4745878  41.3337775  22.4831501 102.4566113  36.5858499  19.1484344
 102.5582249  37.3884660  19.4765319 103.2522000  36.3845835  18.8507424
 102.5894018  36.6744398  19.1519699 108.8882932  34.1714696  28.9121649
 108.6966129  34.1869830  29.7621072 109.7381528  34.3678370  28.8888304
 108.9858654  34.2029047  29.0344944 103.2729845  36.7005677  26.8905465
 103.1315337  35.8489618  27.0149973 103.5570408  36.7434338  26.0667671
 103.2937691  36.5805427  26.7873089 113.4268437  38.5372767  21.0349954
 113.1803152  38.4568518  21.8686742 113.7553560  37.7526235  20.8412481
 113.4389681  38.4099033  21.1297477 117.3216486  45.2456127  24.8236735
 117.1830845  45.9437172  25.3285477 116.5416484  45.0904783  24.4672917
 117.1859713  45.3256293  24.8463009 115.6594571  41.5452502  31.0759116
 115.6542610  40.6732318  31.0801543 116.3655565  41.7440671  30.6028572
 115.7639575  41.4456376  31.0066152 109.3865465  41.2729486  30.4472937
 109.5308840  41.8530694  29.8116047 109.7341113  41.6505783  31.1522791
 109.4592926  41.4150190  30.4571932 111.5585382  40.4719654  28.2298068
 110.8108696  40.6650669  27.8246346 111.7126907  39.6464874  27.9922190
 111.4707809  40.3784766  28.1343474 108.4593219  49.4632258  27.3133963
 108.6082783  48.9035174  26.6607368 109.2393222  49.5424259  27.6966482
 108.5967313  49.3917823  27.2730913 110.9846520  49.6346901  28.5918454
 110.9090191  48.9655711  29.1469243 110.9136379  50.3364689  29.1059121
 110.9627127  49.6391808  28.7495302 111.7987159  34.3670205  29.1193472
 112.2559773  35.0994179  29.2466264 111.8743488  33.9436670  29.8780728
 111.8778129  34.4127443  29.2494548 104.0420150  34.6136025  30.2082916
 103.5062340  34.0016383  30.5243683 104.1037915  35.1884161  30.8616582
 103.9715783  34.6082952  30.3518342 111.6416767  48.1547899  19.4242060
 112.4066658  47.8857543  19.1024724 111.5394857  47.6697910  20.1412123
 111.7398263  48.0437464  19.4821888 109.6769537  36.3572309  25.9635296
 108.8865612  36.1763769  26.2852632 110.0730160  35.5799261  25.9465590
 109.6186413  36.2159770  26.0087844 115.0613223  43.9914739  23.6894742
 114.3858225  43.7599971  24.1908129 115.0705599  43.3835922  23.0636847
 114.9631728  43.8673664  23.6710894 112.1907367  38.8332568  30.4458795
 112.1266508  39.6942524  30.3178932 112.3304555  38.5164561  29.6454346
 112.2022837  38.9132735  30.3087008 117.0629958  46.8479871  15.9204920
 117.1449795  47.6546858  15.5966371 117.5479700  46.8675831  16.6445693
 117.1467116  46.9700534  15.9791818 110.8726461  41.5264707  24.5874998
 110.4488710  41.7269206  23.8514016 110.6971316  40.6793555  24.6999298
 110.7837342  41.4313489  24.4948688 110.3738154  53.0415220  27.0496455
 110.8634085  52.3426010  26.8672120 109.8022387  52.7439090  27.6372512
 110.3622684  52.8941444  27.1097496 106.1608906  42.0216759  20.0202970
 106.3173525  41.9563562  20.8758962 106.5009499  42.7965311  19.8081650
 106.2342141  42.1265957  20.1157564 112.6988051  41.3974642  18.8896334
 113.2403596  40.8945023  19.3534954 113.0134610  41.3439837  18.0785819
 112.8252448  41.3154063  18.8380146 116.5705158  45.6077290  36.0023246
 117.3840023  45.3362439  36.1628378 116.4100124  45.3084830  35.1983442
 116.6675106  45.5232216  35.9068652 110.8674500  46.7891994  16.1736362
 110.9367321  45.9306532  16.3129362 111.6462955  47.0063875  15.8455386
 110.9927350  46.6944858  16.1453519 113.8477320  36.2910947  28.9418634
 114.0619289  35.6521861  28.3881988 113.2311219  36.7356771  28.5126496
 113.7882649  36.2621091  28.7969065 115.2581988  49.2129695  20.3872855
 114.8661780  48.9096410  19.6695721 115.4135060  50.0498785  20.1977809
 115.2235578  49.2913532  20.2529352 102.7343167  39.2051709  20.3363737
 103.1142132  39.6236254  19.6724005 102.1598532  39.7865165  20.6432581
 102.7054492  39.3529568  20.2840478 116.0116408  37.9000012  29.8801941
 115.1993090  37.5925902  29.9615114 116.4706343  37.4199012  30.4444653
 115.9596793  37.7836504  29.9756535 115.4221663  45.7779684  20.3278885
 115.0636317  45.9494327  21.1042918 114.9360373  46.2392890  19.7706884
 115.2980360  45.8718655  20.3604155 113.2392049  29.4010882  23.9305977
 112.3685607  29.3749604  23.8839286 113.4932390  29.2288075  23.1131822
 113.1485609  29.3721026  23.8026114 110.2110028  41.4578849  12.8679120
 110.5002553  42.2343732  13.1422694 110.2981827  40.9467581  13.5693619
 110.2664284  41.4970768  13.0121618 113.1069915  39.3060083  34.6630643
 113.5769547  39.9302200  35.0498517 113.1531796  38.6377059  35.2223858
 113.1837791  39.2994764  34.8030715 110.2641189  31.4117111  25.3879447
 109.7479678  30.7197302  25.5131026 109.7035118  32.0787888  25.3342046
 110.1047702  31.4080369  25.3985513 112.3333423  31.9510071  27.2172300
 111.9465176  31.9759102  27.9985830 111.8466360  31.3851750  26.7646816
 112.2045931  31.8705822  27.2660203 116.5826402  46.6683580  31.2746086
 117.2206122  46.1743776  30.9408542 115.9400494  46.5960980  30.6898313
 116.5820628  46.5842588  31.1388441 118.3083402  38.5172726  25.8412002
 117.8811010  38.4299074  25.0860101 117.6709455  38.6250501  26.4266846
 118.1513009  38.5205386  25.8157443 111.9990564  28.8377056  29.5082560
 112.6283682  29.3737356  29.2303630 112.1676427  28.7454415  30.3596125
 112.1168359  28.9038419  29.5931088 111.8004479  33.6248251  31.7808971
 112.6277908  33.3533400  31.8367586 111.8212325  34.4209093  32.1372789
 111.9257329  33.7028005  31.8424154 116.6380659  47.3603388  27.9151443
 117.4273037  47.0092453  28.0353525 116.8124256  48.1739777  27.6528077
 116.7800940  47.4289245  27.8939311 106.3773969  40.7712114  24.9679232
 105.5361976  40.6715988  25.1758126 106.5863977  41.5407594  25.3193553
 106.2838662  40.8704157  25.0506547 103.8549536  38.3931651  22.7963983
 103.4606234  38.4674663  22.0214092 103.2989653  38.7789597  23.3472344
 103.7152348  38.4613426  22.7631642 115.4914483  31.3712945  22.4767861
 115.6964076  31.3035253  23.3224859 115.1640907  32.1771766  22.4089039
 115.4729731  31.4798885  22.5927517 110.1890634  38.6993513  24.2176829
 109.8853771  38.1449501  24.8187237 109.4870055  38.8785723  23.7304864
 110.0406844  38.6438295  24.2346535 109.2456731  36.0094033  18.7821531
 109.5216465  35.2912945  18.3699099 109.8455400  36.6078953  18.5742637
 109.3749996  35.9914404  18.6902292 108.2508985  45.9143234  28.9248927
 108.1429340  45.9245296  29.7910985 108.4604766  46.7398014  28.7353881
 108.2659096  46.0384309  29.0253019 106.2682777  43.1655876  26.3870865
 105.6770710  43.8065374  26.3573880 107.0303800  43.5893494  26.3602164
 106.2931037  43.3231715  26.3786012 106.6643400  34.3257874  27.0538882
 107.1244881  34.3996803  27.7914006 106.7099506  35.1239128  26.7038704
 106.7393955  34.4552021  27.1111639 108.3126749  34.9924569  31.6210910
 107.9212315  34.3457916  32.0566687 108.4812612  35.5836004  32.2405165
 108.2797660  34.9838837  31.7773615 122.3873198  42.9961646  27.3848143
 122.4456322  43.4448295  28.1308120 121.7539666  43.4060459  26.9478223
 122.3024494  43.1235381  27.4300691 116.0272293  48.6165188  23.8202889
 115.8291982  49.1056002  23.1259101 115.4060004  48.8206429  24.3987023
 115.9059858  48.7181726  23.8026113 110.0880271  40.3850085  18.1613134
 110.8322316  40.7724361  18.3996083 110.2340968  39.5407510  18.3253621
 110.2190857  40.3180557  18.2207103 112.0059847  32.1800344  23.1944995
 111.1595892  32.3523151  23.0686345 112.0030979  31.3749687  23.5310823
 111.8806997  32.0861373  23.2256122 113.0758147  35.9575558  24.0607053
 112.6018102  35.4317320  24.5712364 113.4476283  35.4105031  23.4921914
 113.0608036  35.7991555  24.0522200 103.4531177  37.9547065  29.4290599
 104.3156790  37.8542774  29.3427928 103.1222960  37.3741774  28.8676171
 103.5316374  37.8538691  29.3336004 119.3394878  41.0177934  25.4713833
 119.0993101  40.1784349  25.4756260 119.8186885  41.0978100  26.1954607
 119.3747062  40.9059333  25.5788636 121.3400065  37.7979391  23.4243092
 121.1009835  37.7575225  22.5863877 121.5033966  38.6450543  23.5508814
 121.3290368  37.9171476  23.3196574 117.9446095  42.1829340  29.3548138
 118.6680294  41.7301867  29.1759158 117.6796057  42.4634006  28.5720465
 118.0127368  42.1580309  29.2126853 106.8132963  36.7789514  26.0901017
 106.1886034  36.7907906  25.4826970 106.4778558  37.2549689  26.7392257
 106.6718455  36.8508031  26.0957585 103.5258639  44.8389974  27.5304781
 102.9958563  44.1482413  27.5799756 103.7983732  44.8300159  26.7017490
 103.4883361  44.7357106  27.4152197 114.5578729  45.4215676  16.2542464
 115.2812928  45.8873789  16.1107037 114.1179320  45.4889286  15.5040061
 114.5994422  45.4999513  16.1227245 113.7264885  42.2813218  27.5043153
 113.1121878  41.7371269  27.7991788 114.2432169  41.7677455  27.0248969
 113.7120547  42.1249627  27.4767381 112.9661182  43.3517488  25.2387451
 112.5388790  42.7267207  24.8052887 112.9586126  43.0692410  26.0646459
 112.9020323  43.2170269  25.2967279 106.0823709  38.3882661  28.3075885
 106.2417196  37.6325986  28.7127607 105.9016602  38.9373601  28.9616623
 106.0789068  38.3576475  28.4638591 114.0244012  30.5543897  28.8626675
 113.5284573  30.7507571  28.1718242 114.7813074  30.9536565  28.6915476
 114.0630836  30.6421631  28.7346812 111.2946891  34.2286243  25.4529985
 111.3189379  33.6946355  24.7642765 111.5458365  33.7203552  26.1155576
 111.3356810  34.0747147  25.4494630  98.8054481  41.5117738  24.8873129
  98.6997930  41.4664582  24.0225213  98.0554701  41.8571518  25.1687414
  98.6790084  41.5558646  24.8010459 107.5748214  32.9557061  24.8335730
 107.6146585  33.4566268  25.5470437 106.7497878  33.0467455  24.5641653
 107.4587740  33.0438878  24.8986268 109.7577826  42.5217801  32.9356024
 108.9073457  42.6589515  33.0713669 109.9205954  41.7881579  33.3803726
 109.6561690  42.4331902  33.0211623 108.9962577  39.4717571  27.1309629
 108.1654507  39.6391389  26.9244877 108.9414094  39.0953522  27.9158514
 108.8651992  39.4407302  27.2158157 106.8046360  32.9626464  32.7666039
 107.4299064  32.4188597  33.0395472 106.3496840  32.4821382  32.1973830
 106.8294621  32.8115945  32.7227633 107.3698621  37.7473163  17.6599746
 107.5101582  38.2445627  18.3628388 107.8681154  37.0459457  17.8013960
 107.4639702  37.7175141  17.7851325 107.3998843  38.6140274  14.9892323
 108.0343923  39.2100699  14.9241785 107.4824454  38.3143731  15.8038193
 107.5055394  38.6581182  15.0995410 120.3781409  41.1455751  27.8578687
 120.9699249  41.7853002  27.8896885 120.8140404  40.4478788  28.1470754
 120.5299840  41.1374101  27.9059520 112.2074799  45.5673123  28.4836581
 111.6999890  46.1208970  28.9277212 111.9101445  45.6281413  27.6655356
 112.0879684  45.6579435  28.4285038 114.3736981  33.9326443  27.3261244
 114.7992053  33.4798969  26.7144771 113.7593974  33.3786514  27.6026032
 114.3465626  33.7840419  27.2766270 103.9051831  40.8108114  18.2581869
 104.4144060  41.4072622  18.6393175 104.3786103  40.5434088  17.5758289
 104.0495207  40.8593930  18.2136392 114.8182579  49.4836381  16.4140525
 114.1011889  49.3097243  15.9487762 115.4689317  49.2488953  15.8816011
 114.8084430  49.4232174  16.2669743 112.8131204  30.4041543  20.7351821
 112.1699522  30.2539189  21.3036960 112.4730611  30.1583888  19.9700926
 112.6676281  30.3453665  20.7054836 117.4030550  38.3600970  20.1581830
 116.7321740  38.9030672  20.0294895 118.0970301  38.8295825  19.9163525
 117.4059418  38.5099241  20.1037358 111.4517284  50.4997682  25.3893588
 111.2282939  49.7416511  25.7577615 110.9627127  50.5295703  24.6674028
 111.3460733  50.3919906  25.3370329 117.5658678  34.8156853  23.0672203
 117.9186288  34.3886576  23.7418002 116.7073479  34.7307697  23.1973279
 117.4908122  34.7401594  23.1867214 106.2642363  37.4464373  21.1255050
 105.5454352  37.8628505  21.3927913 106.6354725  38.0118612  20.5746688
 106.2134295  37.5913654  21.0837857 115.5641944  38.0792222  27.0157045
 115.5439871  37.8975517  27.8691824 115.6121144  38.9504240  26.9916629
 115.5676585  38.1808760  27.1380340 113.5088273  44.6679414  32.9405522
 113.4684128  44.0229091  32.3550678 114.3211592  44.6116031  33.2530934
 113.6231427  44.5638381  32.9002471 110.0995741  50.7198140  22.8430673
 109.6856140  50.0572270  22.4534514 110.7843115  50.8675998  22.3226367
 110.1394113  50.6438798  22.7087170 113.4661035  49.8788225  23.5954289
 113.0677318  49.9890495  22.8275110 112.8512255  50.0870291  24.1780849
 113.3159924  49.9261793  23.5685589 114.9146754  36.4441877  19.8930179
 114.6860447  36.4674579  19.0508538 115.1744830  35.6199344  20.0125190
 114.9192942  36.3257957  19.7855377 109.1965982  38.2976350  29.4955280
 108.6844885  37.6897533  29.8540311 109.0245478  39.0132943  29.9629255
 109.0955619  38.3139650  29.6171503 104.0431697  36.7413926  32.1457641
 103.8734287  37.4015300  31.6005848 103.5997647  36.9520487  32.8670130
 103.9531031  36.8699908  32.1719271 107.9691516  34.9818424  21.1884375
 108.4448883  35.3435503  20.5534556 107.4680116  35.6374891  21.4684518
 107.9656875  35.1312612  21.1361116 113.0735053  36.2200595  31.9357535
 113.6306483  35.9914405  31.3036000 112.7496118  36.9806261  31.6592747
 113.1081463  36.2984432  31.8014032 100.9433761  39.6460791  27.4046131
 100.3960481  38.9761437  27.5226999 101.7326140  39.2790639  27.4689598
 100.9785945  39.4925778  27.4314832 110.7918170  39.3068248  32.9009542
 111.5429497  39.6219925  33.2149096 110.9840746  39.1047419  32.0743464
 110.9309584  39.3235630  32.8252938  99.7020731  38.8581599  24.5592154
  99.5242492  38.4058208  25.2847070  99.4139753  39.6607760  24.7430632
  99.6333684  38.9104157  24.6935657 115.3644312  40.1139316  23.7969544
 115.8597977  39.3962311  23.7573565 114.5544088  39.8110114  23.6824031
 115.3188205  39.9636963  23.7743270 110.8102924  43.9637130  15.9466549
 110.0014246  43.6403803  15.8999858 111.3177832  43.2570352  15.8794798
 110.7652590  43.8118446  15.9296843 101.4393201  41.3909323  21.6713913
 100.5738720  41.3795013  21.5596684 101.5392017  41.2039546  22.5185053
 101.3267368  41.3615384  21.7802858 117.4296131  42.8643004  26.4846673
 117.8551202  42.3417426  25.9317098 117.0653051  43.4623841  25.9635296
 117.4382733  42.8753231  26.3255683 107.0650211  51.1607221  25.2444019
 107.3796770  51.9743610  25.2521801 107.4743624  50.7757440  25.9126178
 107.1718309  51.2235924  25.3448110 114.0174730  46.5777268  22.8147831
 114.4885908  47.2917531  22.9837816 114.3534909  45.9776018  23.3507700
 114.1369845  46.5948732  22.9180207 116.1051715  48.1878582  34.9939903
 116.2148680  47.3987142  35.3496650 116.4342612  48.0984518  34.1914241
 116.1704121  48.0584434  34.9282294 110.9344225  31.3504739  29.7705926
 111.0672131  30.5535732  30.0986901 111.3189378  31.8771142  30.3504201
 111.0100554  31.3104655  29.9049428 114.6548677  46.3695202  29.5775523
 114.1069623  45.7453086  29.3095589 115.1161705  46.5589474  28.8619603
 114.6415886  46.3054252  29.4325954 114.0076580  28.2735065  26.3687019
 113.2022544  28.1632795  26.6854857 113.8783316  28.3747521  25.5116885
 113.8696713  28.2718735  26.2895059 117.4642541  34.4380557  26.9626716
 116.8805530  34.9389763  26.5504283 117.7846835  33.9310113  26.3291039
 117.4255716  34.4372392  26.8085223 110.0037340  33.3521152  17.2385390
 110.8253034  33.5219464  16.9967085 109.5406991  33.5068413  16.5151688
 110.0568502  33.4002885  17.0957035 108.5932672  31.3463914  28.0183819
 109.1377085  31.0055041  28.6088161 108.6469608  32.2049375  28.1605104
 108.6821791  31.4219173  28.1265693 104.4063231  45.1080330  24.8922627
 105.0108088  45.0676164  24.2636448 104.1990543  45.9551482  24.9226683
 104.4652128  45.2268332  24.8038744 114.2207003  47.3746275  26.1084865
 115.0405377  47.2309241  26.3701160 113.9401081  47.9992474  26.6501302
 114.3003746  47.4456627  26.2272804  99.6414513  44.0914947  24.7621550
  99.5438791  43.2811219  25.0711607 100.4243383  44.0706741  24.3767818
  99.7430650  43.9682038  24.7508413 123.8920338  54.1186778  23.8280671
 123.0358234  54.2795276  23.8789788 123.9387992  53.2478842  23.8485732
 123.7719450  54.0137580  23.8386737 118.2761478  63.6549496  19.5917903
 117.5244377  63.2765034  19.3633948 118.7247490  63.6867929  18.8436713
 118.2311145  63.6035103  19.4475405 123.7286438  64.0774865  15.0203450
 123.3937806  64.7551787  14.5847672 124.2413308  63.6880176  14.4320322
 123.7552019  64.1199443  14.8690241 123.2690729  66.0289134  20.9614562
 123.6530108  66.5976032  20.4219337 123.2049870  65.3038644  20.4820378
 123.3164156  66.0064597  20.8108424 119.8546234  63.6667888  21.8580675
 119.9556597  62.8568242  22.1677803 119.2587979  63.5724834  21.2280354
 119.7818773  63.5332916  21.8106914 119.6946974  68.5845477  23.2595531
 120.3384429  69.0258641  23.6491690 120.0203229  67.7798903  23.1725790
 119.8378802  68.5310672  23.3041009 113.0511278  59.6888174  21.4833009
 112.8161463  58.8555827  21.3765278 113.1896919  59.9692840  20.6694210
 113.0366941  59.6071678  21.3475364 115.3501366  51.8573905  24.3817317
 114.7306397  51.2666552  24.2127332 115.2485229  52.4485340  23.7481640
 115.2439041  51.8577987  24.2622306 120.3967553  61.5957452  18.6315393
 120.7183394  62.1362659  18.0276701 121.0439650  61.0254223  18.7637683
 120.5393609  61.5916627  18.5622429 122.4469261  53.5973447  18.7149780
 123.1449426  53.7761574  19.2071243 122.7621594  53.0743786  18.0920169
 122.5964599  53.5467219  18.6951790 115.0770499  55.4026187  26.6260886
 114.9529196  55.9888632  27.2610705 115.7288783  54.9086382  26.9273161
 115.1544148  55.4164991  26.7646815 122.6357197  59.9843892  18.7029571
 123.0750832  59.3760992  19.1484344 122.4861860  59.6051265  17.9315036
 122.6778663  59.8382363  18.6548739 120.1028840  58.5787904  25.9048397
 120.7477842  58.0860347  25.5859345 120.3430617  58.7212690  26.7314475
 120.2339425  58.5265346  25.9797930 122.6414931  61.4242809  25.5555289
 122.9238174  60.6294215  25.3342045 123.3701092  61.9023397  25.5760350
 122.7904495  61.3777406  25.5258305 120.6196125  48.9665843  22.7971055
 120.2899455  49.4176987  22.1274753 119.9441127  48.8882007  23.3444061
 120.4706561  49.0216979  22.7794278 119.0584574  58.8519084  15.9565544
 118.4741790  59.3569115  16.3631408 118.6554670  58.6261471  15.2162136
 118.9123878  58.8927332  15.9070569 114.6128603  64.5673845  22.7589215
 114.1296181  65.2924335  22.7348799 115.4251921  64.8649975  22.8699373
 114.6619351  64.7176199  22.7716494 120.6842757  63.3606026  25.3639030
 120.1669699  63.0013441  24.7600338 121.3817148  62.8368200  25.3745096
 120.7108338  63.2303714  25.2769288 124.3406349  63.8100840  31.3255203
 124.4289695  63.6226980  32.1733413 124.7696062  63.1638269  30.9260050
 124.4168451  63.6863848  31.3926954 121.9076809  63.0932000  30.3072865
 121.3447644  62.6804610  30.8312526 122.6697832  63.0184905  30.7266008
 121.9371257  63.0209400  30.4465865 118.8252079  47.0278132  18.2794002
 119.5798047  47.3956449  18.0411052 118.6479614  47.4017686  19.0473182
 118.9106557  47.1376320  18.3578891 117.4672800  65.0830021  22.9109495
 118.1693380  64.5682010  22.9682252 117.3870283  65.4104172  23.7156370
 117.5596561  65.0544247  23.0382287 118.5151707  55.3205608  32.0389910
 118.6872211  55.2111503  32.8875192 119.0521064  55.9660013  31.8021102
 118.6196711  55.3997610  32.1295007 117.1809144  49.4348451  14.9772115
 116.9984717  49.6520332  14.1513108 118.0434757  49.5487463  15.0330730
 117.2813733  49.4838349  14.8626602 116.7923576  61.2736373  22.4195103
 117.6312475  61.5059306  22.4668865 116.8235345  60.4040684  22.3502139
 116.9205293  61.1793319  22.4159748 117.4176279  61.6937248  26.7208409
 117.9574504  61.5508379  27.3911781 116.7346225  62.0933999  27.0892435
 117.3968433  61.7316919  26.8742830 124.4526408  63.2409859  33.9898986
 125.2366825  63.3540707  34.3554728 124.2523003  62.4150996  34.1857672
 124.5392434  63.1356578  34.0733372 112.8213424  57.9137539  26.8742830
 112.5551839  57.0976656  27.0333820 112.8351988  57.9590695  26.0038346
 112.7838146  57.7994444  26.7696312 116.7271171  52.7122623  13.4894588
 116.0129348  52.4260803  13.9017021 117.2115139  53.0519249  14.1300976
 116.6930534  52.7204273  13.6450223 117.5712030  51.4515917  29.5209838
 116.8783827  50.9812897  29.7670569 118.1872357  51.2254222  30.0951545
 117.5596560  51.3483049  29.6418990 124.6096802  65.1519961  27.6365442
 123.8112047  64.9119461  27.8939311 125.0582813  65.2034354  28.3832490
 124.5571413  65.1242352  27.7850366 123.9018489  61.2152577  13.8656396
 124.3169637  60.8837601  13.1740892 123.0710418  60.9821480  13.7376533
 123.8406497  61.1323833  13.7447244 113.2306837  58.6996318  24.1554574
 113.0482411  58.6743204  23.3026867 113.9656506  59.1695256  24.1943483
 113.3120901  58.7657681  24.0352493 116.2952589  55.4181321  30.6636683
 117.0192561  55.4034352  31.1501578 116.3968726  56.1276676  30.1658651
 116.4170798  55.5206024  30.6615470 123.6697539  58.8980406  35.5285630
 122.8770519  59.2123918  35.7138250 123.7846466  59.1131874  34.6906415
 123.5692949  58.9764243  35.4323965 124.5981331  58.8000610  30.4670927
 125.1720193  58.1627854  30.6219491 124.5196135  58.8004692  29.5980584
 124.6714566  58.7065721  30.3617338 113.1977748  55.5789819  24.3053641
 113.7751250  55.4426270  24.9445886 112.4991809  55.1225603  24.5599225
 113.1798769  55.4912085  24.4375931 119.9545050  57.2323875  22.5192124
 119.6964294  56.3995610  22.4923424 120.0093533  57.4581488  21.6784625
 119.9244828  57.1421646  22.3912261 125.0346100  49.3352325  22.6196217
 124.3302427  48.8461511  22.7780136 125.0831074  49.3474800  21.7484661
 124.9376152  49.2641973  22.5135557 118.9279762  54.7861637  23.0057019
 118.3529353  54.9453806  23.6420980 118.5515438  54.1497046  22.5425470
 118.7882574  54.7159450  23.0311577 122.5953051  53.2584986  27.8649397
 122.2067483  52.8339204  27.2101589 121.9307749  53.5067136  28.3726424
 122.4399979  53.2323708  27.8437265 108.6736581  54.4301712  21.0201460
 108.7596833  54.0533580  21.8014990 109.3012378  54.0562158  20.5421418
 108.7793132  54.3187194  21.0646937 123.6991989  57.4883591  16.0626204
 124.5132628  57.7798484  15.9508976 123.6351130  56.8343453  15.4884497
 123.8094728  57.4348786  15.9615042 119.5699897  60.9605109  21.1898516
 120.2073844  60.7216856  21.7350310 119.9954969  61.1642267  20.4551677
 119.7276064  60.9556119  21.1615674 114.2612540  63.1993445  25.0732820
 114.3016685  63.4708296  24.2452600 114.8207064  63.7235353  25.4890608
 114.3495886  63.3169200  25.0124708 120.2102712  56.1807398  15.5273406
 120.5947865  55.9615105  16.2789951 119.9614333  57.0070344  15.6574482
 120.2304785  56.2705545  15.6574482 120.3771253  49.4613813  35.2435990
 120.0624694  50.2313376  34.9805553 120.0561185  48.8984070  34.6588217
 120.2830172  49.4924082  35.1177340 121.9521369  61.4377531  22.8692303
 122.0260377  61.2752703  23.7234153 122.7690876  61.6267721  22.6252784
 122.0837728  61.4414273  22.9590328 115.7127126  61.7835394  19.8986746
 114.8865244  62.0297131  19.7721025 115.7739117  61.7047475  20.7648804
 115.6001293  61.8080343  20.0075691 117.9303150  47.8504335  20.8582186
 117.0625575  47.9226934  20.9239796 118.2178354  48.6526414  21.0470161
 117.8442898  47.9798482  20.8956953 120.4925955  64.4012274  17.6005776
 120.7824253  64.0101256  16.8765003 121.2229436  64.5828979  18.0411051
 120.6432839  64.3706088  17.5588583 121.0820700  59.2030020  28.6858907
 120.5832394  59.9145788  28.7643795 121.8920924  59.5230687  28.6477069
 121.1276807  59.3556869  28.6915475 118.4331871  66.3779657  20.6665926
 118.2132166  66.0877011  21.4592593 118.2126393  65.7194612  20.1383838
 118.3679465  66.2379365  20.7054835 117.3448818  58.4652973  22.9321628
 117.0562066  57.8390444  23.4667355 118.2132166  58.4073261  22.9986308
 117.4309070  58.3640517  23.0212582 120.5999826  67.7509047  19.4496618
 121.2523884  67.2185489  19.6787644 119.9025435  67.3977699  19.8364492
 120.5930544  67.6198570  19.5408786 117.5481091  60.1048224  18.8563993
 118.3027059  60.4861263  19.0699455 116.9551704  60.5559368  19.3110689
 117.5717805  60.2277052  18.9546871 120.0087758  52.0611065  33.9821205
 119.1987534  52.3668844  33.8711047 120.4862445  52.7816647  34.0973789
 119.9591237  52.2125666  33.9828276 118.8679318  61.2756786  24.2304108
 118.3460071  61.4157077  24.9155973 119.2553338  60.5167450  24.4206225
 118.8483019  61.1842309  24.3605184 115.8570502  51.3262594  18.2999063
 115.5695297  50.9563865  17.5631010 116.5440970  51.7957450  18.0382768
 115.9159399  51.3409564  18.1514138 125.0646323  63.0152245  18.2164677
 124.8232999  62.2820105  17.8091742 125.2447656  63.5639102  17.5631010
 125.0553947  62.9874636  18.0594900 120.2945643  58.3060805  19.6285599
 120.0988426  58.9135539  19.0345902 120.5179989  57.6128749  19.1477273
 120.2980284  58.2938330  19.4701680 118.6924173  55.1915542  19.7466467
 119.4146825  55.3556701  19.2870273 118.2132166  55.9125207  19.6405807
 118.7287904  55.3213772  19.6632081 116.3431790  57.5973615  28.8520607
 116.8552887  57.8757868  28.2029367 116.0568133  58.3362909  29.2183420
 116.3766653  57.7475969  28.8110485 113.4298696  52.1043807  19.1484344
 113.5314833  52.9069968  19.4765319 114.2254583  51.9031143  18.8507424
 113.5626602  52.1929706  19.1519699 119.8615515  49.6900003  28.9121649
 119.6698712  49.7055138  29.7621072 120.7114111  49.8863678  28.8888304
 119.9591237  49.7214355  29.0344944 114.2462428  52.2190985  26.8905465
 114.1047920  51.3674926  27.0149973 114.5302992  52.2619646  26.0667671
 114.2670275  52.0990735  26.7873089 124.4001021  54.0558075  21.0349954
 124.1535735  53.9753826  21.8686742 124.7286144  53.2711543  20.8412481
 124.4122264  53.9284340  21.1297477 120.3598048  56.7914794  30.4472937
 120.5041424  57.3716002  29.8116047 120.7073697  57.1691090  31.1522791
 120.4325509  56.9335498  30.4571932 122.5317965  55.9904962  28.2298068
 121.7841279  56.1835976  27.8246346 122.6859491  55.1650182  27.9922190
 122.4440393  55.8970074  28.1343474 119.4325803  64.9817566  27.3133963
 119.5815367  64.4220481  26.6607368 120.2125805  65.0609567  27.6966482
 119.5699897  64.9103131  27.2730913 121.9579104  65.1532208  28.5918454
 121.8822775  64.4841019  29.1469243 121.8868963  65.8549997  29.1059121
 121.9359711  65.1577116  28.7495302 122.7719742  49.8855513  29.1193472
 123.2292357  50.6179487  29.2466264 122.8476071  49.4621978  29.8780728
 122.8510712  49.9312751  29.2494548 115.0152734  50.1321333  30.2082916
 114.4794923  49.5201691  30.5243683 115.0770498  50.7069469  30.8616582
 114.9448366  50.1268260  30.3518342 122.6149351  63.6733207  19.4242060
 123.3799242  63.4042851  19.1024724 122.5127441  63.1883218  20.1412123
 122.7130846  63.5622772  19.4821888 120.6502120  51.8757617  25.9635296
 119.8598195  51.6949077  26.2852632 121.0462743  51.0984569  25.9465590
 120.5918997  51.7345078  26.0087844 123.1639951  54.3517876  30.4458795
 123.0999092  55.2127832  30.3178932 123.3037138  54.0349869  29.6454346
 123.1755421  54.4318043  30.3087008 121.8459045  57.0450015  24.5874998
 121.4221294  57.2454514  23.8514016 121.6703900  56.1978863  24.6999298
 121.7569925  56.9498797  24.4948688 121.3470738  68.5600528  27.0496455
 121.8366668  67.8611317  26.8672120 120.7754970  68.2624398  27.6372512
 121.3355268  68.4126752  27.1097496 117.1341490  57.5402067  20.0202970
 117.2906109  57.4748869  20.8758962 117.4742083  58.3150619  19.8081650
 117.2074724  57.6451265  20.1157564 123.6720634  56.9159950  18.8896334
 124.2136180  56.4130331  19.3534954 123.9867193  56.8625145  18.0785819
 123.7985031  56.8339371  18.8380146 121.8407084  62.3077302  16.1736362
 121.9099904  61.4491840  16.3129362 122.6195539  62.5249183  15.8455386
 121.9659934  62.2130166  16.1453519 124.8209904  51.8096255  28.9418634
 125.0351873  51.1707169  28.3881988 124.2043803  52.2542079  28.5126496
 124.7615233  51.7806398  28.7969065 113.7075751  54.7237017  20.3363737
 114.0874716  55.1421562  19.6724005 113.1331116  55.3050473  20.6432581
 113.6787076  54.8714876  20.2840478 124.2124632  44.9196190  23.9305977
 123.3418190  44.8934912  23.8839286 124.4664973  44.7473383  23.1131822
 124.1218192  44.8906334  23.8026114 121.1842612  56.9764157  12.8679120
 121.4735136  57.7529040  13.1422694 121.2714410  56.4652889  13.5693619
 121.2396868  57.0156076  13.0121618 124.0802499  54.8245391  34.6630643
 124.5502130  55.4487508  35.0498517 124.1264379  54.1562367  35.2223858
 124.1570375  54.8180072  34.8030715 121.2373773  46.9302419  25.3879447
 120.7212261  46.2382610  25.5131026 120.6767702  47.5973196  25.3342046
 121.0780286  46.9265676  25.3985513 123.3066006  47.4695379  27.2172300
 122.9197759  47.4944410  27.9985830 122.8198943  46.9037058  26.7646816
 123.1778515  47.3891130  27.2660203 122.9723148  44.3562364  29.5082560
 123.6016266  44.8922664  29.2303630 123.1409011  44.2639723  30.3596125
 123.0900942  44.4223727  29.5931088 122.7737063  49.1433559  31.7808971
 123.6010492  48.8718708  31.8367586 122.7944909  49.9394401  32.1372789
 122.8989913  49.2213313  31.8424154 117.3506553  56.2897422  24.9679232
 116.5094559  56.1901296  25.1758126 117.5596561  57.0592902  25.3193553
 117.2571245  56.3889465  25.0506547 114.8282120  53.9116959  22.7963983
 114.4338817  53.9859971  22.0214092 114.2722236  54.2974905  23.3472344
 114.6884932  53.9798733  22.7631642 121.1623217  54.2178821  24.2176829
 120.8586355  53.6634809  24.8187237 120.4602638  54.3971031  23.7304864
 121.0139427  54.1623603  24.2346535 120.2189315  51.5279341  18.7821531
 120.4949049  50.8098253  18.3699099 120.8187984  52.1264261  18.5742637
 120.3482579  51.5099712  18.6902292 119.2241568  61.4328542  28.9248927
 119.1161923  61.4430604  29.7910985 119.4337350  62.2583322  28.7353881
 119.2391679  61.5569617  29.0253019 117.2415360  58.6841184  26.3870865
 116.6503294  59.3250682  26.3573880 118.0036384  59.1078801  26.3602164
 117.2663621  58.8417023  26.3786012 117.6375983  49.8443182  27.0538882
 118.0977465  49.9182111  27.7914006 117.6832090  50.6424436  26.7038704
 117.7126539  49.9737329  27.1111639 119.2859333  50.5109877  31.6210910
 118.8944898  49.8643224  32.0566687 119.4545196  51.1021312  32.2405165
 119.2530243  50.5024145  31.7773615 121.0612855  55.9035393  18.1613134
 121.8054900  56.2909669  18.3996083 121.2073551  55.0592818  18.3253621
 121.1923440  55.8365865  18.2207103 122.9792430  47.6985651  23.1944995
 122.1328476  47.8708459  23.0686345 122.9763563  46.8934995  23.5310823
 122.8539580  47.6046680  23.2256122 124.0490731  51.4760866  24.0607053
 123.5750685  50.9502628  24.5712364 124.4208867  50.9290339  23.4921914
 124.0340620  51.3176863  24.0522200 114.4263761  53.4732373  29.4290599
 115.2889374  53.3728082  29.3427928 114.0955544  52.8927082  28.8676171
 114.5048957  53.3723999  29.3336004 117.7865547  52.2974822  26.0901017
 117.1618617  52.3093214  25.4826970 117.4511142  52.7734997  26.7392257
 117.6451039  52.3693339  26.0957585 114.4991223  60.3575282  27.5304781
 113.9691147  59.6667721  27.5799756 114.7716316  60.3485467  26.7017490
 114.4615945  60.2542414  27.4152197 124.6997468  57.7998526  27.5043153
 124.0854461  57.2556577  27.7991788 125.2164753  57.2862763  27.0248969
 124.6853131  57.6434935  27.4767381 123.9393765  58.8702796  25.2387451
 123.5121373  58.2452515  24.8052887 123.9318710  58.5877718  26.0646459
 123.8752906  58.7355577  25.2967279 117.0556292  53.9067969  28.3075885
 117.2149779  53.1511294  28.7127607 116.8749186  54.4558909  28.9616623
 117.0521651  53.8761783  28.4638591 124.9976595  46.0729205  28.8626675
 124.5017157  46.2692879  28.1718242 125.7545657  46.4721873  28.6915476
 125.0363420  46.1606939  28.7346812 122.2679475  49.7471551  25.4529985
 122.2921962  49.2131663  24.7642765 122.5190949  49.2388860  26.1155576
 122.3089394  49.5932455  25.4494630 109.7787065  57.0303046  24.8873129
 109.6730514  56.9849890  24.0225213 109.0287285  57.3756826  25.1687414
 109.6522668  57.0743954  24.8010459 118.5480797  48.4742369  24.8335730
 118.5879169  48.9751576  25.5470437 117.7230462  48.5652763  24.5641653
 118.4320323  48.5624185  24.8986268 120.7310410  58.0403109  32.9356024
 119.8806041  58.1774823  33.0713669 120.8938538  57.3066887  33.3803726
 120.6294274  57.9517210  33.0211623 119.9695161  54.9902879  27.1309629
 119.1387090  55.1576697  26.9244877 119.9146678  54.6138830  27.9158514
 119.8384575  54.9592610  27.2158157 117.7778944  48.4811772  32.7666039
 118.4031647  47.9373905  33.0395472 117.3229424  48.0006689  32.1973830
 117.8027204  48.3301253  32.7227633 118.3431204  53.2658470  17.6599746
 118.4834165  53.7630935  18.3628388 118.8413737  52.5644765  17.8013960
 118.4372285  53.2360449  17.7851325 118.3731427  54.1325582  14.9892323
 119.0076506  54.7286007  14.9241785 118.4557038  53.8329039  15.8038193
 118.4787978  54.1766490  15.0995410 123.1807382  61.0858431  28.4836581
 122.6732474  61.6394278  28.9277212 122.8834029  61.1466721  27.6655356
 123.0612267  61.1764742  28.4285038 125.3469565  49.4511751  27.3261244
 125.7724636  48.9984277  26.7144771 124.7326558  48.8971822  27.6026032
 125.3198210  49.3025727  27.2766270 114.8784415  56.3293422  18.2581869
 115.3876644  56.9257930  18.6393175 115.3518687  56.0619396  17.5758289
 115.0227790  56.3779238  18.2136392 123.7863787  45.9226851  20.7351821
 123.1432105  45.7724497  21.3036960 123.4463194  45.6769196  19.9700926
 123.6408865  45.8638973  20.7054836 122.4249868  66.0182990  25.3893588
 122.2015522  65.2601819  25.7577615 121.9359711  66.0481011  24.6674028
 122.3193317  65.9105214  25.3370329 117.2374946  52.9649681  21.1255050
 116.5186936  53.3813813  21.3927913 117.6087309  53.5303920  20.5746688
 117.1866878  53.1098962  21.0837857 124.4820857  60.1864722  32.9405522
 124.4416712  59.5414399  32.3550678 125.2944175  60.1301339  33.2530934
 124.5964011  60.0823689  32.9002471 121.0728325  66.2383448  22.8430673
 120.6588723  65.5757578  22.4534514 121.7575699  66.3861306  22.3226367
 121.1126696  66.1624106  22.7087170 124.4393619  65.3973533  23.5954289
 124.0409902  65.5075803  22.8275110 123.8244838  65.6055599  24.1780849
 124.2892508  65.4447101  23.5685589 120.1698566  53.8161658  29.4955280
 119.6577469  53.2082841  29.8540311 119.9978062  54.5318251  29.9629255
 120.0688203  53.8324958  29.6171503 115.0164281  52.2599234  32.1457641
 114.8466871  52.9200608  31.6005848 114.5730230  52.4705795  32.8670130
 114.9263614  52.3885216  32.1719271 118.9424100  50.5003732  21.1884375
 119.4181466  50.8620811  20.5534556 118.4412699  51.1560199  21.4684518
 118.9389459  50.6497920  21.1361116 124.0467636  51.7385903  31.9357535
 124.6039066  51.5099712  31.3036000 123.7228701  52.4991569  31.6592747
 124.0814046  51.8169740  31.8014032 111.9166345  55.1646099  27.4046131
 111.3693064  54.4946745  27.5226999 112.7058723  54.7975947  27.4689598
 111.9518529  55.0111086  27.4314832 121.7650753  54.8253556  32.9009542
 122.5162080  55.1405233  33.2149096 121.9573330  54.6232727  32.0743464
 121.9042168  54.8420938  32.8252938 110.6753314  54.3766907  24.5592154
 110.4975076  53.9243516  25.2847070 110.3872337  55.1793068  24.7430632
 110.6066268  54.4289465  24.6935657 121.7835507  59.4822438  15.9466549
 120.9746830  59.1589111  15.8999858 122.2910416  58.7755660  15.8794798
 121.7385174  59.3303754  15.9296843 112.4125784  56.9094631  21.6713913
 111.5471304  56.8980321  21.5596684 112.5124600  56.7224854  22.5185053
 112.2999951  56.8800692  21.7802858 118.0382794  66.6792529  25.2444019
 118.3529353  67.4928918  25.2521801 118.4476208  66.2942748  25.9126178
 118.1450892  66.7421232  25.3448110 124.9907314  62.0962576  22.8147831
 125.4618492  62.8102839  22.9837816 125.3267492  61.4961326  23.3507700
 125.1102429  62.1134040  22.9180207 121.9076809  46.8690047  29.7705926
 122.0404714  46.0721040  30.0986901 122.2921962  47.3956450  30.3504201
 121.9833138  46.8289963  29.9049428 124.9809164  43.7920373  26.3687019
 124.1755128  43.6818102  26.6854857 124.8515899  43.8932828  25.5116885
 124.8429297  43.7904043  26.2895059 120.9769924  48.8706460  17.2385390
 121.7985618  49.0404772  16.9967085 120.5139575  49.0253720  16.5151688
 121.0301086  48.9188192  17.0957035 119.5665256  46.8649222  28.0183819
 120.1109669  46.5240349  28.6088161 119.6202191  47.7234683  28.1605104
 119.6554375  46.9404481  28.1265693 115.3795814  60.6265638  24.8922627
 115.9840672  60.5861472  24.2636448 115.1723127  61.4736790  24.9226683
 115.4384712  60.7453640  24.8038744 110.6147097  59.6100255  24.7621550
 110.5171375  58.7996527  25.0711607 111.3975966  59.5892049  24.3767818
 110.7163233  59.4867345  24.7508413 124.0243862  75.2073482  21.4833009
 123.7894046  74.3741135  21.3765278 124.1629503  75.4878148  20.6694210
 124.0099524  75.1256986  21.3475364 123.7946007  73.4322847  26.8742830
 123.5284423  72.6161964  27.0333820 123.8084571  73.4776002  26.0038346
 123.7570730  73.3179752  26.7696312 124.2039421  74.2181626  24.1554574
 124.0214994  74.1928512  23.3026867 124.9389090  74.6880564  24.1943483
 124.2853485  74.2842989  24.0352493 124.1710331  71.0975127  24.3053641
 124.7483834  70.9611578  24.9445886 123.4724393  70.6410911  24.5599225
 124.1531353  71.0097393  24.4375931 119.6469165  69.9487020  21.0201460
 119.7329416  69.5718888  21.8014990 120.2744962  69.5747466  20.5421418
 119.7525716  69.8372502  21.0646937 125.2345123  78.7178753  25.0732820
 125.2749268  78.9893604  24.2452600 125.7939647  79.2420661  25.4890608
 125.3228469  78.8354508  25.0124708 124.4031280  67.6229115  19.1484344
 124.5047416  68.4255276  19.4765319 125.1987167  67.4216451  18.8507424
 124.5359186  67.7115013  19.1519699 125.2195012  67.7376293  26.8905465
 125.0780504  66.8860234  27.0149973 125.5035575  67.7804954  26.0667671
 125.2402858  67.6176043  26.7873089 124.6808335  70.2422325  20.3363737
 125.0607299  70.6606870  19.6724005 124.1063699  70.8235781  20.6432581
 124.6519659  70.3900184  20.2840478 125.8014703  69.4302267  22.7963983
 125.4071401  69.5045279  22.0214092 125.2454820  69.8160213  23.3472344
 125.6617515  69.4984041  22.7631642 125.4723806  75.8760590  27.5304781
 124.9423731  75.1853029  27.5799756 125.7448899  75.8670775  26.7017490
 125.4348528  75.7727721  27.4152197 120.7519648  72.5488354  24.8873129
 120.6463097  72.5035198  24.0225213 120.0019868  72.8942134  25.1687414
 120.6255251  72.5929262  24.8010459 122.8898929  70.6831407  27.4046131
 122.3425648  70.0132053  27.5226999 123.6791307  70.3161255  27.4689598
 122.9251112  70.5296393  27.4314832 121.6485898  69.8952215  24.5592154
 121.4707659  69.4428824  25.2847070 121.3604920  70.6978376  24.7430632
 121.5798851  69.9474773  24.6935657 123.3858368  72.4279939  21.6713913
 122.5203887  72.4165629  21.5596684 123.4857184  72.2410162  22.5185053
 123.2732535  72.3986000  21.7802858 121.5879680  75.1285563  24.7621550
 121.4903958  74.3181835  25.0711607 122.3708550  75.1077357  24.3767818
 121.6895817  75.0052653  24.7508413   1.2290240  53.4641223  97.1952820
   1.1984244  54.3185860  97.3671090   1.8271589  53.1636516  97.7538964
   1.3127398  53.5457720  97.3027623   3.1602606  58.9632268 100.6516200
   2.3300309  59.1742912 100.8149616   3.1111859  58.1369323 100.3758483
   3.0309342  58.8721875 100.6353565   2.6556565  51.6102669 104.4466621
   1.8184986  51.6804856 104.6814216   2.6244795  51.6127164 103.5740923
   2.5274847  51.6212896 104.3526169   3.5511268  56.3512543  99.6800553
   4.2127702  55.7903211  99.5796461   2.9102680  55.8564573 100.0053244
   3.5540135  56.1948952  99.7132893   1.6666555  56.2079591  97.2582145
   1.9974772  56.7407231  96.6522240   2.2399643  56.2618479  97.9144096
   1.8000234  56.2949160  97.2659927   2.7745907  51.4490088  98.7622307
   2.5182471  50.6370029  98.5720190   3.6175221  51.4567655  98.5352494
   2.8611932  51.3302085  98.7007124   1.4807487  58.3884133 104.6609154
   1.1753304  59.1212190 105.0222470   0.7613702  57.9822062 104.3801940
   1.3294829  58.4365866 104.6722291   7.1809279  55.0277133 103.9877498
   7.1133779  55.0473093 103.1180085   7.1664941  55.8707461 104.2133169
   7.1688035  55.1550868 103.8929975   4.9667896  53.8021520 102.2624093
   5.5175818  53.1689589 102.5021185   4.9512011  54.3336912 102.9539597
   5.0453092  53.7870468 102.4002951   1.0644791  55.1677425 100.5349474
   0.9778766  55.3232851 101.3884252   0.6095271  55.8115500 100.1608879
   0.9848048  55.2853180 100.6056580   3.8975369  56.9477051 105.5073223
   3.9558492  57.3963699 106.2533199   3.2641836  57.3575863 105.0703303
   3.8126664  57.0750785 105.5525771   0.8497048  54.9693338 103.5938913
   0.6095271  54.1299754 103.5981339   1.3289055  55.0493505 104.3179686
   0.8849232  54.8574738 103.7013715   2.8502235  51.7494796 101.5468172
   2.6112005  51.7090630 100.7088957   3.0136136  52.5965948 101.6733893
   2.8392539  51.8686881 101.4421654   1.8883579  55.0971156 105.9803767
   2.4801420  55.7368406 106.0121965   2.3242574  54.3994192 106.2695834
   2.0402011  55.0889506 106.0284600   2.7105048  58.4055596  95.1022460
   3.0938654  59.1546953  95.3320557   1.9149161  58.6521416  94.8434449
   2.6498830  58.5525290  95.0980033  12.2022824  68.9826531  97.1952820
  12.1716828  69.8371168  97.3671090  12.8004172  68.6821824  97.7538964
  12.2859982  69.0643028  97.3027623   5.4022508  68.0702182 101.9505751
   4.5460404  68.2310681 102.0014868   5.4490162  67.1994246 101.9710812
   5.2821620  67.9652984 101.9611817   8.7116225  74.3388708 111.5566207
   9.4182992  73.8440739 111.6853141   8.9004160  74.7797790 110.8268865
   8.8444131  74.3307058 111.4675253   5.2388608  78.0290270  93.1428530
   4.9039977  78.7067191  92.7072752   5.7515478  77.6395581  92.5545401
   5.2654189  78.0714848  92.9915321   4.7792899  79.9804538  99.0839641
   5.1632279  80.5491437  98.5444416   4.7152041  79.2554049  98.6045457
   4.8266327  79.9580002  98.9333504   8.2474329  70.1294226 104.5937403
   8.7930290  70.8079313 104.6531372   8.1891206  69.9881687 103.7338984
   8.3190244  70.2086228 104.4749463   1.3648404  77.6183292  99.9805755
   1.4658767  76.8083646 100.2902883   0.7690150  77.5240239  99.3505434
   1.2920943  77.4848321  99.9331993  10.0239398  71.5578833  95.4671130
   9.9078924  72.3086520  95.8963268  10.8195285  71.3002787  95.7167217
  10.1243988  71.6313680  95.5675222   1.2049144  82.5360882 101.3820611
   1.8486599  82.9774046 101.7716769   1.5305399  81.7314308 101.2950870
   1.3480973  82.4826076 101.4266088   1.9069724  75.5472856  96.7540473
   2.2285565  76.0878064  96.1501781   2.5541820  74.9769628  96.8862763
   2.0495779  75.5432032  96.6847508   3.9571432  67.5488851  96.8374859
   4.6551596  67.7276979  97.3296323   4.2723764  67.0259191  96.2145249
   4.1066769  67.4982624  96.8176870   4.1459367  73.9359296  96.8254651
   4.5853003  73.3276397  97.2709424   3.9964030  73.5566670  96.0540116
   4.1880833  73.7897768  96.7773818   1.6131010  72.5303308 104.0273476
   2.2580013  72.0375751 103.7084425   1.8532787  72.6728095 104.8539555
   1.7441595  72.4780750 104.1023010   4.1517101  75.3758214 103.6780369
   4.4340344  74.5809620 103.4567125   4.8803262  75.8538802 103.6985430
   4.3006665  75.3292811 103.6483384   2.1298295  62.9181248 100.9196134
   1.8001625  63.3692392 100.2499833   1.4543297  62.8397411 101.4669141
   1.9808732  62.9732383 100.9019357   7.7468704  72.2886478  93.7785420
   7.6619999  73.1447444  93.9234989   8.2353087  72.0130802  94.4467579
   7.8057601  72.3743799  93.8987502   9.3374703  58.9066771  99.1645745
   9.0228144  59.5970250  99.5966167   8.8201645  58.8511553  98.4631245
   9.2139174  59.0001660  99.1242694   8.6787137  68.9071272  95.2783155
   8.1498608  69.1230905  95.9380462   9.2012157  69.6007410  95.1984125
   8.6775590  69.0414409  95.3638755  14.1335190  74.4817576 100.6516200
  13.3032893  74.6928220 100.8149616  14.0844442  73.6554631 100.3758483
  14.0041925  74.3907183 100.6353565   2.1944927  77.3121431 103.4864109
   1.6771869  76.9528846 102.8825417   2.8919319  76.7883605 103.4970175
   2.2210509  77.1819118 103.3994368   5.0263959  69.0500141  92.5559544
   5.2659963  69.2578124  91.7434887   5.3479800  68.2457649  92.6648488
   5.1101117  68.9614242  92.4520097  13.6289148  67.1287977 104.4466621
  12.7917569  67.1990164 104.6814216  13.5977379  67.1312472 103.5740923
  13.5007431  67.1398204 104.3526169   4.3711033  60.3890266  96.1346219
   5.0997194  60.2106221  95.6884375   4.4605926  61.2308346  96.3453397
   4.4917695  60.4874145  96.0999736   8.3519334  71.3243654 100.0378513
   9.1076849  71.7575168 100.0767421   8.4581658  70.6748423 100.6113149
   8.4789504  71.2921137 100.1276538  11.3899505  75.1516931 100.7880916
  10.9534737  75.1553673 101.5439887  11.0562420  75.8322430 100.3560493
  11.2762125  75.2529387 100.8361748  11.3096988  62.1930759 103.0310343
  11.9522896  62.2628863 103.6172259  11.5620009  61.5259981 102.5289885
  11.4419120  62.1057107 103.0437623   6.1198972  79.1035366 105.7590521
   5.3214218  78.8634866 106.0164390   6.5684983  79.1549759 106.5057569
   6.0673583  79.0757757 105.9075446  14.5243851  71.8697851  99.6800553
  15.1860285  71.3088519  99.5796461  13.8835263  71.3749881 100.0053244
  14.5272719  71.7134260  99.7132893   5.4120659  75.1667982  91.9881476
   5.8271807  74.8353006  91.2965972   4.5812589  74.9336884  91.8601613
   5.3508668  75.0839238  91.8672323  10.8108682  72.8863233  99.4212542
  11.0464271  73.0308432  98.5939392  10.9598246  73.6505641  99.8144055
  10.8674485  73.0202287  99.3576145  12.6399139  71.7264899  97.2582145
  12.9707356  72.2592539  96.6522240  13.2132227  71.7803787  97.9144096
  12.7732818  71.8134468  97.2659927   7.8531028  69.5729802  97.9405725
   7.9477882  70.3119096  98.3945351   7.2289871  69.1447277  98.3740290
   7.7740058  69.6191122  98.0713873   6.1083502  72.7516014 108.5896006
   6.6822363  72.1143259 108.7444570   6.0298305  72.7520097 107.7205664
   6.1816736  72.6581126 108.4842417   8.1054049  71.4178542  91.1742678
   8.0234212  71.4880729  92.0397664   8.7433770  71.9808285  90.9826418
   8.1873886  71.5117513  91.2732627   1.4647220  71.1839279 100.6417204
   1.2066465  70.3511014 100.6148503   1.5195703  71.4096892  99.8009704
   1.4346998  71.0937051 100.5137341   6.5448270  63.2867730 100.7421296
   5.8404597  62.7976916 100.9005216   6.5933245  63.2990205  99.8709741
   6.4478322  63.2157378 100.6360636   4.1055221  67.2100391 105.9874477
   3.7169654  66.7854609 105.3326668   3.4409919  67.4582541 106.4951504
   3.9502149  67.1839112 105.9662345  13.7478490  66.9675396  98.7622307
  13.4915055  66.1555337  98.5720190  14.5907804  66.9752963  98.5352494
  13.8344516  66.8487393  98.7007124   7.9281583  60.9075020 103.4998461
   8.3092094  60.2253191 103.8866335   7.1244867  60.6184622 103.3174126
   7.8658044  60.7642068 103.5302517   5.2094159  71.4398996  94.1851284
   6.0234798  71.7313889  94.0734055   5.1453301  70.7858858  93.6109577
   5.3196898  71.3864191  94.0840121  11.4303649  74.1224992 108.5980860
  11.1942287  73.2913057 108.4792920  12.0746878  74.0710599 109.1835704
  11.4898320  73.9922680 108.6666753   1.0802068  74.9120513  99.3123596
   1.7176014  74.6732261  99.8575389   1.5057139  75.1157672  98.5776757
   1.2378234  74.9071523  99.2840753   1.7204883  70.1322803  93.6498485
   2.1050035  69.9130510  94.4015031   1.4716503  70.9585748  93.7799562
   1.7406955  70.2220949  93.7799562   1.8873423  63.4129218 113.3661070
   1.5726864  64.1828781 113.1030632   1.5663356  62.8499474 112.7813297
   1.7932342  63.4439487 113.2402420  12.4540070  73.9069441 104.6609154
  12.1485887  74.6397498 105.0222470  11.7346286  73.5007370 104.3801940
  12.3027412  73.9551174 104.6722291   3.4623540  75.3892936 100.9917382
   3.5362548  75.2268108 101.8459232   4.2793046  75.5783125 100.7477864
   3.5939898  75.3929678 101.0815408  18.1541862  70.5462441 103.9877498
  18.0866363  70.5658400 103.1180085  18.1397525  71.3892769 104.2133169
  18.1420619  70.6736176 103.8929975   8.5638209  61.9497599 107.3118588
   9.3091801  61.7607409 106.8982013   8.1475513  62.4755837 106.7532444
   8.6123183  61.9999744 107.1683161   2.0028125  78.3527679  95.7230856
   2.2926424  77.9616660  94.9990082   2.7331606  78.5344384  96.1636131
   2.1535009  78.3221493  95.6813663  15.9400480  69.3206828 102.2624093
  16.4908401  68.6874897 102.5021185  15.9244595  69.8522220 102.9539597
  16.0185676  69.3055776 102.4002951   2.5922870  73.1545425 106.8083986
   2.0934564  73.8661193 106.8868875   3.4023095  73.4746091 106.7702149
   2.6378977  73.3072273 106.8140555   9.6428886  67.5603161 101.3728689
   9.2993652  66.8393496 101.7235939   9.7421928  67.3517012 100.5307047
   9.6070929  67.4227364 101.3000369   2.1101997  81.7024451  97.5721698
   2.7626055  81.1700894  97.8012724   1.4127605  81.3493104  97.9589572
   2.1032715  81.5713974  97.6633866  10.1041915  74.0228865  96.9152677
  10.6699948  74.6822075  96.8311220   9.4569818  74.3678563  97.3869079
  10.0920671  74.1710807  96.9725434   1.5189928  66.0126469 112.1046284
   0.7089704  66.3184249 111.9936127   1.9964615  66.7332052 112.2198869
   1.4693407  66.1641070 112.1053356   6.5748493  76.9667649  96.3389756
   6.3335169  76.2335510  95.9316821   6.7549826  77.5154506  95.6856090
   6.5656117  76.9390041  96.1819979   1.8047814  72.2576209  97.7510679
   1.6090596  72.8650944  97.1570982   2.0282159  71.5644153  97.2702353
   1.8082455  72.2453735  97.5926759   8.1619851  65.4794746 103.2488232
   7.3230952  65.5056025 103.0126495   8.2324218  66.1265481 103.8293579
   8.0488245  65.5790872 103.2997349   6.6089129  62.3780123  97.9815848
   7.3115482  62.1787871  97.5035806   6.3433318  61.6056065  98.2884691
   6.6735762  62.2343089  97.9561289  12.0377375  70.6862733 100.5349474
  11.9511350  70.8418159 101.3884252  11.5827855  71.3300808 100.1608879
  11.9580632  70.8038488 100.6056580   1.3717686  63.6415408 107.0346728
   1.1800883  63.6570543 107.8846152   2.2216282  63.8379082 107.0113383
   1.4693408  63.6729759 107.1570023   5.9103191  68.0073480  99.1575033
   5.6637905  67.9269231  99.9911822   6.2388314  67.2226948  98.9637561
   5.9224435  67.8799745  99.2522556   9.8051240  74.7156839 102.9461814
   9.6665599  75.4137885 103.4510557   9.0251238  74.5605496 102.5897996
   9.6694467  74.7957006 102.9688089   8.1429325  71.0153215 109.1984196
   8.1377364  70.1433031 109.2026623   8.8490319  71.2141384 108.7253652
   8.2474329  70.9157089 109.1291231   1.8700218  70.7430198 108.5698016
   2.0143594  71.3231407 107.9341126   2.2175867  71.1206495 109.2747871
   1.9427680  70.8850902 108.5797011   4.0420136  69.9420367 106.3523148
   3.2943450  70.1351381 105.9471426   4.1961661  69.1165586 106.1147269
   3.9542563  69.8485478 106.2568554  11.3004613  74.0735093  93.7078314
  10.9211421  73.2872231  93.7007603  10.6370858  74.6221950  93.5649958
  11.1463088  74.0379917  93.6859110   4.2821913  63.8370918 107.2418552
   4.7394527  64.5694892 107.3691344   4.3578242  63.4137383 108.0005807
   4.3612883  63.8828156 107.3719628   8.7549239  57.0160793 101.1112394
   8.8732807  57.4737256 100.3779697   8.5811414  56.2106054 100.8248612
   8.7468410  56.9654565 100.9613328   4.1251521  77.6248612  97.5467140
   4.8901412  77.3558256  97.2249804   4.0229611  77.1398622  98.2637203
   4.2233016  77.5138177  97.6046967   2.1604291  65.8273021 104.0860376
   1.3700365  65.6464482 104.4077711   2.5564914  65.0499974 104.0690670
   2.1021167  65.6860482 104.1312924   6.6470181  74.6560796  89.5267089
   7.4143167  74.7160921  89.1172941   6.2001490  74.0841237  89.0423408
   6.6943609  74.5797371  89.3944799   7.5447977  73.4615452 101.8119821
   6.8692979  73.2300684 102.3133209   7.5540353  72.8536635 101.1861927
   7.4466482  73.3374377 101.7935974   4.6742121  68.3033281 108.5683874
   4.6101262  69.1643237 108.4404011   4.8139309  67.9865274 107.7679426
   4.6857591  68.3833447 108.4312087   9.5464712  76.3180584  94.0429999
   9.6284549  77.1247570  93.7191450  10.0314454  76.3376543  94.7670773
   9.6301869  76.4401246  94.1016898   3.3561215  70.9965420 102.7100077
   2.9323464  71.1969919 101.9739096   3.1806070  70.1494268 102.8224377
   3.2672095  70.9014201 102.6173767   5.1822804  70.8675355  97.0121413
   5.7238350  70.3645736  97.4760034   5.4969363  70.8140550  96.2010898
   5.3087202  70.7854776  96.9605225   3.3509254  76.2592706  94.2961441
   3.4202074  75.4007245  94.4354442   4.1297709  76.4764587  93.9680466
   3.4762104  76.1645570  94.2678598   6.3312074  65.7611659 107.0643714
   6.5454043  65.1222574 106.5107068   5.7145973  66.2057483 106.6351575
   6.2717403  65.7321803 106.9194145   7.7416742  78.6830408  98.5097934
   7.3496533  78.3797123  97.7920801   7.8969814  79.5199498  98.3202888
   7.7070332  78.7614244  98.3754432   8.4951162  67.3700725 108.0027021
   7.6827844  67.0626615 108.0840193   8.9541096  66.8899725 108.5669733
   8.4431547  67.2537217 108.0981615   7.9056416  75.2480397  98.4503965
   7.5471071  75.4195039  99.2267997   7.4195127  75.7093602  97.8931964
   7.7815113  75.3419368  98.4829234   5.7226802  58.8711595 102.0531056
   4.8520360  58.8450316 102.0064366   5.9767144  58.6988787 101.2356902
   5.6320363  58.8421739 101.9251193   2.6944782  70.9279562  90.9904199
   2.9837307  71.7044445  91.2647774   2.7816581  70.4168293  91.6918699
   2.7499038  70.9671480  91.1346697   5.5904669  68.7760796 112.7855723
   6.0604300  69.4002912 113.1723597   5.6366549  68.1077772 113.3448938
   5.6672545  68.7695476 112.9255794   2.7475943  60.8817824 103.5104527
   2.2314432  60.1898015 103.6356106   2.1869872  61.5488601 103.4567125
   2.5882456  60.8781081 103.5210593   4.8168176  61.4210784 105.3397379
   4.4299930  61.4459815 106.1210909   4.3301114  60.8552462 104.8871896
   4.6880685  61.3406534 105.3885283   9.0661156  76.1384293 109.3971166
   9.7040876  75.6444488 109.0633622   8.4235247  76.0661693 108.8123393
   9.0655382  76.0543301 109.2613521  10.7918156  67.9873439 103.9637082
  10.3645764  67.8999787 103.2085181  10.1544209  68.0951214 104.5491926
  10.6347763  67.9906098 103.9382523   4.4825318  58.3077769 107.6307639
   5.1118436  58.8438069 107.3528710   4.6511181  58.2155128 108.4821205
   4.6003113  58.3739131 107.7156167   4.2839233  63.0948964 109.9034051
   5.1112662  62.8234113 109.9592665   4.3047079  63.8909805 110.2597869
   4.4092083  63.1728718 109.9649234   9.1215412  76.8304101 106.0376523
   9.9107791  76.4793166 106.1578604   9.2959010  77.6440489 105.7753156
   9.2635694  76.8989958 106.0164391   7.9749237  60.8413658 100.5992941
   8.1798830  60.7735965 101.4449938   7.6475661  61.6472479 100.5314118
   7.9564485  60.9499598 100.7152596   2.6725388  68.1694226 102.3401909
   2.3688525  67.6150214 102.9412317   1.9704808  68.3486436 101.8529943
   2.5241598  68.1139008 102.3571615   1.7291485  65.4794746  96.9046611
   2.0051219  64.7613658  96.4924178   2.3290154  66.0779665  96.6967717
   1.8584749  65.4615116  96.8127372  11.2282924  61.3945422 100.0795706
  10.6157238  61.8815824 100.4649438  11.3247099  60.7188913 100.6233358
  11.1520822  61.3663731 100.2174565   5.2302005  63.1508263  95.1793206
   5.6845752  63.3218823  95.9041050   5.7042051  62.5376374  94.7790982
   5.3670325  63.0859148  95.2266967  14.8707952  72.4662359 105.5073223
  14.9291076  72.9149007 106.2533199  14.2374420  72.8761171 105.0703303
  14.7859247  72.5936093 105.5525771   8.5107047  78.0865900 101.9427969
   8.3126736  78.5756715 101.2484180   7.8894758  78.2907142 102.5212102
   8.3894611  78.1882439 101.9251192   2.5715025  69.8550797  96.2838213
   3.3157070  70.2425074  96.5221163   2.7175721  69.0108223  96.4478701
   2.7025610  69.7881270  96.3432183   4.4894601  61.6501056 101.3170075
   3.6430646  61.8223864 101.1911424   4.4865733  60.8450400 101.6535903
   4.3641751  61.5562085 101.3481201   5.5592901  65.4276271 102.1832132
   5.0852855  64.9018033 102.6937443   5.9311037  64.8805743 101.6146994
   5.5442790  65.2692267 102.1747280  11.8229632  70.4878646 103.5938913
  11.5827855  69.6485061 103.5981339  12.3021639  70.5678813 104.3179686
  11.8581815  70.3760046 103.7013715   7.4876401  66.3212825  95.2457886
   6.9599419  66.4041569  94.5563595   7.9472109  67.0630697  95.2422531
   7.4778251  66.4433488  95.1432581  13.8234819  67.2680103 101.5468172
  13.5844589  67.2275938 100.7088957  13.9868720  68.1151256 101.6733893
  13.8125122  67.3872188 101.4421654  10.4280849  71.6530053 107.4773217
  11.1515048  71.2002579 107.2984237  10.1630811  71.9334718 106.6945545
  10.4962122  71.6281021 107.3351933   7.0413483  74.8916389  94.3767543
   7.7647682  75.3574502  94.2332117   6.6014074  74.9589998  93.6265140
   7.0829176  74.9700225  94.2452325   6.2099638  71.7513931 105.6268232
   5.5956632  71.2071981 105.9216868   6.7266923  71.2378167 105.1474048
   6.1955301  71.5950340 105.5992461   5.4495936  72.8218201 103.3612531
   5.0223544  72.1967920 102.9277966   5.4420880  72.5393123 104.1871538
   5.3855077  72.6870982 103.4192358   6.5078766  60.0244610 106.9851754
   6.0119327  60.2208284 106.2943321   7.2647828  60.4237278 106.8140556
   6.5465590  60.1122343 106.8571891   3.7781645  63.6986956 103.5755065
   3.8024132  63.1647068 102.8867845   4.0293119  63.1904264 104.2380655
   3.8191564  63.5447860 103.5719710   1.4797331  68.9418284 105.2534708
   0.6489261  69.1092102 105.0469956   1.4248848  68.5654234 106.0383594
   1.3486746  68.9108015 105.3383236  12.8616163  70.6156464 105.9803767
  13.4534003  71.2553714 106.0121965  13.2975157  69.9179500 106.2695834
  13.0134594  70.6074814 106.0284600   1.4612580  64.0154962  93.0862845
   1.7828421  63.5358044  92.4322107   1.7239524  64.8254608  92.8953656
   1.5478605  64.0644860  92.9618337   4.6909553  75.0373836 106.6061661
   4.1834644  75.5909683 107.0502291   4.3936199  75.0982126 105.7880435
   4.5714438  75.1280147 106.5510118   6.8571735  63.4027156 105.4486324
   7.2826806  62.9499682 104.8369850   6.2428728  62.8487226 105.7251111
   6.8300380  63.2541132 105.3991349   7.3017333  78.9537094  94.5365604
   6.5846643  78.7797956  94.0712842   7.9524071  78.7189666  94.0041090
   7.2919184  78.8932886  94.3894822   5.2965958  59.8742255  98.8576901
   4.6534276  59.7239902  99.4262039   4.9565365  59.6284601  98.0926005
   5.1511035  59.8154378  98.8279916   9.8865304  67.8301682  98.2806909
   9.2156494  68.3731384  98.1519975  10.5805054  68.2996538  98.0388604
   9.8894172  67.9799953  98.2262437   3.9352038  79.9698394 103.5118668
   3.7117692  79.2117223 103.8802694   3.4461881  79.9996415 102.7899107
   3.8295487  79.8620619 103.4595409  10.0493432  64.2857566 101.1897283
  10.4021042  63.8587289 101.8643081   9.1908233  64.2008409 101.3198359
   9.9742876  64.2102307 101.3092293   8.0476698  67.5492934 105.1382125
   8.0274625  67.3676230 105.9916904   8.0955898  68.4204953 105.1141709
   8.0511339  67.6509473 105.2605420   5.9923027  74.1380126 111.0630601
   5.9518882  73.4929803 110.4775757   6.8046346  74.0816744 111.3756014
   6.1066181  74.0339093 111.0227551   2.5830495  80.1898852 100.9655752
   2.1690894  79.5272983 100.5759594   3.2677869  80.3376711 100.4451447
   2.6228867  80.1139511 100.8312250   5.9495789  79.3488938 101.7179369
   5.5512072  79.4591208 100.9500189   5.3347009  79.5571004 102.3005929
   5.7994678  79.3962506 101.6910668   4.5223691  65.9563085  94.5853509
   3.9288530  66.2780082  94.0338076   4.5598969  65.1104181  94.3774615
   4.4398080  65.8787414  94.4736280  11.4817492  59.4075978 102.1181595
  10.9748356  58.7005117 102.0502773  12.2784926  59.0769167 102.2482672
  11.5244731  59.2549129 102.1280590   7.3981508  65.9142590  98.0155259
   7.1695201  65.9375291  97.1733617   7.6579584  65.0900057  98.1350269
   7.4027696  65.7958670  97.9080457   1.6800736  67.7677063 107.6180359
   1.1679639  67.1598246 107.9765390   1.5080232  68.4833656 108.0854335
   1.5790373  67.7840362 107.7396583  13.6837632  73.9240904  95.1022460
  14.0671238  74.6732260  95.3320557  12.8881745  74.1706724  94.8434449
  13.6231414  74.0710598  95.0980033   5.5569806  65.6901308 110.0582615
   6.1141237  65.4615117 109.4261080   5.2330871  66.4506973 109.7817827
   5.5916217  65.7685144 109.9239112   3.2752924  68.7768961 111.0234622
   4.0264251  69.0920638 111.3374176   3.4675500  68.5748132 110.1968544
   3.4144338  68.7936343 110.9478018   2.4952923  66.5960336  92.6782839
   2.8751888  66.6139965  91.8933953   1.7545519  67.0414325  92.5573686
   2.4421761  66.6642111  92.5446407  10.1238214  64.9042527  98.2658417
  10.1232440  64.7491184  99.1242694   9.9194394  65.7505514  98.2099803
  10.0937992  65.0063148  98.3846357   7.8479066  69.5840029 101.9194624
   8.3432731  68.8663024 101.8798644   7.0378842  69.2810827 101.8049111
   7.8022959  69.4337675 101.8968350   3.2937677  73.4337842  94.0691629
   2.4849000  73.1104516  94.0224938   3.8012586  72.7271064  94.0019877
   3.2487344  73.2819159  94.0521923   9.9130885  72.3343717 104.6071753
  10.3385956  71.8118138 104.0542178   9.5487805  72.9324554 104.0860376
   9.9217487  72.3453944 104.4480763   6.5009484  76.0477981 100.9372910
   6.9720662  76.7618243 101.1062896   6.8369663  75.4476731 101.4732780
   6.6204599  76.0649445 101.0405286   3.4178979  60.8205451 107.8931005
   3.5506885  60.0236445 108.2211981   3.8024132  61.3471854 108.4729281
   3.4935308  60.7805368 108.0274508   7.1383431  75.8395915 107.7000603
   6.5904376  75.2153799 107.4320668   7.5996459  76.0290187 106.9844682
   7.1250640  75.7754965 107.5551034   6.4911334  57.7435778 104.4912098
   5.6857298  57.6333507 104.8079937   6.3618070  57.8448233 103.6341964
   6.3531467  57.7419448 104.4120139   9.9477295  63.9081269 105.0851795
   9.3640284  64.4090476 104.6729363  10.2681589  63.4010826 104.4516119
   9.9090470  63.9073104 104.9310302   2.4872094  62.8221864  95.3610470
   3.3087788  62.9920177  95.1192165   2.0241745  62.9769125  94.6376768
   2.5403256  62.8703597  95.2182114   1.0767426  60.8164626 106.1408899
   1.6211839  60.4755753 106.7313241   1.1304362  61.6750088 106.2830183
   1.1656545  60.8919886 106.2490772   6.7041757  76.8446988 104.2309944
   7.5240131  76.7009954 104.4926239   6.4235834  77.4693187 104.7726382
   6.7838500  76.9157340 104.3497884  23.1755407  84.5011839  97.1952820
  23.1449412  85.3556476  97.3671090  23.7736756  84.2007132  97.7538964
  23.2592565  84.5828336  97.3027623  16.3755092  83.5887490 101.9505751
  15.5192988  83.7495989 102.0014868  16.4222746  82.7179554 101.9710812
  16.2554203  83.4838292 101.9611817  10.7596232  93.1250208  97.7142982
  10.0079131  92.7465747  97.4859028  11.2082243  93.1568642  96.9661793
  10.7145899  93.0735815  97.5700485  19.6848809  89.8574016 111.5566207
  20.3915576  89.3626047 111.6853141  19.8736744  90.2983097 110.8268865
  19.8176714  89.8492366 111.4675253  16.2121192  93.5475578  93.1428530
  15.8772560  94.2252499  92.7072752  16.7248062  93.1580889  92.5545401
  16.2386773  93.5900156  92.9915321  15.7525483  95.4989846  99.0839641
  16.1364862  96.0676745  98.5444416  15.6884624  94.7739357  98.6045457
  15.7998910  95.4765310  98.9333504  19.2206913  85.6479534 104.5937403
  19.7662873  86.3264621 104.6531372  19.1623789  85.5066995 103.7338984
  19.2922827  85.7271536 104.4749463  12.3380988  93.1368600  99.9805755
  12.4391351  92.3268954 100.2902883  11.7422733  93.0425547  99.3505434
  12.2653527  93.0033628  99.9331993  20.9971982  87.0764141  95.4671130
  20.8811508  87.8271827  95.8963268  21.7927868  86.8188095  95.7167217
  21.0976571  87.1498988  95.5675222  12.1781728  98.0546190 101.3820611
  12.8219183  98.4959354 101.7716769  12.5037983  97.2499616 101.2950870
  12.3213556  98.0011384 101.4266088   5.5346032  89.1588887  99.6058089
   5.2996217  88.3256539  99.4990357   5.6731673  89.4393553  98.7919290
   5.5201695  89.0772390  99.4700444   7.8336120  81.3274618 102.5042396
   7.2141151  80.7367265 102.3352411   7.7319983  81.9186053 101.8706720
   7.7273795  81.3278700 102.3847386  12.8802307  91.0658164  96.7540473
  13.2018148  91.6063372  96.1501781  13.5274404  90.4954936  96.8862763
  13.0228362  91.0617340  96.6847508  14.9304015  83.0674159  96.8374859
  15.6284180  83.2462287  97.3296323  15.2456348  82.5444499  96.2145249
  15.0799352  83.0167931  96.8176870   7.5605253  84.8726899 104.7485965
   7.4363950  85.4589345 105.3835784   8.2123537  84.3787095 105.0498240
   7.6378902  84.8865704 104.8871895  15.1191951  89.4544604  96.8254651
  15.5585586  88.8461705  97.2709424  14.9696614  89.0751978  96.0540116
  15.1613416  89.3083075  96.7773818  12.5863594  88.0488616 104.0273476
  13.2312596  87.5561059 103.7084425  12.8265371  88.1913403 104.8539555
  12.7174179  87.9966058 104.1023010  15.1249685  90.8943522 103.6780369
  15.4072928  90.0994928 103.4567125  15.8535845  91.3724110 103.6985430
  15.2739249  90.8478119 103.6483384  13.1030879  78.4366556 100.9196134
  12.7734209  78.8877700 100.2499833  12.4275881  78.3582719 101.4669141
  12.9541315  78.4917691 100.9019357  18.7201287  87.8071786  93.7785420
  18.6352582  88.6632752  93.9234989  19.2085670  87.5316110  94.4467579
  18.7790185  87.8929107  93.8987502  20.3107287  74.4252079  99.1645745
  19.9960728  75.1155557  99.5966167  19.7934228  74.3696861  98.4631245
  20.1871757  74.5186967  99.1242694  19.6519720  84.4256580  95.2783155
  19.1231192  84.6416213  95.9380462  20.1744740  85.1192718  95.1984125
  19.6508173  84.5599717  95.3638755  25.1067773  90.0002884 100.6516200
  24.2765476  90.2113528 100.8149616  25.0577026  89.1739939 100.3758483
  24.9774509  89.9092491 100.6353565  11.5419328  88.3219797  94.0790623
  10.9576543  88.8269828  94.4856487  11.1389423  88.0962184  93.3387215
  11.3958632  88.3628045  94.0295649  13.1677511  92.8306738 103.4864109
  12.6504453  92.4714153 102.8825417  13.8651902  92.3068913 103.4970175
  13.1943092  92.7004426 103.3994368  15.9996543  84.5685449  92.5559544
  16.2392546  84.7763432  91.7434887  16.3212384  83.7642957  92.6648488
  16.0833701  84.4799550  92.4520097  11.3086833  76.4978844  96.4019082
  12.0632801  76.8657161  96.1636132  11.1314368  76.8718399  97.1698261
  11.3941311  76.6077032  96.4803970   9.9507554  94.5530734 101.0334575
  10.6528133  94.0382723 101.0907331   9.8705037  94.8804885 101.8381450
  10.0431315  94.5244960 101.1607367  24.6021732  82.6473285 104.4466621
  23.7650153  82.7175472 104.6814216  24.5709963  82.6497780 103.5740923
  24.4740014  82.6583512 104.3526169   9.6643898  78.9049163  93.0997195
   9.4819471  79.1221044  92.2738188  10.5269511  79.0188176  93.1555809
   9.7648487  78.9539061  92.9851682   9.2758330  90.7437086 100.5420183
  10.1147229  90.9760018 100.5893944   9.3070099  89.8741397 100.4727218
   9.4040047  90.6494032 100.5384827  15.3443617  75.9075574  96.1346219
  16.0729777  75.7291529  95.6884375  15.4338510  76.7493654  96.3453397
  15.4650279  76.0059452  96.0999736  19.3251917  86.8428961 100.0378513
  20.0809433  87.2760476 100.0767421  19.4314242  86.1933731 100.6113149
  19.4522088  86.8106445 100.1276538  22.3632089  90.6702239 100.7880916
  21.9267320  90.6738981 101.5439887  22.0295004  91.3507738 100.3560493
  22.2494709  90.7714694 100.8361748  22.2829571  77.7116067 103.0310343
  22.9255480  77.7814171 103.6172259  22.5352592  77.0445289 102.5289885
  22.4151704  77.6242415 103.0437623   9.2105925  82.1823336  91.6119668
   8.4964102  81.8961516  92.0242100   9.6949893  82.5219962  92.2526055
   9.1765288  82.1904986  91.7675303  10.0546784  80.9216630 107.6434917
   9.3618581  80.4513610 107.8895649  10.6707111  80.6954934 108.2176625
  10.0431314  80.8183762 107.7644070  17.0931556  94.6220674 105.7590521
  16.2946801  94.3820174 106.0164390  17.5417567  94.6735066 106.5057569
  17.0406167  94.5943065 105.9075446  25.4976435  87.3883159  99.6800553
  26.1592869  86.8273827  99.5796461  24.8567847  86.8935189 100.0053244
  25.5005302  87.2319568  99.7132893  16.3853243  90.6853290  91.9881476
  16.8004391  90.3538314  91.2965972  15.5545172  90.4522192  91.8601613
  16.3241251  90.6024546  91.8672323   5.7141591  88.1697031 102.2779654
   5.5317165  88.1443917 101.4251946   6.4491260  88.6395969 102.3168563
   5.7955655  88.2358393 102.1577572  21.7841266  88.4048541  99.4212542
  22.0196855  88.5493740  98.5939392  21.9330829  89.1690949  99.8144055
  21.8407069  88.5387595  99.3576145  23.6131722  87.2450207  97.2582145
  23.9439939  87.7777847  96.6522240  24.1864810  87.2989095  97.9144096
  23.7465401  87.3319776  97.2659927  18.8263611  85.0915110  97.9405725
  18.9210466  85.8304404  98.3945351  18.2022455  84.6632585  98.3740290
  18.7472641  85.1376430  98.0713873  17.0816085  88.2701322 108.5896006
  17.6554947  87.6328566 108.7444570  17.0030889  88.2705405 107.7205664
  17.1549320  88.1766434 108.4842417   5.6812502  85.0490532 102.4278721
   6.2586004  84.9126982 103.0670966   4.9826563  84.5926316 102.6824305
   5.6633523  84.9612798 102.5601010  19.0786633  86.9363849  91.1742678
  18.9966795  87.0066037  92.0397664  19.7166353  87.4993593  90.9826418
  19.1606470  87.0302821  91.2732627  12.4379804  86.7024587 100.6417204
  12.1799048  85.8696322 100.6148503  12.4928287  86.9282200  99.8009704
  12.4079582  86.6122359 100.5137341  17.5180854  78.8053038 100.7421296
  16.8137181  78.3162224 100.9005216  17.5665828  78.8175512  99.8709741
  17.4210906  78.7342686 100.6360636  11.4114516  84.2562350 101.1282099
  10.8364107  84.4154518 101.7646060  11.0350192  83.6197759 100.6650549
  11.2717328  84.1860163 101.1536657  15.0787805  82.7285699 105.9874477
  14.6902237  82.3039917 105.3326668  14.4142503  82.9767849 106.4951504
  14.9234732  82.7024420 105.9662345  24.7211074  82.4860704  98.7622307
  24.4647639  81.6740645  98.5720190  25.5640388  82.4938271  98.5352494
  24.8077099  82.3672701  98.7007124   1.1571335  83.9002425  99.1426539
   1.2431587  83.5234293  99.9240069   1.7847132  83.5262870  98.6646497
   1.2627886  83.7887907  99.1872016  18.9014166  76.4260328 103.4998461
  19.2824678  75.7438499 103.8866335  18.0977450  76.1369930 103.3174126
  18.8390628  76.2827376 103.5302517  16.1826743  86.9584304  94.1851284
  16.9967382  87.2499197  94.0734055  16.1185884  86.3044166  93.6109577
  16.2929482  86.9049498  94.0840121  22.4036233  89.6410300 108.5980860
  22.1674870  88.8098365 108.4792920  23.0479462  89.5895907 109.1835704
  22.4630904  89.5107988 108.6666753  12.0534651  90.4305821  99.3123596
  12.6908598  90.1917569  99.8575389  12.4789723  90.6342980  98.5776757
  12.2110817  90.4256831  99.2840753  12.6937466  85.6508111  93.6498485
  13.0782619  85.4315818  94.4015031  12.4449087  86.4771056  93.7799562
  12.7139539  85.7406257  93.7799562  12.8606007  78.9314526 113.3661070
  12.5459448  79.7014089 113.1030632  12.5395939  78.3684782 112.7813297
  12.7664926  78.9624795 113.2402420  23.4272654  89.4254749 104.6609154
  23.1218471  90.1582805 105.0222470  22.7078869  89.0192678 104.3801940
  23.2759996  89.4736482 104.6722291  14.4356123  90.9078244 100.9917382
  14.5095131  90.7453416 101.8459232  15.2525629  91.0968433 100.7477864
  14.5672482  90.9114986 101.0815408  29.1274446  86.0647749 103.9877498
  29.0598946  86.0843708 103.1180085  29.1130108  86.9078077 104.2133169
  29.1153202  86.1921484 103.8929975   8.1961880  91.2536107  98.0211826
   7.3699997  91.4997844  97.8946105   8.2573871  91.1748187  98.8873884
   8.0836047  91.2781056  98.1300770  10.4137904  77.3205048  98.9807266
   9.5460329  77.3927647  99.0464875  10.7013108  78.1227127  99.1695241
  10.3277652  77.4499195  99.0182033  19.5370792  77.4682907 107.3118588
  20.2824384  77.2792717 106.8982013  19.1208097  77.9941145 106.7532444
  19.5855767  77.5185052 107.1683161  12.9760709  93.8712987  95.7230856
  13.2659007  93.4801968  94.9990082  13.7064190  94.0529692  96.1636131
  13.1267593  93.8406801  95.6813663  26.9133063  84.8392135 102.2624093
  27.4640985  84.2060205 102.5021185  26.8977179  85.3707528 102.9539597
  26.9918260  84.8241084 102.4002951  13.5655454  88.6730733 106.8083986
  13.0667148  89.3846500 106.8868875  14.3755678  88.9931399 106.7702149
  13.6111561  88.8257581 106.8140555  10.9166624  95.8480369  98.7891005
  10.6966920  95.5577724  99.5817672  10.6961146  95.1895324  98.2608918
  10.8514219  95.7080078  98.8279914   9.8283572  87.9353686 101.0546707
   9.5396820  87.3091157 101.5892434  10.6966920  87.8773973 101.1211388
   9.9143824  87.8341230 101.1437662  20.6161469  83.0788469 101.3728689
  20.2726235  82.3578804 101.7235939  20.7154512  82.8702320 100.5307047
  20.5803512  82.9412672 101.3000369  13.0834580  97.2209759  97.5721698
  13.7358638  96.6886202  97.8012724  12.3860189  96.8678412  97.9589572
  13.0765298  97.0899282  97.6633866  10.0315845  89.5748937  96.9789072
  10.7861813  89.9561976  97.1924535   9.4386458  90.0260080  97.4335769
  10.0552559  89.6977764  97.0771951  21.0774498  89.5414173  96.9152677
  21.6432531  90.2007383  96.8311220  20.4302402  89.8863871  97.3869079
  21.0653255  89.6896115  96.9725434  12.4922512  81.5311777 112.1046284
  11.6822288  81.8369557 111.9936127  12.9697199  82.2517360 112.2198869
  12.4425991  81.6826378 112.1053356  11.3514072  90.7457498 102.3529188
  10.8294825  90.8857790 103.0381052  11.7388092  89.9868162 102.5431305
  11.3317772  90.6543022 102.4830264   8.3405256  80.7963307  96.4224142
   8.0530051  80.4264577  95.6856090   9.0275724  81.2658162  96.1607847
   8.3994153  80.8110276  96.2739218  17.5481077  92.4852957  96.3389756
  17.3067752  91.7520818  95.9316821  17.7282409  93.0339814  95.6856090
  17.5388701  92.4575349  96.1819979  12.7780397  87.7761517  97.7510679
  12.5823180  88.3836252  97.1570982  13.0014743  87.0829461  97.2702353
  12.7815038  87.7639043  97.5926759  11.1758927  84.6616255  97.8691547
  11.8981579  84.8257413  97.4095353  10.6966920  85.3825920  97.7630887
  11.2122658  84.7914485  97.7857161  19.1352435  80.9980054 103.2488232
  18.2963535  81.0241333 103.0126495  19.2056802  81.6450789 103.8293579
  19.0220828  81.0976180 103.2997349  17.5821713  77.8965431  97.9815848
  18.2848066  77.6973179  97.5035806  17.3165902  77.1241373  98.2884691
  17.6468345  77.7528397  97.9561289  23.0109959  86.2048041 100.5349474
  22.9243933  86.3603467 101.3884252  22.5560439  86.8486116 100.1608879
  22.9313215  86.3223796 100.6056580   5.9133450  81.5744519  97.2709423
   6.0149587  82.3770681  97.5990399   6.7089337  81.3731855  96.9732504
   6.0461356  81.6630418  97.2744779  12.3450269  79.1600716 107.0346728
  12.1533466  79.1755851 107.8846152  13.1948865  79.3564390 107.0113383
  12.4425991  79.1915067 107.1570023   6.7297182  81.6891698 105.0130545
   6.5882674  80.8375638 105.1375053   7.0137746  81.7320358 104.1892751
   6.7505028  81.5691448 104.9098169  16.8835775  83.5258788  99.1575033
  16.6370489  83.4454539  99.9911822  17.2120898  82.7412256  98.9637561
  16.8957018  83.3985053  99.2522556  20.7783823  90.2342147 102.9461814
  20.6398183  90.9323193 103.4510557  19.9983821  90.0790804 102.5897996
  20.6427050  90.3142314 102.9688089  19.1161909  86.5338523 109.1984196
  19.1109947  85.6618339 109.2026623  19.8222902  86.7326692 108.7253652
  19.2206913  86.4342397 109.1291231  12.8432802  86.2615506 108.5698016
  12.9876178  86.8416715 107.9341126  13.1908451  86.6391803 109.2747871
  12.9160263  86.4036210 108.5797011  15.0152719  85.4605675 106.3523148
  14.2676033  85.6536689 105.9471426  15.1694245  84.6350894 106.1147269
  14.9275147  85.3670786 106.2568554  22.2737196  89.5920401  93.7078314
  21.8944005  88.8057539  93.7007603  21.6103442  90.1407258  93.5649958
  22.1195671  89.5565225  93.6859110  15.2554496  79.3556225 107.2418552
  15.7127110  80.0880200 107.3691344  15.3310825  78.9322691 108.0005807
  15.3345466  79.4013464 107.3719628   7.4987488  79.6022045 108.3307995
   6.9629677  78.9902403 108.6468763   7.5605252  80.1770181 108.9841662
   7.4283120  79.5968973 108.4743422  19.7281822  72.5346101 101.1112394
  19.8465390  72.9922564 100.3779697  19.5543998  71.7291362 100.8248612
  19.7200993  72.4839873 100.9613328  15.0984105  93.1433920  97.5467140
  15.8633996  92.8743564  97.2249804  14.9962194  92.6583930  98.2637203
  15.1965600  93.0323485  97.6046967  13.1336874  81.3458329 104.0860376
  12.3432949  81.1649790 104.4077711  13.5297497  80.5685282 104.0690670
  13.0753750  81.2045790 104.1312924  17.6202765  90.1746104  89.5267089
  18.3875750  90.2346229  89.1172941  17.1734074  89.6026545  89.0423408
  17.6676192  90.0982679  89.3944799  18.5180561  88.9800760 101.8119821
  17.8425562  88.7485992 102.3133209  18.5272937  88.3721942 101.1861927
  18.4199065  88.8559685 101.7935974  15.6474705  83.8218589 108.5683874
  15.5833846  84.6828545 108.4404011  15.7871892  83.5050582 107.7679426
  15.6590175  83.9018755 108.4312087  20.5197295  91.8365892  94.0429999
  20.6017133  92.6432878  93.7191450  21.0047037  91.8561851  94.7670773
  20.6034453  91.9586554  94.1016898  14.3293798  86.5150728 102.7100077
  13.9056048  86.7155227 101.9739096  14.1538654  85.6679576 102.8224377
  14.2404679  86.4199509 102.6173767   9.6176243  87.0102779  98.1428050
   9.7740863  86.9449582  98.9984042   9.9576837  87.7851332  97.9306730
   9.6909478  87.1151977  98.2382644  16.1555388  86.3860663  97.0121413
  16.6970933  85.8831044  97.4760034  16.4701947  86.3325858  96.2010898
  16.2819785  86.3040084  96.9605225  14.3241838  91.7778014  94.2961441
  14.3934658  90.9192553  94.4354442  15.1030293  91.9949895  93.9680466
  14.4494688  91.6830878  94.2678598  17.3044657  81.2796967 107.0643714
  17.5186627  80.6407882 106.5107068  16.6878557  81.7242791 106.6351575
  17.2449987  81.2507111 106.9194145  18.7149325  94.2015716  98.5097934
  18.3229117  93.8982431  97.7920801  18.8702398  95.0384806  98.3202888
  18.6802915  94.2799552  98.3754432   6.1910505  84.1937730  98.4588817
   6.5709470  84.6122275  97.7949084   5.6165870  84.7751185  98.7657660
   6.1621830  84.3415589  98.4065558  19.4683745  82.8886033 108.0027021
  18.6560427  82.5811923 108.0840193  19.9273680  82.4085033 108.5669733
  19.4164130  82.7722525 108.0981615  18.8789000  90.7665705  98.4503965
  18.5203655  90.9380347  99.2267997  18.3927711  91.2278910  97.8931964
  18.7547697  90.8604676  98.4829234  16.6959386  74.3896903 102.0531056
  15.8252944  74.3635624 102.0064366  16.9499727  74.2174095 101.2356902
  16.6052946  74.3607047 101.9251193  13.6677365  86.4464870  90.9904199
  13.9569890  87.2229752  91.2647774  13.7549164  85.9353601  91.6918699
  13.7231622  86.4856788  91.1346697  16.5637253  84.2946104 112.7855723
  17.0336884  84.9188220 113.1723597  16.6099133  83.6263080 113.3448938
  16.6405129  84.2880784 112.9255794  13.7208527  76.4003131 103.5104527
  13.2047015  75.7083323 103.6356106  13.1602455  77.0673909 103.4567125
  13.5615040  76.3966389 103.5210593  15.7900760  76.9396092 105.3397379
  15.4032513  76.9645123 106.1210909  15.3033697  76.3737770 104.8871896
  15.6613269  76.8591842 105.3885283  20.0393739  91.6569600 109.3971166
  20.6773460  91.1629796 109.0633622  19.3967831  91.5847001 108.8123393
  20.0387966  91.5728609 109.2613521  21.7650739  83.5058746 103.9637082
  21.3378348  83.4185095 103.2085181  21.1276792  83.6136522 104.5491926
  21.6080347  83.5091406 103.9382523  15.4557902  73.8263077 107.6307639
  16.0851020  74.3623377 107.3528710  15.6243764  73.7340436 108.4821205
  15.5735696  73.8924439 107.7156167  15.2571817  78.6134272 109.9034051
  16.0845246  78.3419421 109.9592665  15.2779663  79.4095113 110.2597869
  15.3824667  78.6914026 109.9649234  20.0947996  92.3489409 106.0376523
  20.8840374  91.9978473 106.1578604  20.2691594  93.1625797 105.7753156
  20.2368278  92.4175266 106.0164391   9.8341306  85.7598135 103.0904311
   8.9929313  85.6602009 103.2983205  10.0431314  86.5293615 103.4418632
   9.7405999  85.8590178 103.1731626   7.3116873  83.3817671 100.9189062
   6.9173571  83.4560683 100.1439172   6.7556990  83.7675618 101.4697424
   7.1719686  83.4499446 100.8856722  18.9481820  76.3598965 100.5992941
  19.1531414  76.2921273 101.4449938  18.6208244  77.1657787 100.5314118
  18.9297068  76.4684906 100.7152596  13.6457971  83.6879534 102.3401909
  13.3421109  83.1335522 102.9412317  12.9437392  83.8671744 101.8529943
  13.4974181  83.6324316 102.3571615  12.7024068  80.9980053  96.9046611
  12.9783803  80.2798966  96.4924178  13.3022738  81.5964973  96.6967717
  12.8317333  80.9800424  96.8127372  22.2015508  76.9130730 100.0795706
  21.5889822  77.4001132 100.4649438  22.2979683  76.2374221 100.6233358
  22.1253406  76.8849038 100.2174565  16.2034589  78.6693571  95.1793206
  16.6578335  78.8404131  95.9041050  16.6774635  78.0561682  94.7790982
  16.3402909  78.6044456  95.2266967   9.7250114  88.1541897 104.5095944
   9.1338048  88.7951395 104.4798959  10.4871138  88.5779514 104.4827244
   9.7498375  88.3117735 104.5011092  10.1210737  79.3143895 105.1763962
  10.5812219  79.3882824 105.9139086  10.1666844  80.1125149 104.8263783
  10.1961292  79.4438042 105.2336718  11.7694087  79.9810589 109.7435989
  11.3779652  79.3343937 110.1791767  11.9379950  80.5722025 110.3630244
  11.7364997  79.9724857 109.8998695  25.8440536  87.9847666 105.5073223
  25.9023660  88.4334315 106.2533199  25.2107003  88.3946479 105.0703303
  25.7591831  88.1121401 105.5525771  19.4839631  93.6051208 101.9427969
  19.2859319  94.0942023 101.2484180  18.8627342  93.8092450 102.5212102
  19.3627195  93.7067747 101.9251192  13.5447609  85.3736105  96.2838213
  14.2889654  85.7610382  96.5221163  13.6908305  84.5293531  96.4478701
  13.6758194  85.3066578  96.3432183  15.4627184  77.1686364 101.3170075
  14.6163229  77.3409172 101.1911424  15.4598317  76.3635708 101.6535903
  15.3374334  77.0747393 101.3481201  16.5325485  80.9461579 102.1832132
  16.0585439  80.4203341 102.6937443  16.9043621  80.3991051 101.6146994
  16.5175374  80.7877575 102.1747280   6.9098515  82.9433085 107.5515678
   7.7724128  82.8428794 107.4653008   6.5790298  82.3627795 106.9901250
   6.9883711  82.8424712 107.4561084  22.7962215  86.0063954 103.5938913
  22.5560438  85.1670369 103.5981339  23.2754222  86.0864121 104.3179686
  22.8314399  85.8945354 103.7013715  18.4608984  81.8398133  95.2457886
  17.9332003  81.9226877  94.5563595  18.9204693  82.5816005  95.2422531
  18.4510835  81.9618796  95.1432581  24.7967402  82.7865411 101.5468172
  24.5577172  82.7461246 100.7088957  24.9601304  83.6336563 101.6733893
  24.7857706  82.9057496 101.4421654  21.4013432  87.1715361 107.4773217
  22.1247631  86.7187887 107.2984237  21.1363395  87.4520026 106.6945545
  21.4694706  87.1466329 107.3351933  10.2700301  81.7675534 104.2126096
   9.6453371  81.7793926 103.6052049   9.9345896  82.2435709 104.8617337
  10.1285793  81.8394051 104.2182665  10.4542050  80.1100653  90.2698781
  10.1054854  80.7620378  90.7330331   9.9738495  80.0957766  89.5422653
  10.3312293  80.2043706  90.2309873  18.0146067  90.4101697  94.3767543
  18.7380266  90.8759810  94.2332117  17.5746658  90.4775306  93.6265140
  18.0561759  90.4885533  94.2452325  17.1832222  87.2699239 105.6268232
  16.5689215  86.7257289 105.9216868  17.6999507  86.7563475 105.1474048
  17.1687884  87.1135648 105.5992461  16.4228519  88.3403509 103.3612531
  15.9956127  87.7153228 102.9277966  16.4153464  88.0578431 104.1871538
  16.3587660  88.2056290 103.4192358   9.5391046  83.3768682 106.4300965
   9.6984533  82.6212006 106.8352687   9.3583940  83.9259622 107.0841703
   9.5356405  83.3462496 106.5863671  17.4811349  75.5429918 106.9851754
  16.9851910  75.7393592 106.2943321  18.2380411  75.9422586 106.8140556
  17.5198174  75.6307651 106.8571891  14.7514229  79.2172264 103.5755065
  14.7756716  78.6832376 102.8867845  15.0025702  78.7089572 104.2380655
  14.7924148  79.0633167 103.5719710  11.0315551  77.9443082 102.9560809
  11.0713923  78.4452288 103.6695517  10.2065216  78.0353475 102.6866732
  10.9155077  78.0324898 103.0211347  12.4529914  84.4603592 105.2534708
  11.6221844  84.6277410 105.0469956  12.3981432  84.0839542 106.0383594
  12.3219329  84.4293323 105.3383236  10.2613698  77.9512485 110.8891119
  10.8866401  77.4074617 111.1620551   9.8064178  77.4707402 110.3198909
  10.2861958  77.8001966 110.8452713  10.8265958  82.7359183  95.7824826
  10.9668919  83.2331647  96.4853467  11.3248491  82.0345478  95.9239040
  10.9207039  82.7061162  95.9076405  10.8566181  83.6026294  93.1117403
  11.4911260  84.1986719  93.0466865  10.9391791  83.3029752  93.9263273
  10.9622732  83.6467202  93.2220489  23.8348746  86.1341772 105.9803767
  24.4266587  86.7739022 106.0121965  24.2707741  85.4364808 106.2695834
  23.9867178  86.1260122 106.0284600  12.4345164  79.5340270  93.0862845
  12.7561005  79.0543352  92.4322107  12.6972107  80.3439916  92.8953656
  12.5211189  79.5830167  92.9618337  15.6642136  90.5559144 106.6061661
  15.1567227  91.1094991 107.0502291  15.3668782  90.6167434 105.7880435
  15.5447021  90.6465455 106.5510118  17.8304319  78.9212464 105.4486324
  18.2559390  78.4684990 104.8369850  17.2161312  78.3672534 105.7251111
  17.8032964  78.7726440 105.3991349   7.3619169  85.7994135  96.3806949
   7.8711398  86.3958642  96.7618254   7.8353441  85.5320109  95.6983368
   7.5062544  85.8479950  96.3361472  18.2749917  94.4722402  94.5365604
  17.5579226  94.2983264  94.0712842  18.9256654  94.2374974  94.0041090
  18.2651767  94.4118194  94.3894822  16.2698541  75.3927563  98.8576901
  15.6266859  75.2425210  99.4262039  15.9297948  75.1469909  98.0926005
  16.1243619  75.3339686  98.8279916  20.8597888  83.3486990  98.2806909
  20.1889078  83.8916692  98.1519975  21.5537638  83.8181845  98.0388604
  20.8626755  83.4985261  98.2262437  14.9084622  95.4883702 103.5118668
  14.6850276  94.7302531 103.8802694  14.4194465  95.5181723 102.7899107
  14.8028071  95.3805927 103.4595409  21.0226015  79.8042874 101.1897283
  21.3753625  79.3772597 101.8643081  20.1640817  79.7193717 101.3198359
  20.9475460  79.7287614 101.3092293   9.7209700  82.4350393  99.2480129
   9.0021689  82.8514526  99.5152993  10.0922063  83.0004632  98.6971767
   9.6701632  82.5799675  99.2062936  19.0209281  83.0678242 105.1382125
  19.0007208  82.8861538 105.9916904  19.0688482  83.9390261 105.1141709
  19.0243922  83.1694781 105.2605420  16.9655611  89.6565434 111.0630601
  16.9251466  89.0115111 110.4775757  17.7778929  89.6002052 111.3756014
  17.0798764  89.5524401 111.0227551  13.5563079  95.7084160 100.9655752
  13.1423477  95.0458290 100.5759594  14.2410453  95.8562019 100.4451447
  13.5961450  95.6324818 100.8312250  16.9228373  94.8674246 101.7179369
  16.5244656  94.9776516 100.9500189  16.3079592  95.0756312 102.3005929
  16.7727262  94.9147814 101.6910668  15.4956275  81.4748393  94.5853509
  14.9021114  81.7965390  94.0338076  15.5331552  80.6289489  94.3774615
  15.4130664  81.3972722  94.4736280  22.4550075  74.9261286 102.1181595
  21.9480940  74.2190425 102.0502773  23.2517509  74.5954474 102.2482672
  22.4977315  74.7734437 102.1280590  18.3714091  81.4327898  98.0155259
  18.1427784  81.4560599  97.1733617  18.6312167  80.6085365  98.1350269
  18.3760279  81.3143978  97.9080457  12.6533320  83.2862371 107.6180359
  12.1412223  82.6783554 107.9765390  12.4812816  84.0018963 108.0854335
  12.5522957  83.3025670 107.7396583  11.4258854  79.9704444  99.3109455
  11.9016220  80.3321524  98.6759636  10.9247453  80.6260912  99.5909597
  11.4224213  80.1198633  99.2586196  24.6570215  89.4426212  95.1022460
  25.0403821  90.1917568  95.3320557  23.8614329  89.6892032  94.8434449
  24.5963998  89.5895906  95.0980033  16.5302390  81.2086616 110.0582615
  17.0873820  80.9800425 109.4261080  16.2063455  81.9692281 109.7817827
  16.5648800  81.2870452 109.9239112  14.2485507  84.2954269 111.0234622
  14.9996834  84.6105946 111.3374176  14.4408084  84.0933440 110.1968544
  14.3876921  84.3121651 110.9478018  13.4685507  82.1145644  92.6782839
  13.8484472  82.1325273  91.8933953  12.7278103  82.5599633  92.5573686
  13.4154345  82.1827419  92.5446407  21.0970797  80.4227835  98.2658417
  21.0965024  80.2676492  99.1242694  20.8926977  81.2690822  98.2099803
  21.0670575  80.5248456  98.3846357   3.1588068  83.8467620 102.6817234
   2.9809829  83.3944229 103.4072149   2.8707090  84.6493781 102.8655711
   3.0901022  83.8990177 102.8160737  18.8211649  85.1025337 101.9194624
  19.3165315  84.3848332 101.8798644  18.0111425  84.7996135 101.8049111
  18.7755543  84.9522983 101.8968350  14.2670261  88.9523150  94.0691629
  13.4581584  88.6289824  94.0224938  14.7745170  88.2456372  94.0019877
  14.2219928  88.8004467  94.0521923   4.8960538  86.3795343  99.7938993
   4.0306058  86.3681034  99.6821764   4.9959354  86.1925566 100.6410132
   4.7834705  86.3501405  99.9027937  20.8863468  87.8529024 104.6071753
  21.3118540  87.3303446 104.0542178  20.5220388  88.4509862 104.0860376
  20.8950071  87.8639251 104.4480763  17.4742068  91.5663289 100.9372910
  17.9453246  92.2803551 101.1062896  17.8102246  90.9662039 101.4732780
  17.5937183  91.5834753 101.0405286  14.3911563  76.3390759 107.8931005
  14.5239468  75.5421753 108.2211981  14.7756715  76.8657162 108.4729281
  14.4667892  76.2990676 108.0274508  18.1116014  91.3581223 107.7000603
  17.5636960  90.7339107 107.4320668  18.5729043  91.5475495 106.9844682
  18.0983224  91.2940273 107.5551034  17.4643918  73.2621085 104.4912098
  16.6589882  73.1518815 104.8079937  17.3350653  73.3633541 103.6341964
  17.3264051  73.2604756 104.4120139  20.9209878  79.4266577 105.0851795
  20.3372867  79.9275784 104.6729363  21.2414173  78.9196134 104.4516119
  20.8823054  79.4258412 104.9310302  13.4604678  78.3407172  95.3610470
  14.2820372  78.5105485  95.1192165  12.9974328  78.4954433  94.6376768
  13.5135840  78.3888905  95.2182114  12.0500009  76.3349934 106.1408899
  12.5944422  75.9941061 106.7313241  12.1036945  77.1935396 106.2830183
  12.1389129  76.4105194 106.2490772   7.8630568  90.0966350 103.0147707
   8.4675426  90.0562185 102.3861528   7.6557881  90.9437502 103.0451763
   7.9219466  90.2154353 102.9263823  17.6774340  92.3632296 104.2309944
  18.4972714  92.2195262 104.4926239  17.3968418  92.9878494 104.7726382
  17.7571084  92.4342648 104.3497884  34.1487991 100.0197147  97.1952820
  34.1181995 100.8741784  97.3671090  34.7469340  99.7192440  97.7538964
  34.2325149 100.1013644  97.3027623  27.3487676  99.1072798 101.9505751
  26.4925571  99.2681297 102.0014868  27.3955329  98.2364862 101.9710812
  27.2286787  99.0023600 101.9611817  21.7328815 108.6435516  97.7142982
  20.9811715 108.2651054  97.4859028  22.1814827 108.6753950  96.9661793
  21.6878482 108.5921123  97.5700485  30.6581392 105.3759324 111.5566207
  31.3648159 104.8811355 111.6853141  30.8469328 105.8168405 110.8268865
  30.7909298 105.3677674 111.4675253  27.1853775 109.0660886  93.1428530
  26.8505144 109.7437807  92.7072752  27.6980646 108.6766197  92.5545401
  27.2119356 109.1085464  92.9915321  26.7258066 111.0175154  99.0839641
  27.1097446 111.5862053  98.5444416  26.6617208 110.2924665  98.6045457
  26.7731494 110.9950618  98.9333504  30.1939497 101.1664842 104.5937403
  30.7395457 101.8449929 104.6531372  30.1356373 101.0252303 103.7338984
  30.2655411 101.2456844 104.4749463  23.3113571 108.6553908  99.9805755
  23.4123934 107.8454262 100.2902883  22.7155317 108.5610855  99.3505434
  23.2386110 108.5218936  99.9331993  31.9704565 102.5949449  95.4671130
  31.8544091 103.3457135  95.8963268  32.7660452 102.3373403  95.7167217
  32.0709155 102.6684296  95.5675222  23.1514311 113.5731497 101.3820611
  23.7951767 114.0144662 101.7716769  23.4770567 112.7684924 101.2950870
  23.2946140 113.5196692 101.4266088  16.5078616 104.6774195  99.6058089
  16.2728800 103.8441847  99.4990357  16.6464257 104.9578861  98.7919290
  16.4934278 104.5957698  99.4700444  18.8068703  96.8459925 102.5042396
  18.1873735  96.2552573 102.3352411  18.7052567  97.4371361 101.8706720
  18.7006379  96.8464008 102.3847386  23.8534891 106.5843472  96.7540473
  24.1750732 107.1248680  96.1501781  24.5006987 106.0140244  96.8862763
  23.9960946 106.5802647  96.6847508  25.9036599  98.5859467  96.8374859
  26.6016764  98.7647595  97.3296323  26.2188931  98.0629807  96.2145249
  26.0531936  98.5353239  96.8176870  18.5337836 100.3912207 104.7485965
  18.4096533 100.9774653 105.3835784  19.1856121  99.8972403 105.0498240
  18.6111486 100.4051012 104.8871895  26.0924534 104.9729912  96.8254651
  26.5318170 104.3647013  97.2709424  25.9429197 104.5937286  96.0540116
  26.1346000 104.8268383  96.7773818  23.5596177 103.5673924 104.0273476
  24.2045180 103.0746367 103.7084425  23.7997954 103.7098711 104.8539555
  23.6906762 103.5151366 104.1023010  26.0982269 106.4128830 103.6780369
  26.3805511 105.6180236 103.4567125  26.8268429 106.8909417 103.6985430
  26.2471832 106.3663427 103.6483384  24.0763462  93.9551864 100.9196134
  23.7466792  94.4063008 100.2499833  23.4008464  93.8768027 101.4669141
  23.9273899  94.0102999 100.9019357  29.6933871 103.3257094  93.7785420
  29.6085166 104.1818060  93.9234989  30.1818254 103.0501418  94.4467579
  29.7522768 103.4114415  93.8987502  31.2839870  89.9437387  99.1645745
  30.9693311  90.6340865  99.5966167  30.7666812  89.8882169  98.4631245
  31.1604341  90.0372275  99.1242694  30.6252304  99.9441888  95.2783155
  30.0963776 100.1601521  95.9380462  31.1477324 100.6378026  95.1984125
  30.6240757 100.0785025  95.3638755  36.0800357 105.5188192 100.6516200
  35.2498060 105.7298836 100.8149616  36.0309609 104.6925247 100.3758483
  35.9507092 105.4277799 100.6353565  22.5151912 103.8405105  94.0790623
  21.9309127 104.3455136  94.4856487  22.1122007 103.6147491  93.3387215
  22.3691216 103.8813353  94.0295649  24.1410095 108.3492046 103.4864109
  23.6237036 107.9899461 102.8825417  24.8384486 107.8254221 103.4970175
  24.1675676 108.2189734 103.3994368  26.9729126 100.0870757  92.5559544
  27.2125130 100.2948740  91.7434887  27.2944967  99.2828265  92.6648488
  27.0566284  99.9984858  92.4520097  22.2819417  92.0164152  96.4019082
  23.0365385  92.3842469  96.1636132  22.1046951  92.3903707  97.1698261
  22.3673895  92.1262340  96.4803970  20.9240138 110.0716042 101.0334575
  21.6260717 109.5568031 101.0907331  20.8437621 110.3990193 101.8381450
  21.0163898 110.0430268 101.1607367  35.5754315  98.1658593 104.4466621
  34.7382736  98.2360780 104.6814216  35.5442546  98.1683088 103.5740923
  35.4472598  98.1768820 104.3526169  20.6376481  94.4234471  93.0997195
  20.4552054  94.6406352  92.2738188  21.5002094  94.5373484  93.1555809
  20.7381071  94.4724369  92.9851682  20.2490913 106.2622394 100.5420183
  21.0879813 106.4945326 100.5893944  20.2802682 105.3926705 100.4727218
  20.3772631 106.1679340 100.5384827  26.3176200  91.4260882  96.1346219
  27.0462361  91.2476837  95.6884375  26.4071093  92.2678962  96.3453397
  26.4382862  91.5244760  96.0999736  30.2984501 102.3614269 100.0378513
  31.0542016 102.7945784 100.0767421  30.4046826 101.7119039 100.6113149
  30.4254672 102.3291753 100.1276538  33.3364672 106.1887547 100.7880916
  32.8999904 106.1924289 101.5439887  33.0027588 106.8693046 100.3560493
  33.2227292 106.2900002 100.8361748  33.2562155  93.2301374 103.0310343
  33.8988064  93.2999479 103.6172259  33.5085176  92.5630597 102.5289885
  33.3884287  93.1427723 103.0437623  20.1838508  97.7008644  91.6119668
  19.4696685  97.4146823  92.0242100  20.6682477  98.0405270  92.2526055
  20.1497872  97.7090294  91.7675303  21.0279368  96.4401938 107.6434917
  20.3351164  95.9698918 107.8895649  21.6439695  96.2140242 108.2176625
  21.0163898  96.3369070 107.7644070  28.0664139 110.1405982 105.7590521
  27.2679385 109.9005482 106.0164390  28.5150151 110.1920374 106.5057569
  28.0138750 110.1128373 105.9075446  36.4709018 102.9068467  99.6800553
  37.1325452 102.3459135  99.5796461  35.8300430 102.4120497 100.0053244
  36.4737886 102.7504876  99.7132893  27.3585826 106.2038598  91.9881476
  27.7736975 105.8723622  91.2965972  26.5277756 105.9707500  91.8601613
  27.2973835 106.1209854  91.8672323  16.6874175 103.6882339 102.2779654
  16.5049748 103.6629225 101.4251946  17.4223844 104.1581277 102.3168563
  16.7688239 103.7543701 102.1577572  32.7573849 103.9233849  99.4212542
  32.9929438 104.0679048  98.5939392  32.9063413 104.6876257  99.8144055
  32.8139652 104.0572903  99.3576145  34.5864306 102.7635515  97.2582145
  34.9172523 103.2963155  96.6522240  35.1597394 102.8174403  97.9144096
  34.7197985 102.8505084  97.2659927  29.7996195 100.6100418  97.9405725
  29.8943049 101.3489712  98.3945351  29.1755038 100.1817893  98.3740290
  29.7205225 100.6561738  98.0713873  28.0548669 103.7886630 108.5896006
  28.6287530 103.1513874 108.7444570  27.9763473 103.7890713 107.7205664
  28.1281904 103.6951742 108.4842417  16.6545085 100.5675840 102.4278721
  17.2318588 100.4312290 103.0670966  15.9559147 100.1111624 102.6824305
  16.6366107 100.4798106 102.5601010  30.0519216 102.4549157  91.1742678
  29.9699379 102.5251344  92.0397664  30.6898937 103.0178901  90.9826418
  30.1339054 102.5488128  91.2732627  23.4112387 102.2209895 100.6417204
  23.1531632 101.3881630 100.6148503  23.4660870 102.4467508  99.8009704
  23.3812165 102.1307667 100.5137341  28.4913438  94.3238346 100.7421296
  27.7869764  93.8347531 100.9005216  28.5398412  94.3360820  99.8709741
  28.3943489  94.2527994 100.6360636  22.3847100  99.7747658 101.1282099
  21.8096691  99.9339826 101.7646060  22.0082776  99.1383067 100.6650549
  22.2449912  99.7045471 101.1536657  26.0520388  98.2471007 105.9874477
  25.6634821  97.8225225 105.3326668  25.3875087  98.4953157 106.4951504
  25.8967316  98.2209728 105.9662345  35.6943657  98.0046012  98.7622307
  35.4380222  97.1925953  98.5720190  36.5372971  98.0123579  98.5352494
  35.7809683  97.8858009  98.7007124  12.1303918  99.4187733  99.1426539
  12.2164170  99.0419601  99.9240069  12.7579716  99.0448178  98.6646497
  12.2360469  99.3073215  99.1872016  29.8746750  91.9445636 103.4998461
  30.2557261  91.2623807 103.8866335  29.0710034  91.6555238 103.3174126
  29.8123211  91.8012684 103.5302517  27.1559326 102.4769612  94.1851284
  27.9699965 102.7684504  94.0734055  27.0918468 101.8229474  93.6109577
  27.2662065 102.4234806  94.0840121  33.3768817 105.1595608 108.5980860
  33.1407454 104.3283673 108.4792920  34.0212046 105.1081215 109.1835704
  33.4363487 105.0293296 108.6666753  23.0267235 105.9491129  99.3123596
  23.6641182 105.7102877  99.8575389  23.4522306 106.1528288  98.5776757
  23.1843401 105.9442139  99.2840753  23.6670050 101.1693419  93.6498485
  24.0515202 100.9501126  94.4015031  23.4181670 101.9956364  93.7799562
  23.6872122 101.2591565  93.7799562  23.8338590  94.4499834 113.3661070
  23.5192031  95.2199397 113.1030632  23.5128523  93.8870090 112.7813297
  23.7397509  94.4810103 113.2402420  34.4005237 104.9440057 104.6609154
  34.0951054 105.6768113 105.0222470  33.6811453 104.5377986 104.3801940
  34.2492580 104.9921790 104.6722291  25.4088707 106.4263552 100.9917382
  25.4827715 106.2638724 101.8459232  26.2258213 106.6153741 100.7477864
  25.5405065 106.4300294 101.0815408  40.1007029 101.5833057 103.9877498
  40.0331530 101.6029016 103.1180085  40.0862692 102.4263384 104.2133169
  40.0885786 101.7106792 103.8929975  19.1694463 106.7721415  98.0211826
  18.3432581 107.0183152  97.8946105  19.2306455 106.6933495  98.8873884
  19.0568630 106.7966364  98.1300770  21.3870487  92.8390356  98.9807266
  20.5192913  92.9112955  99.0464875  21.6745691  93.6412434  99.1695241
  21.3010235  92.9684503  99.0182033  30.5103376  92.9868215 107.3118588
  31.2556968  92.7978025 106.8982013  30.0940680  93.5126453 106.7532444
  30.5588350  93.0370360 107.1683161  23.9493292 109.3898295  95.7230856
  24.2391591 108.9987276  94.9990082  24.6796773 109.5715000  96.1636131
  24.1000177 109.3592109  95.6813663  37.8865647 100.3577443 102.2624093
  38.4373568  99.7245512 102.5021185  37.8709762 100.8892836 102.9539597
  37.9650843 100.3426392 102.4002951  24.5388038 104.1916041 106.8083986
  24.0399731 104.9031808 106.8868875  25.3488262 104.5116707 106.7702149
  24.5844144 104.3442889 106.8140555  21.8899208 111.3665677  98.7891005
  21.6699503 111.0763032  99.5817672  21.6693730 110.7080632  98.2608918
  21.8246802 111.2265386  98.8279914  20.8016155 103.4538994 101.0546707
  20.5129404 102.8276465 101.5892434  21.6699503 103.3959281 101.1211388
  20.8876407 103.3526538 101.1437662  31.5894053  98.5973777 101.3728689
  31.2458819  97.8764112 101.7235939  31.6887095  98.3887628 100.5307047
  31.5536096  98.4597980 101.3000369  24.0567164 112.7395067  97.5721698
  24.7091222 112.2071509  97.8012724  23.3592772 112.3863719  97.9589572
  24.0497882 112.6084590  97.6633866  21.0048429 105.0934245  96.9789072
  21.7594397 105.4747284  97.1924535  20.4119041 105.5445388  97.4335769
  21.0285142 105.2163072  97.0771951  32.0507082 105.0599481  96.9152677
  32.6165115 105.7192691  96.8311220  31.4034985 105.4049179  97.3869079
  32.0385838 105.2081422  96.9725434  23.4655096  97.0497085 112.1046284
  22.6554871  97.3554865 111.9936127  23.9429782  97.7702667 112.2198869
  23.4158574  97.2011686 112.1053356  22.3246655 106.2642806 102.3529188
  21.8027409 106.4043098 103.0381052  22.7120675 105.5053470 102.5431305
  22.3050356 106.1728330 102.4830264  19.3137839  96.3148615  96.4224142
  19.0262635  95.9449885  95.6856090  20.0008307  96.7843470  96.1607847
  19.3726736  96.3295584  96.2739218  28.5213660 108.0038265  96.3389756
  28.2800336 107.2706126  95.9316821  28.7014993 108.5525122  95.6856090
  28.5121284 107.9760657  96.1819979  23.7512981 103.2946825  97.7510679
  23.5555763 103.9021560  97.1570982  23.9747326 102.6014769  97.2702353
  23.7547622 103.2824351  97.5926759  22.1491511 100.1801563  97.8691547
  22.8714163 100.3442721  97.4095353  21.6699504 100.9011228  97.7630887
  22.1855241 100.3099793  97.7857161  30.1085018  96.5165362 103.2488232
  29.2696119  96.5426641 103.0126495  30.1789386  97.1636097 103.8293579
  29.9953412  96.6161488 103.2997349  28.5554297  93.4150739  97.9815848
  29.2580649  93.2158487  97.5035806  28.2898485  92.6426681  98.2884691
  28.6200929  93.2713705  97.9561289  33.9842542 101.7233349 100.5349474
  33.8976517 101.8788775 101.3884252  33.5293022 102.3671424 100.1608879
  33.9045799 101.8409104 100.6056580  16.8866034  97.0929827  97.2709423
  16.9882170  97.8955989  97.5990399  17.6821921  96.8917163  96.9732504
  17.0193939  97.1815726  97.2744779  23.3182853  94.6786024 107.0346728
  23.1266050  94.6941158 107.8846152  24.1681449  94.8749698 107.0113383
  23.4158575  94.7100375 107.1570023  17.7029766  97.2077006 105.0130545
  17.5615258  96.3560946 105.1375053  17.9870329  97.2505666 104.1892751
  17.7237612  97.0876756 104.9098169  27.8568358  99.0444096  99.1575033
  27.6103073  98.9639847  99.9911822  28.1853481  98.2597564  98.9637561
  27.8689602  98.9170361  99.2522556  31.7516407 105.7527455 102.9461814
  31.6130766 106.4508501 103.4510557  30.9716405 105.5976112 102.5897996
  31.6159634 105.8327622 102.9688089  30.0894492 102.0523830 109.1984196
  30.0842531 101.1803647 109.2026623  30.7955486 102.2512000 108.7253652
  30.1939496 101.9527705 109.1291231  23.8165386 101.7800814 108.5698016
  23.9608761 102.3602022 107.9341126  24.1641034 102.1577111 109.2747871
  23.8892847 101.9221518 108.5797011  25.9885303 100.9790983 106.3523148
  25.2408617 101.1721997 105.9471426  26.1426828 100.1536202 106.1147269
  25.9007730 100.8856094 106.2568554  33.2469780 105.1105709  93.7078314
  32.8676589 104.3242847  93.7007603  32.5836025 105.6592566  93.5649958
  33.0928255 105.0750533  93.6859110  26.2287080  94.8741533 107.2418552
  26.6859694  95.6065508 107.3691344  26.3043409  94.4507999 108.0005807
  26.3078050  94.9198771 107.3719628  18.4720071  95.1207353 108.3307995
  17.9362261  94.5087711 108.6468763  18.5337836  95.6955489 108.9841662
  18.4015704  95.1154281 108.4743422  30.7014406  88.0531409 101.1112394
  30.8197974  88.5107872 100.3779697  30.5276582  87.2476670 100.8248612
  30.6933577  88.0025181 100.9613328  26.0716688 108.6619228  97.5467140
  26.8366579 108.3928872  97.2249804  25.9694778 108.1769238  98.2637203
  26.1698184 108.5508793  97.6046967  24.1069458  96.8643637 104.0860376
  23.3165533  96.6835097 104.4077711  24.5030081  96.0870590 104.0690670
  24.0486334  96.7231098 104.1312924  28.5935349 105.6931412  89.5267089
  29.3608334 105.7531537  89.1172941  28.1466658 105.1211853  89.0423408
  28.6408776 105.6167987  89.3944799  29.4913144 104.4986067 101.8119821
  28.8158146 104.2671300 102.3133209  29.5005520 103.8907250 101.1861927
  29.3931649 104.3744993 101.7935974  26.6207288  99.3403896 108.5683874
  26.5566429 100.2013853 108.4404011  26.7604476  99.0235890 107.7679426
  26.6322758  99.4204063 108.4312087  31.4929879 107.3551200  94.0429999
  31.5749716 108.1618186  93.7191450  31.9779621 107.3747159  94.7670773
  31.5767037 107.4771862  94.1016898  25.3026382 102.0336036 102.7100077
  24.8788631 102.2340535 101.9739096  25.1271237 101.1864884 102.8224377
  25.2137263 101.9384817 102.6173767  20.5908827 102.5288087  98.1428050
  20.7473446 102.4634890  98.9984042  20.9309420 103.3036640  97.9306730
  20.6642062 102.6337285  98.2382644  27.1287972 101.9045971  97.0121413
  27.6703517 101.4016352  97.4760034  27.4434531 101.8511165  96.2010898
  27.2552369 101.8225392  96.9605225  25.2974421 107.2963322  94.2961441
  25.3667242 106.4377861  94.4354442  26.0762876 107.5135203  93.9680466
  25.4227271 107.2016186  94.2678598  28.2777241  96.7982275 107.0643714
  28.4919211  96.1593190 106.5107068  27.6611140  97.2428099 106.6351575
  28.2182570  96.7692419 106.9194145  29.6881909 109.7201024  98.5097934
  29.2961701 109.4167739  97.7920801  29.8434981 110.5570114  98.3202888
  29.6535499 109.7984860  98.3754432  17.1643088  99.7123038  98.4588817
  17.5442053 100.1307583  97.7949084  16.5898453 100.2936493  98.7657660
  17.1354413  99.8600897  98.4065558  30.4416329  98.4071340 108.0027021
  29.6293011  98.0997231 108.0840193  30.9006264  97.9270341 108.5669733
  30.3896714  98.2907833 108.0981615  29.8521584 106.2851012  98.4503965
  29.4936238 106.4565655  99.2267997  29.3660294 106.7464218  97.8931964
  29.7280281 106.3789984  98.4829234  27.6691970  89.9082211 102.0531056
  26.7985528  89.8820932 102.0064366  27.9232311  89.7359403 101.2356902
  27.5785530  89.8792355 101.9251193  24.6409949 101.9650178  90.9904199
  24.9302474 102.7415060  91.2647774  24.7281748 101.4538909  91.6918699
  24.6964205 102.0042096  91.1346697  27.5369836  99.8131412 112.7855723
  28.0069468 100.4373528 113.1723597  27.5831717  99.1448387 113.3448938
  27.6137712  99.8066092 112.9255794  24.6941110  91.9188439 103.5104527
  24.1779599  91.2268631 103.6356106  24.1335039  92.5859216 103.4567125
  24.5347623  91.9151697 103.5210593  26.7633344  92.4581399 105.3397379
  26.3765097  92.4830431 106.1210909  26.2766281  91.8923078 104.8871896
  26.6345852  92.3777150 105.3885283  31.0126323 107.1754908 109.3971166
  31.6506044 106.6815104 109.0633622  30.3700415 107.1032309 108.8123393
  31.0120550 107.0913917 109.2613521  32.7383323  99.0244054 103.9637082
  32.3110931  98.9370403 103.2085181  32.1009376  99.1321830 104.5491926
  32.5812930  99.0276714 103.9382523  26.4290485  89.3448385 107.6307639
  27.0583603  89.8808685 107.3528710  26.5976348  89.2525744 108.4821205
  26.5468280  89.4109747 107.7156167  26.2304400  94.1319580 109.9034051
  27.0577830  93.8604729 109.9592665  26.2512246  94.9280421 110.2597869
  26.3557250  94.2099334 109.9649234  31.0680580 107.8674717 106.0376523
  31.8572958 107.5163781 106.1578604  31.2424177 108.6811105 105.7753156
  31.2100861 107.9360574 106.0164391  20.8073890 101.2783442 103.0904311
  19.9661897 101.1787317 103.2983205  21.0163898 102.0478923 103.4418632
  20.7138583 101.3775486 103.1731626  18.2849457  98.9002979 100.9189062
  17.8906155  98.9745991 100.1439172  17.7289574  99.2860926 101.4697424
  18.1452269  98.9684754 100.8856722  29.9214404  91.8784273 100.5992941
  30.1263997  91.8106581 101.4449938  29.5940828  92.6843095 100.5314118
  29.9029652  91.9870214 100.7152596  24.6190555  99.2064842 102.3401909
  24.3153692  98.6520830 102.9412317  23.9169976  99.3857052 101.8529943
  24.4706765  99.1509624 102.3571615  23.6756652  96.5165361  96.9046611
  23.9516386  95.7984274  96.4924178  24.2755321  97.1150281  96.6967717
  23.8049917  96.4985732  96.8127372  33.1748091  92.4316038 100.0795706
  32.5622405  92.9186440 100.4649438  33.2712266  91.7559529 100.6233358
  33.0985989  92.4034346 100.2174565  27.1767172  94.1878879  95.1793206
  27.6310919  94.3589439  95.9041050  27.6507218  93.5746989  94.7790982
  27.3135493  94.1229764  95.2266967  20.6982698 103.6727205 104.5095944
  20.1070631 104.3136703 104.4798959  21.4603721 104.0964822 104.4827244
  20.7230958 103.8303043 104.5011092  21.0943321  94.8329202 105.1763962
  21.5544802  94.9068132 105.9139086  21.1399427  95.6310457 104.8263783
  21.1693876  94.9623350 105.2336718  22.7426670  95.4995897 109.7435989
  22.3512236  94.8529244 110.1791767  22.9112533  96.0907333 110.3630244
  22.7097581  95.4910165 109.8998695  36.8173119 103.5032974 105.5073223
  36.8756243 103.9519623 106.2533199  36.1839587 103.9131787 105.0703303
  36.7324415 103.6306709 105.5525771  30.4572214 109.1236516 101.9427969
  30.2591903 109.6127331 101.2484180  29.8359925 109.3277758 102.5212102
  30.3359779 109.2253055 101.9251192  24.5180192 100.8921413  96.2838213
  25.2622237 101.2795689  96.5221163  24.6640889 100.0478839  96.4478701
  24.6490778 100.8251886  96.3432183  26.4359768  92.6871672 101.3170075
  25.5895813  92.8594480 101.1911424  26.4330900  91.8821016 101.6535903
  26.3106918  92.5932701 101.3481201  27.5058068  96.4646886 102.1832132
  27.0318023  95.9388648 102.6937443  27.8776204  95.9176359 101.6146994
  27.4907957  96.3062883 102.1747280  17.8831098  98.4618393 107.5515678
  18.7456711  98.3614102 107.4653008  17.5522881  97.8813102 106.9901250
  17.9616295  98.3610020 107.4561084  33.7694799 101.5249262 103.5938913
  33.5293022 100.6855677 103.5981339  34.2486806 101.6049429 104.3179686
  33.8046983 101.4130662 103.7013715  29.4341568  97.3583441  95.2457886
  28.9064587  97.4412185  94.5563595  29.8937276  98.1001312  95.2422531
  29.4243418  97.4804103  95.1432581  35.7699986  98.3050719 101.5468172
  35.5309756  98.2646553 100.7088957  35.9333887  99.1521871 101.6733893
  35.7590289  98.4242804 101.4421654  32.3746016 102.6900669 107.4773217
  33.0980215 102.2373195 107.2984237  32.1095978 102.9705334 106.6945545
  32.4427289 102.6651637 107.3351933  21.2432884  97.2860842 104.2126096
  20.6185955  97.2979234 103.6052049  20.9078479  97.7621017 104.8617337
  21.1018376  97.3579359 104.2182665  21.4274633  95.6285961  90.2698781
  21.0787437  96.2805686  90.7330331  20.9471079  95.6143074  89.5422653
  21.3044877  95.7229014  90.2309873  28.9878650 105.9287005  94.3767543
  29.7112849 106.3945118  94.2332117  28.5479242 105.9960614  93.6265140
  29.0294343 106.0070841  94.2452325  28.1564806 102.7884547 105.6268232
  27.5421799 102.2442597 105.9216868  28.6732091 102.2748783 105.1474048
  28.1420468 102.6320956 105.5992461  27.3961103 103.8588817 103.3612531
  26.9688711 103.2338536 102.9277966  27.3886047 103.5763739 104.1871538
  27.3320244 103.7241598 103.4192358  20.5123630  98.8953990 106.4300965
  20.6717117  98.1397314 106.8352687  20.3316523  99.4444929 107.0841703
  20.5088989  98.8647804 106.5863671  28.4543933  91.0615226 106.9851754
  27.9584494  91.2578900 106.2943321  29.2112995  91.4607894 106.8140556
  28.4930757  91.1492959 106.8571891  25.7246812  94.7357571 103.5755065
  25.7489300  94.2017684 102.8867845  25.9758286  94.2274880 104.2380655
  25.7656731  94.5818475 103.5719710  22.0048135  93.4628390 102.9560809
  22.0446506  93.9637596 103.6695517  21.1797799  93.5538783 102.6866732
  21.8887661  93.5510206 103.0211347  23.4262498  99.9788899 105.2534708
  22.5954428 100.1462717 105.0469956  23.3714015  99.6024850 106.0383594
  23.2951913  99.9478631 105.3383236  21.2346281  93.4697792 110.8891119
  21.8598985  92.9259925 111.1620551  20.7796761  92.9892710 110.3198909
  21.2594542  93.3187274 110.8452713  21.7998542  98.2544491  95.7824826
  21.9401503  98.7516955  96.4853467  22.2981075  97.5530785  95.9239040
  21.8939623  98.2246470  95.9076405  21.8298764  99.1211602  93.1117403
  22.4643844  99.7172027  93.0466865  21.9124375  98.8215060  93.9263273
  21.9355315  99.1652510  93.2220489  34.8081330 101.6527079 105.9803767
  35.3999170 102.2924330 106.0121965  35.2440325 100.9550116 106.2695834
  34.9599761 101.6445430 106.0284600  23.4077747  95.0525577  93.0862845
  23.7293588  94.5728660  92.4322107  23.6704691  95.8625224  92.8953656
  23.4943773  95.1015475  92.9618337  26.6374720 106.0744452 106.6061661
  26.1299811 106.6280299 107.0502291  26.3401366 106.1352742 105.7880435
  26.5179605 106.1650763 106.5510118  28.8036902  94.4397771 105.4486324
  29.2291974  93.9870298 104.8369850  28.1893895  93.8857842 105.7251111
  28.7765547  94.2911748 105.3991349  18.3351752 101.3179443  96.3806949
  18.8443981 101.9143950  96.7618254  18.8086024 101.0505416  95.6983368
  18.4795128 101.3665258  96.3361472  29.2482500 109.9907710  94.5365604
  28.5311810 109.8168572  94.0712842  29.8989238 109.7560282  94.0041090
  29.2384351 109.9303502  94.3894822  27.2431125  90.9112871  98.8576901
  26.5999443  90.7610518  99.4262039  26.9030532  90.6655217  98.0926005
  27.0976202  90.8524994  98.8279916  31.8330471  98.8672298  98.2806909
  31.1621661  99.4102000  98.1519975  32.5270222  99.3367153  98.0388604
  31.8359339  99.0170569  98.2262437  25.8817205 111.0069010 103.5118668
  25.6582860 110.2487839 103.8802694  25.3927048 111.0367031 102.7899107
  25.7760654 110.8991235 103.4595409  31.9958599  95.3228182 101.1897283
  32.3486209  94.8957905 101.8643081  31.1373400  95.2379025 101.3198359
  31.9208044  95.2472922 101.3092293  20.6942284  97.9535701  99.2480129
  19.9754273  98.3699834  99.5152993  21.0654646  98.5189940  98.6971767
  20.6434216  98.0984983  99.2062936  29.9941865  98.5863550 105.1382125
  29.9739792  98.4046845 105.9916904  30.0421065  99.4575569 105.1141709
  29.9976506  98.6880089 105.2605420  27.9388195 105.1750742 111.0630601
  27.8984049 104.5300419 110.4775757  28.7511513 105.1187360 111.3756014
  28.0531348 105.0709709 111.0227551  24.5295662 111.2269468 100.9655752
  24.1156061 110.5643598 100.5759594  25.2143036 111.3747327 100.4451447
  24.5694034 111.1510126 100.8312250  27.8960956 110.3859553 101.7179369
  27.4977239 110.4961824 100.9500189  27.2812176 110.5941620 102.3005929
  27.7459846 110.4333121 101.6910668  26.4688858  96.9933701  94.5853509
  25.8753698  97.3150698  94.0338076  26.5064136  96.1474797  94.3774615
  26.3863247  96.9158030  94.4736280  33.4282659  90.4446594 102.1181595
  32.9213524  89.7375733 102.0502773  34.2250093  90.1139782 102.2482672
  33.4709898  90.2919745 102.1280590  29.3446675  96.9513206  98.0155259
  29.1160368  96.9745907  97.1733617  29.6044751  96.1270673  98.1350269
  29.3492863  96.8329286  97.9080457  23.6265903  98.8047679 107.6180359
  23.1144806  98.1968862 107.9765390  23.4545399  99.5204271 108.0854335
  23.5255540  98.8210978 107.7396583  22.3991437  95.4889752  99.3109455
  22.8748804  95.8506832  98.6759636  21.8980037  96.1446220  99.5909597
  22.3956796  95.6383941  99.2586196  35.6302799 104.9611520  95.1022460
  36.0136405 105.7102876  95.3320557  34.8346912 105.2077340  94.8434449
  35.5696581 105.1081214  95.0980033  27.5034974  96.7271923 110.0582615
  28.0606404  96.4985733 109.4261080  27.1796039  97.4877589 109.7817827
  27.5381384  96.8055760 109.9239112  25.2218091  99.8139577 111.0234622
  25.9729418 100.1291254 111.3374176  25.4140667  99.6118748 110.1968544
  25.3609505  99.8306959 110.9478018  24.4418090  97.6330952  92.6782839
  24.8217055  97.6510581  91.8933953  23.7010687  98.0784941  92.5573686
  24.3886928  97.7012727  92.5446407  32.0703381  95.9413143  98.2658417
  32.0697607  95.7861800  99.1242694  31.8659561  96.7876130  98.2099803
  32.0403159  96.0433764  98.3846357  14.1320652  99.3652928 102.6817234
  13.9542413  98.9129537 103.4072149  13.8439674 100.1679089 102.8655711
  14.0633605  99.4175485 102.8160737  29.7944233 100.6210645 101.9194624
  30.2897898  99.9033640 101.8798644  28.9844009 100.3181443 101.8049111
  29.7488126 100.4708291 101.8968350  25.2402845 104.4708458  94.0691629
  24.4314167 104.1475132  94.0224938  25.7477753 103.7641680  94.0019877
  25.1952511 104.3189775  94.0521923  15.8693122 101.8980651  99.7938993
  15.0038641 101.8866342  99.6821764  15.9691938 101.7110874 100.6410132
  15.7567289 101.8686712  99.9027937  31.8596052 103.3714332 104.6071753
  32.2851123 102.8488754 104.0542178  31.4952972 103.9695170 104.0860376
  31.8682654 103.3824559 104.4480763  28.4474651 107.0848597 100.9372910
  28.9185830 107.7988859 101.1062896  28.7834830 106.4847347 101.4732780
  28.5669766 107.1020061 101.0405286  25.3644146  91.8576067 107.8931005
  25.4972052  91.0607061 108.2211981  25.7489299  92.3842470 108.4729281
  25.4400475  91.8175984 108.0274508  29.0848598 106.8766531 107.7000603
  28.5369544 106.2524414 107.4320668  29.5461626 107.0660803 106.9844682
  29.0715807 106.8125581 107.5551034  28.4376501  88.7806393 104.4912098
  27.6322465  88.6704123 104.8079937  28.3083237  88.8818849 103.6341964
  28.2996634  88.7790063 104.4120139  31.8942462  94.9451885 105.0851795
  31.3105451  95.4461092 104.6729363  32.2146756  94.4381441 104.4516119
  31.8555637  94.9443720 104.9310302  24.4337261  93.8592480  95.3610470
  25.2552956  94.0290793  95.1192165  23.9706912  94.0139741  94.6376768
  24.4868423  93.9074213  95.2182114  23.0232593  91.8535242 106.1408899
  23.5677006  91.5126369 106.7313241  23.0769529  92.7120704 106.2830183
  23.1121712  91.9290502 106.2490772  18.8363152 105.6151658 103.0147707
  19.4408009 105.5747492 102.3861528  18.6290464 106.4622810 103.0451763
  18.8952049 105.7339661 102.9263823  28.6506924 107.8817603 104.2309944
  29.4705298 107.7380570 104.4926239  28.3701002 108.5063802 104.7726382
  28.7303667 107.9527956 104.3497884  45.1220574 115.5382455  97.1952820
  45.0914579 116.3927092  97.3671090  45.7201923 115.2377748  97.7538964
  45.2057732 115.6198952  97.3027623  38.3220259 114.6258106 101.9505751
  37.4658155 114.7866604 102.0014868  38.3687913 113.7550170 101.9710812
  38.2019371 114.5208908 101.9611817  41.6313976 120.8944632 111.5566207
  42.3380743 120.3996663 111.6853141  41.8201911 121.3353713 110.8268865
  41.7641881 120.8862982 111.4675253  41.1672080 116.6850150 104.5937403
  41.7128040 117.3635237 104.6531372  41.1088957 116.5437611 103.7338984
  41.2387995 116.7642152 104.4749463  42.9437149 118.1134757  95.4671130
  42.8276675 118.8642443  95.8963268  43.7393036 117.8558711  95.7167217
  43.0441738 118.1869604  95.5675222  29.7801287 112.3645233 102.5042396
  29.1606318 111.7737881 102.3352411  29.6785150 112.9556669 101.8706720
  29.6738962 112.3649316 102.3847386  36.8769182 114.1044775  96.8374859
  37.5749347 114.2832903  97.3296323  37.1921515 113.5815115  96.2145249
  37.0264520 114.0538547  96.8176870  29.5070420 115.9097515 104.7485965
  29.3829117 116.4959961 105.3835784  30.1588704 115.4157711 105.0498240
  29.5844069 115.9236320 104.8871895  34.5328761 119.0859232 104.0273476
  35.1777763 118.5931675 103.7084425  34.7730538 119.2284019 104.8539555
  34.6639346 119.0336674 104.1023010  35.0496046 109.4737172 100.9196134
  34.7199376 109.9248315 100.2499833  34.3741048 109.3953335 101.4669141
  34.9006482 109.5288307 100.9019357  40.6666454 118.8442402  93.7785420
  40.5817750 119.7003368  93.9234989  41.1550838 118.5686726  94.4467579
  40.7255352 118.9299723  93.8987502  42.2572454 105.4622695  99.1645745
  41.9425895 106.1526173  99.5966167  41.7399395 105.4067477  98.4631245
  42.1336924 105.5557583  99.1242694  41.5984888 115.4627196  95.2783155
  41.0696359 115.6786829  95.9380462  42.1209908 116.1563334  95.1984125
  41.5973341 115.5970333  95.3638755  47.0532941 121.0373500 100.6516200
  46.2230644 121.2484144 100.8149616  47.0042193 120.2110555 100.3758483
  46.9239676 120.9463106 100.6353565  37.9461710 115.6056065  92.5559544
  38.1857714 115.8134048  91.7434887  38.2677551 114.8013573  92.6648488
  38.0298868 115.5170166  92.4520097  33.2552000 107.5349460  96.4019082
  34.0097968 107.9027777  96.1636132  33.0779535 107.9089015  97.1698261
  33.3406478 107.6447648  96.4803970  46.5486899 113.6843901 104.4466621
  45.7115320 113.7546088 104.6814216  46.5175130 113.6868396 103.5740923
  46.4205181 113.6954128 104.3526169  31.6109065 109.9419779  93.0997195
  31.4284638 110.1591660  92.2738188  32.4734678 110.0558792  93.1555809
  31.7113654 109.9909677  92.9851682  37.2908784 106.9446190  96.1346219
  38.0194944 106.7662145  95.6884375  37.3803677 107.7864270  96.3453397
  37.4115446 107.0430068  96.0999736  41.2717085 117.8799577 100.0378513
  42.0274600 118.3131092 100.0767421  41.3779409 117.2304347 100.6113149
  41.3987255 117.8477061 100.1276538  44.3097256 121.7072855 100.7880916
  43.8732488 121.7109597 101.5439887  43.9760171 122.3878354 100.3560493
  44.1959876 121.8085310 100.8361748  44.2294739 108.7486682 103.0310343
  44.8720647 108.8184787 103.6172259  44.4817759 108.0815905 102.5289885
  44.3616871 108.6613031 103.0437623  31.1571092 113.2193952  91.6119668
  30.4429269 112.9332131  92.0242100  31.6415060 113.5590578  92.2526055
  31.1230455 113.2275602  91.7675303  32.0011951 111.9587246 107.6434917
  31.3083748 111.4884225 107.8895649  32.6172279 111.7325550 108.2176625
  31.9896481 111.8554378 107.7644070  47.4441602 118.4253774  99.6800553
  48.1058036 117.8644443  99.5796461  46.8033014 117.9305805 100.0053244
  47.4470469 118.2690183  99.7132893  43.7306433 119.4419157  99.4212542
  43.9662022 119.5864356  98.5939392  43.8795996 120.2061565  99.8144055
  43.7872236 119.5758211  99.3576145  45.5596889 118.2820823  97.2582145
  45.8905106 118.8148463  96.6522240  46.1329978 118.3359711  97.9144096
  45.6930569 118.3690392  97.2659927  40.7728779 116.1285726  97.9405725
  40.8675633 116.8675020  98.3945351  40.1487622 115.7003201  98.3740290
  40.6937809 116.1747046  98.0713873  39.0281252 119.3071938 108.5896006
  39.6020114 118.6699182 108.7444570  38.9496056 119.3076021 107.7205664
  39.1014487 119.2137050 108.4842417  27.6277669 116.0861148 102.4278721
  28.2051171 115.9497598 103.0670966  26.9291731 115.6296932 102.6824305
  27.6098690 115.9983414 102.5601010  41.0251800 117.9734465  91.1742678
  40.9431962 118.0436652  92.0397664  41.6631520 118.5364209  90.9826418
  41.1071637 118.0673436  91.2732627  34.3844971 117.7395203 100.6417204
  34.1264215 116.9066938 100.6148503  34.4393454 117.9652816  99.8009704
  34.3544749 117.6492974 100.5137341  39.4646021 109.8423654 100.7421296
  38.7602348 109.3532839 100.9005216  39.5130995 109.8546128  99.8709741
  39.3676073 109.7713302 100.6360636  33.3579683 115.2932966 101.1282099
  32.7829274 115.4525134 101.7646060  32.9815359 114.6568375 100.6650549
  33.2182495 115.2230779 101.1536657  37.0252972 113.7656315 105.9874477
  36.6367405 113.3410533 105.3326668  36.3607670 114.0138465 106.4951504
  36.8699900 113.7395036 105.9662345  46.6676241 113.5231320  98.7622307
  46.4112806 112.7111261  98.5720190  47.5105555 113.5308887  98.5352494
  46.7542266 113.4043317  98.7007124  23.1036502 114.9373040  99.1426539
  23.1896754 114.5604909  99.9240069  23.7312299 114.5633486  98.6646497
  23.2093053 114.8258523  99.1872016  40.8479333 107.4630944 103.4998461
  41.2289845 106.7809115 103.8866335  40.0442618 107.1740546 103.3174126
  40.7855795 107.3197992 103.5302517  38.1291910 117.9954920  94.1851284
  38.9432549 118.2869812  94.0734055  38.0651051 117.3414782  93.6109577
  38.2394649 117.9420114  94.0840121  44.3501400 120.6780916 108.5980860
  44.1140038 119.8468981 108.4792920  44.9944629 120.6266523 109.1835704
  44.4096071 120.5478604 108.6666753  34.6402633 116.6878727  93.6498485
  35.0247786 116.4686434  94.4015031  34.3914254 117.5141672  93.7799562
  34.6604706 116.7776873  93.7799562  34.8071174 109.9685142 113.3661070
  34.4924615 110.7384705 113.1030632  34.4861106 109.4055398 112.7813297
  34.7130093 109.9995411 113.2402420  45.3737821 120.4625364 104.6609154
  45.0683638 121.1953421 105.0222470  44.6544036 120.0563294 104.3801940
  45.2225163 120.5107097 104.6722291  51.0739613 117.1018365 103.9877498
  51.0064113 117.1214324 103.1180085  51.0595275 117.9448692 104.2133169
  51.0618369 117.2292100 103.8929975  32.3603071 108.3575663  98.9807266
  31.4925496 108.4298263  99.0464875  32.6478275 109.1597742  99.1695241
  32.2742819 108.4869811  99.0182033  41.4835959 108.5053523 107.3118588
  42.2289551 108.3163333 106.8982013  41.0673264 109.0311761 106.7532444
  41.5320934 108.5555668 107.1683161  48.8598230 115.8762751 102.2624093
  49.4106152 115.2430820 102.5021185  48.8442346 116.4078144 102.9539597
  48.9383427 115.8611699 102.4002951  42.5626637 114.1159085 101.3728689
  42.2191402 113.3949420 101.7235939  42.6619679 113.9072936 100.5307047
  42.5268679 113.9783288 101.3000369  43.0239666 120.5784789  96.9152677
  43.5897698 121.2377999  96.8311220  42.3767569 120.9234487  97.3869079
  43.0118422 120.7266730  96.9725434  34.4387679 112.5682393 112.1046284
  33.6287455 112.8740173 111.9936127  34.9162366 113.2887975 112.2198869
  34.3891158 112.7196994 112.1053356  30.2870423 111.8333923  96.4224142
  29.9995218 111.4635193  95.6856090  30.9740891 112.3028778  96.1607847
  30.3459320 111.8480892  96.2739218  33.1224094 115.6986871  97.8691547
  33.8446746 115.8628029  97.4095353  32.6432087 116.4196536  97.7630887
  33.1587825 115.8285101  97.7857161  41.0817602 112.0350670 103.2488232
  40.2428703 112.0611949 103.0126495  41.1521969 112.6821405 103.8293579
  40.9685995 112.1346796 103.2997349  39.5286880 108.9336047  97.9815848
  40.2313233 108.7343795  97.5035806  39.2631069 108.1611989  98.2884691
  39.5933513 108.7899013  97.9561289  44.9575126 117.2418657 100.5349474
  44.8709100 117.3974083 101.3884252  44.5025606 117.8856732 100.1608879
  44.8778382 117.3594412 100.6056580  27.8598617 112.6115135  97.2709423
  27.9614754 113.4141297  97.5990399  28.6554504 112.4102471  96.9732504
  27.9926523 112.7001034  97.2744779  34.2915436 110.1971332 107.0346728
  34.0998633 110.2126466 107.8846152  35.1414032 110.3935006 107.0113383
  34.3891158 110.2285683 107.1570023  28.6762349 112.7262313 105.0130545
  28.5347841 111.8746254 105.1375053  28.9602913 112.7690974 104.1892751
  28.6970196 112.6062063 104.9098169  38.8300942 114.5629404  99.1575033
  38.5835656 114.4825155  99.9911822  39.1586065 113.7782871  98.9637561
  38.8422185 114.4355669  99.2522556  42.7248991 121.2712763 102.9461814
  42.5863350 121.9693809 103.4510557  41.9448989 121.1161419 102.5897996
  42.5892218 121.3512930 102.9688089  41.0627076 117.5709138 109.1984196
  41.0575114 116.6988955 109.2026623  41.7688070 117.7697307 108.7253652
  41.1672080 117.4713013 109.1291231  34.7897969 117.2986122 108.5698016
  34.9341345 117.8787330 107.9341126  35.1373618 117.6762419 109.2747871
  34.8625430 117.4406826 108.5797011  36.9617886 116.4976291 106.3523148
  36.2141200 116.6907305 105.9471426  37.1159412 115.6721510 106.1147269
  36.8740314 116.4041402 106.2568554  44.2202363 120.6291017  93.7078314
  43.8409172 119.8428155  93.7007603  43.5568609 121.1777874  93.5649958
  44.0660838 120.5935841  93.6859110  37.2019663 110.3926841 107.2418552
  37.6592278 111.1250816 107.3691344  37.2775992 109.9693307 108.0005807
  37.2810633 110.4384079 107.3719628  29.4452655 110.6392661 108.3307995
  28.9094844 110.0273019 108.6468763  29.5070419 111.2140797 108.9841662
  29.3748287 110.6339589 108.4743422  41.6746989 103.5716717 101.1112394
  41.7930558 104.0293180 100.3779697  41.5009165 102.7661978 100.8248612
  41.6666160 103.5210489 100.9613328  35.0802041 112.3828945 104.0860376
  34.2898116 112.2020405 104.4077711  35.4762664 111.6055898 104.0690670
  35.0218918 112.2416406 104.1312924  40.4645728 120.0171375 101.8119821
  39.7890730 119.7856608 102.3133209  40.4738104 119.4092558 101.1861927
  40.3664232 119.8930301 101.7935974  37.5939872 114.8589204 108.5683874
  37.5299013 115.7199161 108.4404011  37.7337059 114.5421198 107.7679426
  37.6055342 114.9389371 108.4312087  36.2758966 117.5521344 102.7100077
  35.8521215 117.7525843 101.9739096  36.1003821 116.7050192 102.8224377
  36.1869846 117.4570125 102.6173767  38.1020555 117.4231279  97.0121413
  38.6436101 116.9201660  97.4760034  38.4167114 117.3696473  96.2010898
  38.2284952 117.3410700  96.9605225  39.2509825 112.3167583 107.0643714
  39.4651794 111.6778497 106.5107068  38.6343724 112.7613407 106.6351575
  39.1915154 112.2877727 106.9194145  28.1375672 115.2308346  98.4588817
  28.5174637 115.6492891  97.7949084  27.5631037 115.8121801  98.7657660
  28.1086997 115.3786204  98.4065558  41.4148913 113.9256648 108.0027021
  40.6025594 113.6182539 108.0840193  41.8738847 113.4455649 108.5669733
  41.3629297 113.8093141 108.0981615  38.6424553 105.4267519 102.0531056
  37.7718111 105.4006240 102.0064366  38.8964894 105.2544711 101.2356902
  38.5518113 105.3977663 101.9251193  35.6142533 117.4835486  90.9904199
  35.9035057 118.2600368  91.2647774  35.7014331 116.9724217  91.6918699
  35.6696789 117.5227404  91.1346697  38.5102420 115.3316720 112.7855723
  38.9802051 115.9558836 113.1723597  38.5564300 114.6633695 113.3448938
  38.5870296 115.3251400 112.9255794  35.6673694 107.4373747 103.5104527
  35.1512182 106.7453939 103.6356106  35.1067623 108.1044524 103.4567125
  35.5080207 107.4337005 103.5210593  37.7365927 107.9766707 105.3397379
  37.3497680 108.0015739 106.1210909  37.2498864 107.4108386 104.8871896
  37.6078436 107.8962458 105.3885283  43.7115907 114.5429362 103.9637082
  43.2843515 114.4555711 103.2085181  43.0741960 114.6507138 104.5491926
  43.5545514 114.5462022 103.9382523  37.4023069 104.8633693 107.6307639
  38.0316187 105.3993993 107.3528710  37.5708932 104.7711052 108.4821205
  37.5200863 104.9295055 107.7156167  37.2036984 109.6504888 109.9034051
  38.0310413 109.3790036 109.9592665  37.2244830 110.4465729 110.2597869
  37.3289834 109.7284642 109.9649234  31.7806474 116.7968750 103.0904311
  30.9394480 116.6972625 103.2983205  31.9896482 117.5664231 103.4418632
  31.6871166 116.8960794 103.1731626  29.2582041 114.4188287 100.9189062
  28.8638738 114.4931299 100.1439172  28.7022157 114.8046234 101.4697424
  29.1184853 114.4870062 100.8856722  40.8946987 107.3969581 100.5992941
  41.0996581 107.3291889 101.4449938  40.5673411 108.2028403 100.5314118
  40.8762235 107.5055522 100.7152596  35.5923138 114.7250150 102.3401909
  35.2886276 114.1706138 102.9412317  34.8902559 114.9042360 101.8529943
  35.4439348 114.6694932 102.3571615  34.6489236 112.0350669  96.9046611
  34.9248970 111.3169582  96.4924178  35.2487905 112.6335589  96.6967717
  34.7782500 112.0171040  96.8127372  44.1480675 107.9501346 100.0795706
  43.5354989 108.4371748 100.4649438  44.2444850 107.2744836 100.6233358
  44.0718573 107.9219654 100.2174565  38.1499756 109.7064187  95.1793206
  38.6043503 109.8774747  95.9041050  38.6239802 109.0932297  94.7790982
  38.2868076 109.6415072  95.2266967  32.0675904 110.3514510 105.1763962
  32.5277386 110.4253440 105.9139086  32.1132011 111.1495764 104.8263783
  32.1426460 110.4808657 105.2336718  33.7159254 111.0181205 109.7435989
  33.3244819 110.3714552 110.1791767  33.8845117 111.6092641 110.3630244
  33.6830164 111.0095473 109.8998695  47.7905703 119.0218282 105.5073223
  47.8488827 119.4704931 106.2533199  47.1572171 119.4317095 105.0703303
  47.7056998 119.1492017 105.5525771  35.4912776 116.4106721  96.2838213
  36.2354821 116.7980997  96.5221163  35.6373472 115.5664146  96.4478701
  35.6223361 116.3437194  96.3432183  37.4092352 108.2056980 101.3170075
  36.5628397 108.3779788 101.1911424  37.4063484 107.4006324 101.6535903
  37.2839501 108.1118009 101.3481201  38.4790652 111.9832194 102.1832132
  38.0050606 111.4573956 102.6937443  38.8508788 111.4361667 101.6146994
  38.4640541 111.8248191 102.1747280  28.8563682 113.9803701 107.5515678
  29.7189295 113.8799410 107.4653008  28.5255465 113.3998410 106.9901250
  28.9348878 113.8795328 107.4561084  44.7427382 117.0434570 103.5938913
  44.5025605 116.2040985 103.5981339  45.2219390 117.1234737 104.3179686
  44.7779566 116.9315970 103.7013715  40.4074152 112.8768749  95.2457886
  39.8797170 112.9597493  94.5563595  40.8669860 113.6186620  95.2422531
  40.3976002 112.9989411  95.1432581  46.7432570 113.8236027 101.5468172
  46.5042339 113.7831861 100.7088957  46.9066471 114.6707179 101.6733893
  46.7322873 113.9428112 101.4421654  43.3478600 118.2085977 107.4773217
  44.0712799 117.7558503 107.2984237  43.0828562 118.4890642 106.6945545
  43.4159873 118.1836945 107.3351933  32.2165468 112.8046150 104.2126096
  31.5918538 112.8164542 103.6052049  31.8811063 113.2806325 104.8617337
  32.0750960 112.8764667 104.2182665  32.4007217 111.1471269  90.2698781
  32.0520021 111.7990994  90.7330331  31.9203663 111.1328382  89.5422653
  32.2777461 111.2414322  90.2309873  39.1297389 118.3069855 105.6268232
  38.5154382 117.7627905 105.9216868  39.6464674 117.7934091 105.1474048
  39.1153052 118.1506264 105.5992461  38.3693686 119.3774125 103.3612531
  37.9421294 118.7523843 102.9277966  38.3618631 119.0949047 104.1871538
  38.3052827 119.2426905 103.4192358  31.4856213 114.4139298 106.4300965
  31.6449700 113.6582622 106.8352687  31.3049107 114.9630237 107.0841703
  31.4821572 114.3833112 106.5863671  39.4276516 106.5800533 106.9851754
  38.9317078 106.7764208 106.2943321  40.1845578 106.9793202 106.8140556
  39.4663341 106.6678267 106.8571891  36.6979396 110.2542879 103.5755065
  36.7221883 109.7202992 102.8867845  36.9490870 109.7460188 104.2380655
  36.7389315 110.1003783 103.5719710  32.9780718 108.9813698 102.9560809
  33.0179090 109.4822904 103.6695517  32.1530383 109.0724091 102.6866732
  32.8620244 109.0695514 103.0211347  34.3995082 115.4974207 105.2534708
  33.5687011 115.6648025 105.0469956  34.3446599 115.1210158 106.0383594
  34.2684496 115.4663939 105.3383236  32.2078865 108.9883100 110.8891119
  32.8331568 108.4445233 111.1620551  31.7529345 108.5078018 110.3198909
  32.2327125 108.8372582 110.8452713  32.7731125 113.7729799  95.7824826
  32.9134087 114.2702263  96.4853467  33.2713658 113.0716093  95.9239040
  32.8672206 113.7431778  95.9076405  32.8031348 114.6396910  93.1117403
  33.4376427 115.2357335  93.0466865  32.8856959 114.3400368  93.9263273
  32.9087899 114.6837818  93.2220489  45.7813914 117.1712387 105.9803767
  46.3731754 117.8109638 106.0121965  46.2172908 116.4735424 106.2695834
  45.9332345 117.1630738 106.0284600  34.3810331 110.5710885  93.0862845
  34.7026172 110.0913968  92.4322107  34.6437274 111.3810531  92.8953656
  34.4676356 110.6200783  92.9618337  39.7769486 109.9583079 105.4486324
  40.2024557 109.5055606 104.8369850  39.1626479 109.4043150 105.7251111
  39.7498131 109.8097056 105.3991349  29.3084336 116.8364751  96.3806949
  29.8176565 117.4329258  96.7618254  29.7818608 116.5690724  95.6983368
  29.4527711 116.8850566  96.3361472  38.2163709 106.4298179  98.8576901
  37.5732026 106.2795826  99.4262039  37.8763115 106.1840524  98.0926005
  38.0708786 106.3710302  98.8279916  42.8063055 114.3857606  98.2806909
  42.1354245 114.9287308  98.1519975  43.5002805 114.8552461  98.0388604
  42.8091922 114.5355877  98.2262437  42.9691182 110.8413490 101.1897283
  43.3218793 110.4143213 101.8643081  42.1105984 110.7564333 101.3198359
  42.8940627 110.7658230 101.3092293  31.6674867 113.4721009  99.2480129
  30.9486857 113.8885142  99.5152993  32.0387230 114.0375248  98.6971767
  31.6166799 113.6170291  99.2062936  40.9674448 114.1048858 105.1382125
  40.9472376 113.9232153 105.9916904  41.0153649 114.9760877 105.1141709
  40.9709089 114.2065396 105.2605420  38.9120778 120.6936050 111.0630601
  38.8716633 120.0485727 110.4775757  39.7244096 120.6372668 111.3756014
  39.0263932 120.5895017 111.0227551  37.4421442 112.5119009  94.5853509
  36.8486281 112.8336006  94.0338076  37.4796719 111.6660105  94.3774615
  37.3595831 112.4343337  94.4736280  44.4015243 105.9631901 102.1181595
  43.8946107 105.2561041 102.0502773  45.1982676 105.6325090 102.2482672
  44.4442482 105.8105053 102.1280590  40.3179258 112.4698514  98.0155259
  40.0892951 112.4931215  97.1733617  40.5777335 111.6455981  98.1350269
  40.3225446 112.3514594  97.9080457  34.5998487 114.3232987 107.6180359
  34.0877390 113.7154170 107.9765390  34.4277983 115.0389579 108.0854335
  34.4988124 114.3396286 107.7396583  33.3724021 111.0075060  99.3109455
  33.8481387 111.3692140  98.6759636  32.8712621 111.6631528  99.5909597
  33.3689380 111.1569249  99.2586196  46.6035382 120.4796828  95.1022460
  46.9868988 121.2288184  95.3320557  45.8079496 120.7262648  94.8434449
  46.5429165 120.6266522  95.0980033  38.4767557 112.2457231 110.0582615
  39.0338987 112.0171041 109.4261080  38.1528622 113.0062897 109.7817827
  38.5113967 112.3241068 109.9239112  36.1950674 115.3324885 111.0234622
  36.9462001 115.6476562 111.3374176  36.3873251 115.1304056 110.1968544
  36.3342089 115.3492267 110.9478018  35.4150674 113.1516260  92.6782839
  35.7949639 113.1695889  91.8933953  34.6743270 113.5970249  92.5573686
  35.3619512 113.2198034  92.5446407  43.0435965 111.4598451  98.2658417
  43.0430191 111.3047108  99.1242694  42.8392145 112.3061438  98.2099803
  43.0135742 111.5619072  98.3846357  25.1053236 114.8838235 102.6817234
  24.9274997 114.4314844 103.4072149  24.8172258 115.6864397 102.8655711
  25.0366189 114.9360793 102.8160737  40.7676817 116.1395953 101.9194624
  41.2630482 115.4218948 101.8798644  39.9576592 115.8366750 101.8049111
  40.7220710 115.9893599 101.8968350  36.2135428 119.9893766  94.0691629
  35.4046751 119.6660440  94.0224938  36.7210337 119.2826988  94.0019877
  36.1685095 119.8375082  94.0521923  42.8328635 118.8899640 104.6071753
  43.2583707 118.3674062 104.0542178  42.4685555 119.4880478 104.0860376
  42.8415238 118.9009867 104.4480763  36.3376730 107.3761375 107.8931005
  36.4704635 106.5792369 108.2211981  36.7221883 107.9027778 108.4729281
  36.4133059 107.3361292 108.0274508  39.4109085 104.2991701 104.4912098
  38.6055049 104.1889431 104.8079937  39.2815821 104.4004157 103.6341964
  39.2729218 104.2975371 104.4120139  42.8675046 110.4637193 105.0851795
  42.2838034 110.9646400 104.6729363  43.1879340 109.9566749 104.4516119
  42.8288221 110.4629028 104.9310302  35.4069845 109.3777788  95.3610470
  36.2285539 109.5476101  95.1192165  34.9439496 109.5325049  94.6376768
  35.4601007 109.4259521  95.2182114  33.9965177 107.3720550 106.1408899
  34.5409590 107.0311677 106.7313241  34.0502112 108.2306012 106.2830183
  34.0854296 107.4475810 106.2490772  53.2305037 120.9808003  99.1645745
  52.9158478 121.6711481  99.5966167  52.7131979 120.9252785  98.4631245
  53.1069508 121.0742891  99.1242694  48.2641368 122.4631498  96.1346219
  48.9927528 122.2847453  95.6884375  48.3536260 123.3049578  96.3453397
  48.3848030 122.5615376  96.0999736  55.2027322 124.2671990 103.0310343
  55.8453231 124.3370095 103.6172259  55.4550343 123.6001213 102.5289885
  55.3349454 124.1798339 103.0437623  51.8211917 122.9816252 103.4998461
  52.2022429 122.2994423 103.8866335  51.0175201 122.6925854 103.3174126
  51.7588379 122.8383300 103.5302517  52.4568543 124.0238831 107.3118588
  53.2022135 123.8348641 106.8982013  52.0405848 124.5497069 106.7532444
  52.5053517 124.0740976 107.1683161  50.5019464 124.4521355  97.9815848
  51.2045817 124.2529103  97.5035806  50.2363653 123.6797297  98.2884691
  50.5666096 124.3084321  97.9561289  52.6479573 119.0902024 101.1112394
  52.7663141 119.5478488 100.3779697  52.4741749 118.2847286 100.8248612
  52.6398744 119.0395797 100.9613328  49.6157137 120.9452827 102.0531056
  48.7450695 120.9191548 102.0064366  49.8697478 120.7730019 101.2356902
  49.5250697 120.9162971 101.9251193  48.7098511 123.4952015 105.3397379
  48.3230264 123.5201047 106.1210909  48.2231448 122.9293694 104.8871896
  48.5811020 123.4147766 105.3885283  48.3755652 120.3819001 107.6307639
  49.0048770 120.9179301 107.3528710  48.5441515 120.2896360 108.4821205
  48.4933447 120.4480363 107.7156167  51.8679571 122.9154889 100.5992941
  52.0729164 122.8477197 101.4449938  51.5405995 123.7213710 100.5314118
  51.8494819 123.0240830 100.7152596  55.1213259 123.4686654 100.0795706
  54.5087572 123.9557056 100.4649438  55.2177434 122.7930144 100.6233358
  55.0451156 123.4404962 100.2174565  48.3824935 123.7242288 101.3170075
  47.5360980 123.8965096 101.1911424  48.3796068 122.9191632 101.6535903
  48.2572085 123.6303317 101.3481201  50.4009100 122.0985841 106.9851754
  49.9049661 122.2949516 106.2943321  51.1578162 122.4978510 106.8140556
  50.4395925 122.1863575 106.8571891  49.1896292 121.9483487  98.8576901
  48.5464610 121.7981133  99.4262039  48.8495699 121.7025832  98.0926005
  49.0441369 121.8895610  98.8279916  55.3747826 121.4817209 102.1181595
  54.8678691 120.7746349 102.0502773  56.1715260 121.1510398 102.2482672
  55.4175065 121.3290361 102.1280590  47.3109313 122.8946683 107.8931005
  47.4437219 122.0977676 108.2211981  47.6954466 123.4213086 108.4729281
  47.3865642 122.8546600 108.0274508  50.3841669 119.8177009 104.4912098
  49.5787632 119.7074739 104.8079937  50.2548404 119.9189465 103.6341964
  50.2461801 119.8160679 104.4120139   0.9241064  30.4019355  84.1292867
   0.8935068  31.2563991  84.3011137   1.5222413  30.1014647  84.6879011
   1.0078222  30.4835851  84.2367670   2.8553430  35.9010400  87.5856247
   2.0251133  36.1121043  87.7489663   2.8062682  35.0747454  87.3098530
   2.7260166  35.8100006  87.5693612   2.3507388  28.5480800  91.3806668
   1.5135810  28.6182987  91.6154262   2.3195619  28.5505295  90.5080970
   2.2225671  28.5591027  91.2866216   3.2462092  33.2890674  86.6140600
   3.9078526  32.7281342  86.5136508   2.6053504  32.7942705  86.9393291
   3.2490959  33.1327083  86.6472940   1.3617379  33.1457722  84.1922192
   1.6925596  33.6785362  83.5862287   1.9350467  33.1996610  84.8484143
   1.4951058  33.2327291  84.1999974   2.4696731  28.3868219  85.6962354
   2.2133295  27.5748161  85.5060237   3.3126045  28.3945786  85.4692541
   2.5562756  28.2680217  85.6347171   6.8760103  31.9655265  90.9217545
   6.8084603  31.9851224  90.0520132   6.8615765  32.8085592  91.1473216
   6.8638859  32.0928999  90.8270022   4.6618720  30.7399651  89.1964140
   5.2126641  30.1067720  89.4361232   4.6462835  31.2715044  89.8879644
   4.7403916  30.7248599  89.3342998   3.5926193  33.8855182  92.4413269
   3.6509316  34.3341831  93.1873246   2.9592660  34.2953995  92.0043349
   3.5077488  34.0128916  92.4865818   2.5453059  28.6872927  88.4808219
   2.3062829  28.6468761  87.6429003   2.7086960  29.5344079  88.6073940
   2.5343363  28.8065012  88.3761701   1.5834403  32.0349287  92.9143814
   2.1752243  32.6746538  92.9462012   2.0193398  31.3372324  93.2035881
   1.7352834  32.0267637  92.9624646   2.4055872  35.3433728  82.0362506
   2.7889478  36.0925084  82.2660603   1.6099985  35.5899547  81.7774495
   2.3449654  35.4903421  82.0320080  11.8973648  45.9204663  84.1292867
  11.8667652  46.7749299  84.3011137  12.4954996  45.6199955  84.6879011
  11.9810805  46.0021159  84.2367670   5.0973332  45.0080314  88.8845798
   4.2411228  45.1688812  88.9354915   5.1440986  44.1372378  88.9050859
   4.9772444  44.9031115  88.8951864   8.4067049  51.2766839  98.4906254
   9.1133816  50.7818870  98.6193188   8.5954984  51.7175921  97.7608912
   8.5394955  51.2685190  98.4015299   4.9339432  54.9668401  80.0768576
   4.5990800  55.6445323  79.6412799   5.4466302  54.5773712  79.4885448
   4.9605013  55.0092979  79.9255368   4.4743723  56.9182670  86.0179688
   4.8583103  57.4869568  85.4784463   4.4102865  56.1932180  85.5385504
   4.5217151  56.8958133  85.8673551   7.9425153  47.0672358  91.5277449
   8.4881113  47.7457444  91.5871419   7.8842030  46.9259818  90.6679031
   8.0141068  47.1464359  91.4089510   9.7190222  48.4956965  82.4011177
   9.6029748  49.2464651  82.8303315  10.5146109  48.2380918  82.6507264
   9.8194812  48.5691812  82.5015269   0.8999968  59.4739013  88.3160658
   1.5437423  59.9152177  88.7056816   1.2256223  58.6692439  88.2290917
   1.0431797  59.4204208  88.3606135   1.6020548  52.4850988  83.6880520
   1.9236389  53.0256195  83.0841828   2.2492644  51.9147759  83.8202809
   1.7446603  52.4810163  83.6187555   3.6522256  44.4866983  83.7714906
   4.3502420  44.6655110  84.2636370   3.9674588  43.9637322  83.1485296
   3.8017593  44.4360755  83.7516916   3.8410191  50.8737428  83.7594698
   4.2803827  50.2654528  84.2049471   3.6914854  50.4944801  82.9880163
   3.8831657  50.7275899  83.7113865   1.3081834  49.4681439  90.9613523
   1.9530837  48.9753883  90.6424472   1.5483611  49.6106226  91.7879602
   1.4392419  49.4158882  91.0363056   3.8467925  52.3136345  90.6120416
   4.1291168  51.5187751  90.3907172   4.5754086  52.7916933  90.6325477
   3.9957489  52.2670942  90.5823431   1.8249119  39.8559379  87.8536181
   1.4952449  40.3070523  87.1839880   1.1494121  39.7775543  88.4009187
   1.6759556  39.9110514  87.8359404   7.4419528  49.2264609  80.7125467
   7.3570823  50.0825576  80.8575036   7.9303911  48.9508933  81.3807626
   7.5008425  49.3121930  80.8327549   9.0325527  35.8444902  86.0985792
   8.7178968  36.5348381  86.5306214   8.5152469  35.7889684  85.3971292
   8.9089997  35.9379791  86.0582741   8.3737961  45.8449403  82.2123202
   7.8449432  46.0609037  82.8720508   8.8962981  46.5385542  82.1324171
   8.3726414  45.9792540  82.2978801  13.8286014  51.4195708  87.5856247
  12.9983717  51.6306351  87.7489663  13.7795266  50.5932762  87.3098530
  13.6992749  51.3285314  87.5693612   1.8895751  54.2499562  90.4204156
   1.3722693  53.8906977  89.8165464   2.5870143  53.7261736  90.4310222
   1.9161332  54.1197250  90.3334415   5.5459343  54.6994376  96.3820329
   5.6342689  54.5120516  97.2298539   5.9749056  54.0531805  95.9825176
   5.6221446  54.5757383  96.4492081   3.1129803  53.9825536  95.3637991
   2.5500638  53.5698146  95.8877653   3.8750827  53.9078441  95.7831135
   3.1424252  53.9102936  95.5030992   4.7214783  45.9878272  79.4899591
   4.9610787  46.1956256  78.6774934   5.0430624  45.1835781  79.5988535
   4.8051941  45.8992373  79.3860144  13.3239972  44.0666108  91.3806668
  12.4868393  44.1368295  91.6154262  13.2928203  44.0690603  90.5080970
  13.1958254  44.0776335  91.2866216   4.0661857  37.3268397  83.0686265
   4.7948018  37.1484352  82.6224422   4.1556750  38.1686477  83.2793444
   4.1868519  37.4252276  83.0339783   8.0470158  48.2621785  86.9718559
   8.8027673  48.6953299  87.0107468   8.1532482  47.6126554  87.5453195
   8.1740328  48.2299269  87.0616585  11.0850329  52.0895062  87.7220962
  10.6485561  52.0931804  88.4779934  10.7513244  52.7700561  87.2900540
  10.9712949  52.1907518  87.7701795   5.6579403  54.1303395  99.0464113
   6.4419819  54.2434243  99.4119855   5.4575997  53.3044532  99.2422799
   5.7445428  54.0250114  99.1298499  11.0047812  39.1308890  89.9650390
  11.6473720  39.2006994  90.5512306  11.2570833  38.4638113  89.4629932
  11.1369944  39.0435238  89.9777670   5.8149796  56.0413497  92.6930568
   5.0165042  55.8012997  92.9504437   6.2635807  56.0927890  93.4397616
   5.7624407  56.0135888  92.8415493  14.2194675  48.8075982  86.6140600
  14.8811109  48.2466650  86.5136508  13.5786087  48.3128013  86.9393291
  14.2223543  48.6512391  86.6472940   5.1071483  52.1046113  78.9221523
   5.5222631  51.7731137  78.2306019   4.2763413  51.8715016  78.7941660
   5.0459492  52.0217369  78.8012370  10.5059506  49.8241364  86.3552588
  10.7415095  49.9686563  85.5279439  10.6549070  50.5883772  86.7484102
  10.5625309  49.9580419  86.2916192  12.3349963  48.6643030  84.1922192
  12.6658180  49.1970670  83.5862287  12.9083051  48.7181918  84.8484143
  12.4683642  48.7512599  84.1999974   4.8750533  49.7873942 100.5850756
   4.0823514  50.1017454 100.7703376   4.9899460  50.0025410  99.7471541
   4.7745943  49.8657778 100.4889091   7.5481852  46.5107933  84.8745772
   7.6428706  47.2497227  85.3285398   6.9240695  46.0825408  85.3080337
   7.4690882  46.5569253  85.0053920   5.8034326  49.6894146  95.5236053
   6.3773187  49.0521390  95.6784617   5.7249129  49.6898228  94.6545711
   5.8767560  49.5959257  95.4182464   7.8004873  48.3556673  78.1082724
   7.7185036  48.4258860  78.9737711   8.4384594  48.9186417  77.9166465
   7.8824710  48.4495644  78.2072674   1.1598044  48.1217411  87.5757251
   0.9017288  47.2889145  87.5488550   1.2146527  48.3475024  86.7349751
   1.1297822  48.0315182  87.4477387   6.2399094  40.2245861  87.6761343
   5.5355421  39.7355047  87.8345262   6.2884069  40.2368336  86.8049788
   6.1429146  40.1535509  87.5700683   3.8006045  44.1478522  92.9214524
   3.4120478  43.7232740  92.2666715   3.1360743  44.3960672  93.4291550
   3.6452973  44.1217243  92.9002392  13.4429314  43.9053527  85.6962354
  13.1865879  43.0933469  85.5060237  14.2858628  43.9131094  85.4692541
  13.5295340  43.7865525  85.6347171   7.6232407  37.8453151  90.4338508
   8.0042918  37.1631322  90.8206382   6.8195691  37.5562753  90.2514172
   7.5608868  37.7020200  90.4642564   4.9044983  48.3777127  81.1191331
   5.7185622  48.6692020  81.0074102   4.8404125  47.7236989  80.5449624
   5.0147722  48.3242322  81.0180168  11.1254473  51.0603123  95.5320906
  10.8893111  50.2291188  95.4132967  11.7697702  51.0088730  96.1175751
  11.1849144  50.9300811  95.6006800   0.7752892  51.8498644  86.2463643
   1.4126838  51.6110392  86.7915436   1.2007963  52.0535803  85.5116803
   0.9329058  51.8449655  86.2180800   1.4155707  47.0700934  80.5838532
   1.8000859  46.8508641  81.3355077   1.1667327  47.8963880  80.7139609
   1.4357779  47.1599080  80.7139609   1.5824247  40.3507349 100.3001116
   1.2677688  41.1206912 100.0370679   1.2614180  39.7877605  99.7153343
   1.4883166  40.3817618 100.1742466  12.1490894  50.8447572  91.5949201
  11.8436711  51.5775629  91.9562517  11.4297110  50.4385501  91.3141987
  11.9978236  50.8929305  91.6062338   3.1574363  52.3271067  87.9257429
   3.2313372  52.1646239  88.7799279   3.9743870  52.5161257  87.6817911
   3.2890722  52.3307809  88.0155455  17.8492686  47.4840573  90.9217545
  17.7817186  47.5036532  90.0520132  17.8348349  48.3270900  91.1473216
  17.8371443  47.6114307  90.8270022   8.2589033  38.8875730  94.2458635
   9.0042625  38.6985541  93.8322060   7.8426337  39.4133968  93.6872491
   8.3074007  38.9377876  94.1023208   1.6978949  55.2905810  82.6570903
   1.9877248  54.8994791  81.9330129   2.4282430  55.4722515  83.0976178
   1.8485833  55.2599624  82.6153710  15.6351304  46.2584959  89.1964140
  16.1859225  45.6253028  89.4361232  15.6195419  46.7900352  89.8879644
  15.7136500  46.2433907  89.3342998   2.2873694  50.0923556  93.7424033
   1.7885388  50.8039324  93.8208921   3.0973919  50.4124223  93.7042195
   2.3329801  50.2450405  93.7480602   9.3379710  44.4981292  88.3068736
   8.9944476  43.7771628  88.6575985   9.4372752  44.2895144  87.4647094
   9.3021753  44.3605496  88.2340416   1.8052820  58.6402582  84.5061745
   2.4576879  58.1079025  84.7352771   1.1078429  58.2871235  84.8929619
   1.7983538  58.5092105  84.5973912   9.7992739  50.9606996  83.8492724
  10.3650771  51.6200206  83.7651267   9.1520642  51.3056695  84.3209126
   9.7871495  51.1088938  83.9065480   6.2699317  53.9045781  83.2729803
   6.0285993  53.1713641  82.8656868   6.4500650  54.4532638  82.6196136
   6.2606941  53.8768172  83.1160026   1.4998638  49.1954340  84.6850725
   1.3041420  49.8029075  84.0911028   1.7232983  48.5022284  84.2042399
   1.5033279  49.1831866  84.5266806   7.8570675  42.4172877  90.1828279
   7.0181776  42.4434156  89.9466542   7.9275042  43.0643613  90.7633625
   7.7439069  42.5169003  90.2337396   6.3039953  39.3158254  84.9155895
   7.0066306  39.1166002  84.4375853   6.0384142  38.5434197  85.2224738
   6.3686586  39.1721220  84.8901336  11.7328199  47.6240864  87.4689520
  11.6462174  47.7796290  88.3224299  11.2778679  48.2678939  87.0948925
  11.6531456  47.7416619  87.5396627   1.0668510  40.5793539  93.9686775
   0.8751707  40.5948674  94.8186199   1.9167106  40.7757214  93.9453430
   1.1644232  40.6107891  94.0910070   5.6054015  44.9451611  86.0915080
   5.3588729  44.8647362  86.9251869   5.9339138  44.1605079  85.8977607
   5.6175259  44.8177876  86.1862603   9.5002064  51.6534970  89.8801861
   9.3616423  52.3516016  90.3850604   8.7202062  51.4983627  89.5238043
   9.3645291  51.7335137  89.9028135   7.8380149  47.9531346  96.1324243
   7.8328187  47.0811162  96.1366669   8.5441143  48.1519515  95.6593699
   7.9425153  47.8535220  96.0631278   1.5651042  47.6808330  95.5038063
   1.7094418  48.2609538  94.8681173   1.9126691  48.0584626  96.2087918
   1.6378504  47.8229034  95.5137058   3.7370960  46.8798498  93.2863195
   2.9894274  47.0729512  92.8811473   3.8912485  46.0543718  93.0487316
   3.6493387  46.7863609  93.1908600   0.6378797  55.8711101  92.3699090
   0.7868361  55.3114017  91.7172494   1.4178799  55.9503103  92.7531609
   0.7752891  55.7996667  92.3296039  10.9955437  51.0113224  80.6418360
  10.6162245  50.2250362  80.6347650  10.3321682  51.5600081  80.4990005
  10.8413911  50.9758048  80.6199157   3.1632098  56.0425744  93.6483581
   3.0875769  55.3734555  94.2034369   3.0921957  56.7443532  94.1624247
   3.1412705  56.0470652  93.8060429   3.9772737  40.7749049  94.1758598
   4.4345351  41.5073023  94.3031391   4.0529065  40.3515514  94.9345854
   4.0563707  40.8206287  94.3059675   8.4500063  33.9538924  88.0452441
   8.5683631  34.4115387  87.3119744   8.2762238  33.1484185  87.7588659
   8.4419234  33.9032696  87.8953375   3.8202345  54.5626743  84.4807187
   4.5852236  54.2936387  84.1589851   3.7180435  54.0776754  85.1977249
   3.9183840  54.4516308  84.5387014   1.8555115  42.7651153  91.0200422
   1.0651189  42.5842613  91.3417758   2.2515737  41.9878105  91.0030717
   1.7971991  42.6238614  91.0652971   6.3421005  51.5938927  76.4607136
   7.1093991  51.6539052  76.0512988   5.8952314  51.0219368  75.9763455
   6.3894433  51.5175503  76.3284846   7.2398801  50.3993583  88.7459868
   6.5643803  50.1678815  89.2473255   7.2491177  49.7914766  88.1201973
   7.1417305  50.2752508  88.7276021   4.3692945  45.2411412  95.5023921
   4.3052086  46.1021368  95.3744058   4.5090133  44.9243405  94.7019473
   4.3808415  45.3211578  95.3652134   9.2415535  53.2558715  80.9770046
   9.3235373  54.0625701  80.6531497   9.7265278  53.2754674  81.7010820
   9.3252693  53.3779378  81.0356945   3.0512039  47.9343551  89.6440124
   2.6274288  48.1348050  88.9079143   2.8756894  47.0872399  89.7564424
   2.9622919  47.8392333  89.5513814   2.5523732  59.4494064  92.1061581
   3.0419663  58.7504853  91.9237246   1.9807965  59.1517934  92.6937639
   2.5408262  59.3020288  92.1662622   4.8773628  47.8053486  83.9461460
   5.4189174  47.3023867  84.4100081   5.1920187  47.7518681  83.1350945
   5.0038025  47.7232907  83.8945272   8.7490736  52.0156133 101.0588372
   9.5625601  51.7441282 101.2193505   8.5885702  51.7163673 100.2548568
   8.8460684  51.9311059 100.9633778   3.0460078  53.1970838  81.2301488
   3.1152898  52.3385376  81.3694488   3.8248533  53.4142719  80.9020513
   3.1712928  53.1023702  81.2018645   6.0262898  42.6989791  93.9983760
   6.2404867  42.0600705  93.4447114   5.4096797  43.1435614  93.5691622
   5.9668227  42.6699934  93.8534191   7.4367566  55.6208539  85.4437981
   7.0447357  55.3175254  84.7260847   7.5920638  56.4577629  85.2542935
   7.4021156  55.6992376  85.3094478   8.1901986  44.3078856  94.9367067
   7.3778667  44.0004746  95.0180240   8.6491920  43.8277856  95.5009780
   8.1382371  44.1915348  95.0321662   7.6007240  52.1858528  85.3844012
   7.2421895  52.3573171  86.1608044   7.1145951  52.6471733  84.8272010
   7.4765937  52.2797499  85.4169281   5.4177626  35.8089726  88.9871103
   4.5471184  35.7828447  88.9404413   5.6717968  35.6366918  88.1696949
   5.3271186  35.7799870  88.8591240   2.3895606  47.8657693  77.9244246
   2.6788131  48.6422576  78.1987820   2.4767405  47.3546425  78.6258746
   2.4449862  47.9049612  78.0686744   5.2855493  45.7138927  99.7195770
   5.7555124  46.3381044 100.1063644   5.3317373  45.0455903 100.2788984
   5.3623369  45.7073608  99.8595841   2.4426767  37.8195955  90.4444574
   1.9265255  37.1276146  90.5696153   1.8820696  38.4866732  90.3907172
   2.2833280  37.8159212  90.4550640   4.5119000  38.3588915  92.2737426
   4.1250753  38.3837946  93.0550956   4.0251938  37.7930593  91.8211943
   4.3831509  38.2784666  92.3225330   8.7611980  53.0762424  96.3311213
   9.3991700  52.5822619  95.9973669   8.1186071  53.0039824  95.7463440
   8.7606206  52.9921432  96.1953568  10.4868980  44.9251570  90.8977128
  10.0596588  44.8377918  90.1425228   9.8495033  45.0329345  91.4831972
  10.3298587  44.9284230  90.8722570   4.1776142  35.2455900  94.5647686
   4.8069260  35.7816200  94.2868756   4.3462005  35.1533259  95.4161252
   4.2953937  35.3117263  94.6496214   3.9790057  40.0327095  96.8374098
   4.8063486  39.7612244  96.8932712   3.9997903  40.8287937  97.1937916
   4.1042907  40.1106849  96.8989281   8.8166236  53.7682232  92.9716569
   9.6058615  53.4171297  93.0918651   8.9909834  54.5818620  92.7093203
   8.9586518  53.8368089  92.9504437   7.6700061  37.7791789  87.5332988
   7.8749654  37.7114097  88.3789985   7.3426485  38.5850610  87.4654165
   7.6515308  37.8877729  87.6492643   2.3676212  45.1072357  89.2741956
   2.0639349  44.5528345  89.8752363   1.6655632  45.2864567  88.7869990
   2.2192421  45.0517139  89.2911661   1.4242309  42.4172877  83.8386658
   1.7002043  41.6991789  83.4264225   2.0240978  43.0157797  83.6307764
   1.5535573  42.3993247  83.7467419  10.9233748  38.3323553  87.0135753
  10.3108062  38.8193955  87.3989485  11.0197923  37.6567044  87.5573405
  10.8471646  38.3041862  87.1514612   4.9252829  40.0886394  82.1133253
   5.3796576  40.2596955  82.8381097   5.3992875  39.4754505  81.7131028
   5.0621149  40.0237279  82.1607014  14.5658776  49.4040490  92.4413269
  14.6241900  49.8527139  93.1873246  13.9325244  49.8139303  92.0043349
  14.4810071  49.5314224  92.4865818   8.2057871  55.0244032  88.8768016
   8.0077560  55.5134846  88.1824227   7.5845582  55.2285273  89.4552149
   8.0845435  55.1260570  88.8591239   2.2665849  46.7928928  83.2178260
   3.0107894  47.1803205  83.4561210   2.4126545  45.9486354  83.3818748
   2.3976434  46.7259401  83.2772230   4.1845425  38.5879187  88.2510121
   3.3381470  38.7601995  88.1251471   4.1816557  37.7828531  88.5875950
   4.0592575  38.4940216  88.2821248   5.2543725  42.3654402  89.1172179
   4.7803679  41.8396164  89.6277490   5.6261861  41.8183875  88.5487041
   5.2393614  42.2070398  89.1087326  11.5180456  47.4256777  90.5278960
  11.2778679  46.5863193  90.5321386  11.9972463  47.5056944  91.2519733
  11.5532639  47.3138177  90.6353762   7.1827225  43.2590956  82.1797933
   6.6550243  43.3419700  81.4903642   7.6422933  44.0008828  82.1762578
   7.1729075  43.3811619  82.0772628  13.5185643  44.2058235  88.4808219
  13.2795413  44.1654069  87.6429003  13.6819544  45.0529387  88.6073940
  13.5075946  44.3250320  88.3761701  10.1231673  48.5908184  94.4113264
  10.8465872  48.1380710  94.2324284   9.8581635  48.8712850  93.6285592
  10.1912946  48.5659152  94.2691979   6.7364307  51.8294520  81.3107590
   7.4598506  52.2952633  81.1672163   6.2964898  51.8968130  80.5605187
   6.7779999  51.9078357  81.1792371   5.9050462  48.6892062  92.5608279
   5.2907455  48.1450112  92.8556914   6.4217747  48.1756299  92.0814095
   5.8906125  48.5328471  92.5332507   5.1446760  49.7596332  90.2952578
   4.7174368  49.1346051  89.8618013   5.1371704  49.4771254  91.1211585
   5.0805901  49.6249113  90.3532405   6.2029590  36.9622741  93.9191801
   5.7070151  37.1586415  93.2283368   6.9598652  37.3615409  93.7480603
   6.2416414  37.0500475  93.7911938   3.4732469  40.6365087  90.5095112
   3.4974956  40.1025199  89.8207892   3.7243943  40.1282396  91.1720702
   3.5142388  40.4825991  90.5059756   1.9363404  48.9296645  97.9921151
   1.0859035  49.0668359  98.1278796   2.0991532  48.1960423  98.4368852
   1.8347268  48.8410746  98.0776750  12.5566987  47.5534595  92.9143814
  13.1484827  48.1931845  92.9462012  12.9925981  46.8557632  93.2035881
  12.7085418  47.5452945  92.9624646   1.1563404  40.9533093  80.0202892
   1.4779245  40.4736175  79.3662154   1.4190348  41.7632739  79.8293703
   1.2429429  41.0022991  79.8958384   4.3860377  51.9751967  93.5401708
   3.8785468  52.5287814  93.9842338   4.0887023  52.0360257  92.7220482
   4.2665262  52.0658278  93.4850164   6.5522559  40.3405287  92.3826371
   6.9777630  39.8877813  91.7709897   5.9379552  39.7865357  92.6591158
   6.5251204  40.1919263  92.3331396   6.9968157  55.8915225  81.4705651
   6.2797467  55.7176087  81.0052889   7.6474895  55.6567797  80.9381137
   6.9870007  55.8311017  81.3234869   4.9916782  36.8120387  85.7916948
   4.3485100  36.6618033  86.3602086   4.6516189  36.5662732  85.0266052
   4.8461859  36.7532509  85.7619963   9.5816128  44.7679813  85.2146956
   8.9107318  45.3109516  85.0860022  10.2755878  45.2374669  84.9728651
   9.5844996  44.9178085  85.1602484   3.6302862  56.9076525  90.4458715
   3.4068516  56.1495355  90.8142741   3.1412705  56.9374547  89.7239154
   3.5246311  56.7998750  90.3935456   9.7444256  41.2235697  88.1237329
  10.0971866  40.7965420  88.7983128   8.8859057  41.1386541  88.2538406
   9.6693700  41.1480438  88.2432340   7.7427521  44.4871066  92.0722172
   7.7225449  44.3054361  92.9256951   7.7906722  45.3583084  92.0481755
   7.7462162  44.5887604  92.1945466   5.6873851  51.0758258  97.9970648
   5.6469706  50.4307935  97.4115804   6.4997170  51.0194875  98.3096060
   5.8017005  50.9717224  97.9567597   2.2781319  57.1276984  87.8995799
   1.8641717  56.4651114  87.5099641   2.9628693  57.2754842  87.3791493
   2.3179691  57.0517642  87.7652296   5.6446613  56.2867069  88.6519416
   5.2462896  56.3969339  87.8840236   5.0297833  56.4949135  89.2345976
   5.4945502  56.3340637  88.6250715   4.2174515  42.8941217  81.5193555
   3.6239354  43.2158213  80.9678122   4.2549793  42.0482312  81.3114662
   4.1348904  42.8165545  81.4076327  11.1768316  36.3454109  89.0521642
  10.6699180  35.6383248  88.9842819  11.9735749  36.0147298  89.1822719
  11.2195555  36.1927260  89.0620637   7.0932332  42.8520721  84.9495306
   6.8646025  42.8753423  84.1073664   7.3530408  42.0278188  85.0690316
   7.0978520  42.7336801  84.8420503   1.3751560  44.7055194  94.5520406
   0.8630463  44.0976377  94.9105437   1.2031056  45.4211787  95.0194382
   1.2741197  44.7218493  94.6736630  13.3788456  50.8619036  82.0362506
  13.7622061  51.6110392  82.2660603  12.5832569  51.1084855  81.7774495
  13.3182238  51.0088729  82.0320080   5.2520630  42.6279439  96.9922661
   5.8092061  42.3993248  96.3601127   4.9281695  43.3885104  96.7157874
   5.2867041  42.7063276  96.8579159   2.9703748  45.7147092  97.9574669
   3.7215075  46.0298769  98.2714223   3.1626324  45.5126263  97.1308590
   3.1095162  45.7314474  97.8818064   2.1903747  43.5338467  79.6122885
   2.5702712  43.5518096  78.8274000   1.4496343  43.9792456  79.4913733
   2.1372585  43.6020242  79.4786454   9.8189038  41.8420658  85.1998464
   9.8183264  41.6869315  86.0582740   9.6145218  42.6883645  85.1439850
   9.7888816  41.9441279  85.3186403   7.5429890  46.5218160  88.8534671
   8.0383555  45.8041155  88.8138691   6.7329666  46.2188958  88.7389158
   7.4973783  46.3715806  88.8308397   2.9888501  50.3715973  81.0031675
   2.1799824  50.0482647  80.9564985   3.4963410  49.6649196  80.9359924
   2.9438168  50.2197290  80.9861970   9.6081709  49.2721848  91.5411800
  10.0336780  48.7496270  90.9882225   9.2438629  49.8702685  91.0200423
   9.6168311  49.2832075  91.3820809   6.1960308  52.9856112  87.8712957
   6.6671486  53.6996375  88.0402942   6.5320487  52.3854862  88.4072827
   6.3155423  53.0027576  87.9745333   8.2837293  54.5957425 100.0505029
   8.3934258  53.8065986 100.4061776   8.6128189  54.5063362  99.2479367
   8.3489699  54.4663278  99.9847420   3.1129803  37.7583583  94.8271052
   3.2457709  36.9614576  95.1552027   3.4974956  38.2849986  95.4069328
   3.1886132  37.7183499  94.9614555   6.8334254  52.7774046  94.6340650
   6.2855200  52.1531930  94.3660715   7.2947283  52.9668318  93.9184729
   6.8201464  52.7133096  94.4891081   6.1862158  34.6813909  91.4252145
   5.3808122  34.5711638  91.7419983   6.0568894  34.7826364  90.5682011
   6.0482291  34.6797579  91.3460186   9.6428119  40.8459401  92.0191842
   9.0591108  41.3468607  91.6069409   9.9632413  40.3388957  91.3856165
   9.6041294  40.8451236  91.8650349   2.1822918  39.7599995  82.2950517
   3.0038612  39.9298308  82.0532212   1.7192569  39.9147256  81.5716814
   2.2354080  39.8081728  82.1522161   0.7718250  37.7542758  93.0748946
   1.3162663  37.4133884  93.6653287   0.8255186  38.6128219  93.2170230
   0.8607369  37.8298017  93.1830819   6.3992581  53.7825119  91.1649991
   7.2190955  53.6388085  91.4266286   6.1186658  54.4071318  91.7066429
   6.4789324  53.8535471  91.2837930  22.8706231  61.4389970  84.1292867
  22.8400235  62.2934607  84.3011137  23.4687580  61.1385263  84.6879011
  22.9543389  61.5206467  84.2367670  16.0705916  60.5265622  88.8845798
  15.2143811  60.6874120  88.9354915  16.1173570  59.6557685  88.9050859
  15.9505027  60.4216423  88.8951864  10.4547056  70.0628339  84.6483029
   9.7029955  69.6843878  84.4199074  10.9033067  70.0946773  83.9001840
  10.4096723  70.0113947  84.5040531  19.3799633  66.7952147  98.4906254
  20.0866400  66.3004178  98.6193188  19.5687568  67.2361229  97.7608912
  19.5127538  66.7870497  98.4015299  15.9072016  70.4853709  80.0768576
  15.5723384  71.1630630  79.6412799  16.4198886  70.0959020  79.4885448
  15.9337597  70.5278287  79.9255368  15.4476307  72.4367978  86.0179688
  15.8315686  73.0054876  85.4784463  15.3835448  71.7117488  85.5385504
  15.4949734  72.4143441  85.8673551  18.9157737  62.5857665  91.5277449
  19.4613697  63.2642752  91.5871419  18.8574613  62.4445126  90.6679031
  18.9873651  62.6649667  91.4089510  12.0331812  70.0746732  86.9145802
  12.1342175  69.2647085  87.2242930  11.4373557  69.9803678  86.2845480
  11.9604351  69.9411760  86.8672040  20.6922806  64.0142273  82.4011177
  20.5762332  64.7649959  82.8303315  21.4878692  63.7566226  82.6507264
  20.7927395  64.0877119  82.5015269  11.8732551  74.9924321  88.3160658
  12.5170007  75.4337485  88.7056816  12.1988807  74.1877747  88.2290917
  12.0164380  74.9389515  88.3606135   5.2296856  66.0967018  86.5398135
   4.9947041  65.2634670  86.4330404   5.3682497  66.3771684  85.7259336
   5.2152519  66.0150522  86.4040490   7.5286944  58.2652749  89.4382443
   6.9091975  57.6745396  89.2692458   7.4270807  58.8564184  88.8046766
   7.4224619  58.2656831  89.3187433  12.5753131  68.0036296  83.6880520
  12.8968972  68.5441503  83.0841828  13.2225228  67.4333067  83.8202809
  12.7179186  67.9995471  83.6187555  14.6254839  60.0052291  83.7714906
  15.3235004  60.1840418  84.2636370  14.9407172  59.4822630  83.1485296
  14.7750176  59.9546063  83.7516916   7.2556077  61.8105030  91.6826012
   7.1314773  62.3967476  92.3175831   7.9074361  61.3165226  91.9838287
   7.3329726  61.8243835  91.8211941  14.8142775  66.3922736  83.7594698
  15.2536410  65.7839836  84.2049471  14.6647437  66.0130109  82.9880163
  14.8564240  66.2461207  83.7113865  12.2814418  64.9866747  90.9613523
  12.9263420  64.4939191  90.6424472  12.5216195  65.1291534  91.7879602
  12.4125003  64.9344190  91.0363056  14.8200509  67.8321653  90.6120416
  15.1023752  67.0373059  90.3907172  15.5486669  68.3102241  90.6325477
  14.9690073  67.7856250  90.5823431  12.7981703  55.3744687  87.8536181
  12.4685033  55.8255831  87.1839880  12.1226705  55.2960851  88.4009187
  12.6492139  55.4295822  87.8359404  18.4152111  64.7449917  80.7125467
  18.3303406  65.6010883  80.8575036  18.9036494  64.4694241  81.3807626
  18.4741008  64.8307238  80.8327549  20.0058111  51.3630210  86.0985792
  19.6911552  52.0533689  86.5306214  19.4885052  51.3074992  85.3971292
  19.8822581  51.4565099  86.0582741  19.3470544  61.3634711  82.2123202
  18.8182016  61.5794345  82.8720508  19.8695564  62.0570849  82.1324171
  19.3458997  61.4977848  82.2978801  24.8018597  66.9381015  87.5856247
  23.9716300  67.1491659  87.7489663  24.7527850  66.1118070  87.3098530
  24.6725333  66.8470622  87.5693612  11.2370152  65.2597928  81.0130670
  10.6527367  65.7647959  81.4196534  10.8340247  65.0340315  80.2727262
  11.0909456  65.3006176  80.9635695   6.7914181  70.9752689  87.8154342
   6.3081759  71.7003179  87.7913925   7.6037499  71.2728819  87.9264499
   6.8404929  71.1255043  87.8281621  12.8628335  69.7684870  90.4204156
  12.3455277  69.4092285  89.8165464  13.5602726  69.2447044  90.4310222
  12.8893916  69.6382558  90.3334415  16.5191927  70.2179684  96.3820329
  16.6075273  70.0305824  97.2298539  16.9481639  69.5717113  95.9825176
  16.5954029  70.0942691  96.4492081  14.0862387  69.5010844  95.3637991
  13.5233221  69.0883453  95.8877653  14.8483410  69.4263749  95.7831135
  14.1156835  69.4288244  95.5030992  15.6947367  61.5063580  79.4899591
  15.9343370  61.7141564  78.6774934  16.0163208  60.7021089  79.5988535
  15.7784525  61.4177681  79.3860144  11.0037657  53.4356976  83.3359129
  11.7583625  53.8035293  83.0976179  10.8265191  53.8096530  84.1038308
  11.0892135  53.5455163  83.4144017   9.6458378  71.4908865  87.9674621
  10.3478957  70.9760854  88.0247378   9.5655861  71.8183016  88.7721497
   9.7382139  71.4623091  88.0947414  24.2972556  59.5851416  91.3806668
  23.4600977  59.6553603  91.6154262  24.2660787  59.5875911  90.5080970
  24.1690838  59.5961643  91.2866216  10.6937285  61.7284452  97.0955037
  10.8657788  61.6190346  97.9440318  11.2306642  62.3738857  96.8586229
  10.7982289  61.8076453  97.1860133   9.3594722  55.8427295  80.0337242
   9.1770295  56.0599175  79.2078234  10.2220335  55.9566307  80.0895856
   9.4599311  55.8917193  79.9191729   8.9709154  67.6815217  87.4760230
   9.8098053  67.9138150  87.5233991   9.0020923  66.8119528  87.4067265
   9.0990871  67.5872163  87.4724874   9.5961857  68.1016092  91.7773535
  10.1360081  67.9587223  92.4476907   8.9131803  68.5012843  92.1457561
   9.5754010  68.1395763  91.9307957  15.0394441  52.8453705  83.0686265
  15.7680601  52.6669660  82.6224422  15.1289334  53.6871785  83.2793444
  15.1601103  52.9437584  83.0339783  19.0202741  63.7807093  86.9718559
  19.7760256  64.2138607  87.0107468  19.1265066  63.1311862  87.5453195
  19.1472912  63.7484576  87.0616585  22.0582913  67.6080370  87.7220962
  21.6218144  67.6117112  88.4779934  21.7245828  68.2885869  87.2900540
  21.9445532  67.7092826  87.7701795  16.6311986  69.6488703  99.0464113
  17.4152403  69.7619550  99.4119855  16.4308581  68.8229840  99.2422799
  16.7178012  69.5435422  99.1298499   4.9999002  64.3216383  91.9307957
   4.7337417  63.5055499  92.0898947   5.0137566  64.3669538  91.0603472
   4.9623724  64.2073288  91.8261439  21.9780395  54.6494198  89.9650390
  22.6206304  54.7192302  90.5512306  22.2303416  53.9823421  89.4629932
  22.1102528  54.5620546  89.9777670   8.9056749  59.1201467  78.5459715
   8.1914926  58.8339647  78.9582147   9.3900717  59.4598093  79.1866102
   8.8716112  59.1283117  78.7015350   9.7497608  57.8594761  94.5774964
   9.0569405  57.3891741  94.8235696  10.3657935  57.6333066  95.1516671
   9.7382138  57.7561893  94.6984117  16.7882379  71.5598805  92.6930568
  15.9897625  71.3198305  92.9504437  17.2368391  71.6113198  93.4397616
  16.7356991  71.5321196  92.8415493  25.1927259  64.3261290  86.6140600
  25.8543693  63.7651958  86.5136508  24.5518671  63.8313321  86.9393291
  25.1956126  64.1697699  86.6472940  16.0804066  67.6231421  78.9221523
  16.4955215  67.2916445  78.2306019  15.2495996  67.3900323  78.7941660
  16.0192075  67.5402677  78.8012370   5.4092415  65.1075162  89.2119701
   5.2267988  65.0822048  88.3591993   6.1442084  65.5774100  89.2508610
   5.4906479  65.1736524  89.0917619  21.4792089  65.3426672  86.3552588
  21.7147679  65.4871871  85.5279439  21.6281653  66.1069080  86.7484102
  21.5357893  65.4765727  86.2916192   8.4738167  61.8260165  95.7201809
   9.1978139  61.8113196  96.2066704   8.5754303  62.5355520  95.2223778
   8.5956376  61.9284868  95.7180596  23.3082546  64.1828338  84.1922192
  23.6390763  64.7155978  83.5862287  23.8815634  64.2367226  84.8484143
  23.4416225  64.2697907  84.1999974  15.8483116  65.3059250 100.5850756
  15.0556097  65.6202762 100.7703376  15.9632043  65.5210718  99.7471541
  15.7478527  65.3843086 100.4889091  18.5214435  62.0293241  84.8745772
  18.6161290  62.7682535  85.3285398  17.8973279  61.6010716  85.3080337
  18.4423465  62.0754561  85.0053920  16.7766909  65.2079453  95.5236053
  17.3505771  64.5706698  95.6784617  16.6981713  65.2083536  94.6545711
  16.8500144  65.1144565  95.4182464   5.3763326  61.9868663  89.3618767
   5.9536828  61.8505114  90.0011013   4.6777387  61.5304447  89.6164352
   5.3584347  61.8990929  89.4941057  18.7737457  63.8741981  78.1082724
  18.6917619  63.9444168  78.9737711  19.4117177  64.4371725  77.9166465
  18.8557294  63.9680952  78.2072674  12.1330628  63.6402719  87.5757251
  11.8749872  62.8074453  87.5488550  12.1879111  63.8660332  86.7349751
  12.1030406  63.5500490  87.4477387  17.2131678  55.7431169  87.6761343
  16.5088005  55.2540355  87.8345262  17.2616652  55.7553644  86.8049788
  17.1161729  55.6720817  87.5700683  11.1065340  61.1940481  88.0622145
  10.5314931  61.3532649  88.6986106  10.7301016  60.5575890  87.5990596
  10.9668152  61.1238294  88.0876704  14.7738629  59.6663830  92.9214524
  14.3853061  59.2418048  92.2666715  14.1093327  59.9145980  93.4291550
  14.6185556  59.6402551  92.9002392  24.4161898  59.4238835  85.6962354
  24.1598463  58.6118776  85.5060237  25.2591212  59.4316402  85.4692541
  24.5027923  59.3050832  85.6347171   0.8522159  60.8380556  86.0766586
   0.9382411  60.4612424  86.8580116   1.4797956  60.4641001  85.5986544
   0.9578710  60.7266038  86.1212063  18.5964990  53.3638459  90.4338508
  18.9775502  52.6816630  90.8206382  17.7928274  53.0748061  90.2514172
  18.5341452  53.2205508  90.4642564  15.8777567  63.8962435  81.1191331
  16.6918206  64.1877328  81.0074102  15.8136708  63.2422297  80.5449624
  15.9880306  63.8427630  81.0180168  22.0987057  66.5788431  95.5320906
  21.8625694  65.7476496  95.4132967  22.7430286  66.5274038  96.1175751
  22.1581728  66.4486119  95.6006800  11.7485475  67.3683952  86.2463643
  12.3859422  67.1295700  86.7915436  12.1740547  67.5721111  85.5116803
  11.9061641  67.3634963  86.2180800   6.4398117  69.6072289  90.1297947
   6.4802263  69.8787140  89.3017726   6.9992642  70.1314197  90.5455735
   6.5281463  69.7248044  90.0689835  12.3888290  62.5886242  80.5838532
  12.7733443  62.3693949  81.3355077  12.1399910  63.4149188  80.7139609
  12.4090363  62.6784388  80.7139609  12.5556831  55.8692657 100.3001116
  12.2410272  56.6392220 100.0370679  12.2346763  55.3062913  99.7153343
  12.4615750  55.9002926 100.1742466  23.1223478  66.3632880  91.5949201
  22.8169295  67.0960937  91.9562517  22.4029693  65.9570809  91.3141987
  22.9710820  66.4114613  91.6062338  14.1306947  67.8456375  87.9257429
  14.2045955  67.6831547  88.7799279  14.9476453  68.0346565  87.6817911
  14.2623306  67.8493117  88.0155455  28.8225270  63.0025880  90.9217545
  28.7549770  63.0221840  90.0520132  28.8080932  63.8456208  91.1473216
  28.8104026  63.1299615  90.8270022   7.8912704  68.1914238  84.9551873
   7.0650821  68.4375975  84.8286151   7.9524695  68.1126319  85.8213931
   7.7786871  68.2159187  85.0640817  10.1088727  54.2583179  85.9147313
   9.2411153  54.3305778  85.9804922  10.3963932  55.0605258  86.1035288
  10.0228476  54.3877326  85.9522079  19.2321616  54.4061038  94.2458635
  19.9775208  54.2170849  93.8322060  18.8158921  54.9319276  93.6872491
  19.2806590  54.4563184  94.1023208  12.6711533  70.8091118  82.6570903
  12.9609831  70.4180099  81.9330129  13.4015014  70.9907823  83.0976178
  12.8218417  70.7784932  82.6153710  26.6083887  61.7770267  89.1964140
  27.1591809  61.1438336  89.4361232  26.5928002  62.3085659  89.8879644
  26.6869083  61.7619215  89.3342998  13.2606278  65.6108864  93.7424033
  12.7617972  66.3224632  93.8208921  14.0706502  65.9309531  93.7042195
  13.3062385  65.7635713  93.7480602  10.6117448  72.7858500  85.7231052
  10.3917744  72.4955855  86.5157719  10.3911970  72.1273455  85.1948965
  10.5465043  72.6458209  85.7619961   9.5234396  64.8731817  87.9886754
   9.2347644  64.2469288  88.5232481  10.3917744  64.8152104  88.0551434
   9.6094647  64.7719361  88.0777708  20.3112293  60.0166600  88.3068736
  19.9677059  59.2956936  88.6575985  20.4105336  59.8080452  87.4647094
  20.2754336  59.8790804  88.2340416  12.7785404  74.1587890  84.5061745
  13.4309462  73.6264333  84.7352771  12.0811013  73.8056543  84.8929619
  12.7716122  74.0277413  84.5973912   9.7266669  66.5127068  83.9129119
  10.4812637  66.8940107  84.1264581   9.1337282  66.9638212  84.3675815
   9.7503382  66.6355895  84.0111997  20.7725322  66.4792304  83.8492724
  21.3383355  67.1385514  83.7651267  20.1253226  66.8242002  84.3209126
  20.7604079  66.6274246  83.9065480  12.1873336  58.4689908  99.0386331
  11.3773112  58.7747688  98.9276174  12.6648023  59.1895491  99.1538915
  12.1376815  58.6204510  99.0393402  11.0464896  67.6835629  89.2869234
  10.5245649  67.8235921  89.9721099  11.4338916  66.9246294  89.4771352
  11.0268596  67.5921153  89.4170311   8.0356080  57.7341438  83.3564189
   7.7480875  57.3642709  82.6196136   8.7226548  58.2036293  83.0947894
   8.0944977  57.7488407  83.2079265  17.2431900  69.4231089  83.2729803
  17.0018576  68.6898949  82.8656868  17.4233233  69.9717946  82.6196136
  17.2339524  69.3953480  83.1160026  12.4731221  64.7139648  84.6850725
  12.2774004  65.3214383  84.0911028  12.6965567  64.0207592  84.2042399
  12.4765862  64.7017174  84.5266806  10.8709751  61.5994386  84.8031594
  11.5932403  61.7635544  84.3435400  10.3917744  62.3204051  84.6970933
  10.9073482  61.7292616  84.7197208  18.8303259  57.9358185  90.1828279
  17.9914359  57.9619464  89.9466542  18.9007626  58.5828921  90.7633625
  18.7171652  58.0354311  90.2337396   8.5217368  64.0052459  93.9085734
   9.0338465  64.2836712  93.2594493   8.2353710  64.7441753  94.2748547
   8.5552231  64.1554812  93.8675612  17.2772537  54.8343562  84.9155895
  17.9798890  54.6351310  84.4375853  17.0116726  54.0619504  85.2224738
  17.3419169  54.6906528  84.8901336  22.7060783  63.1426172  87.4689520
  22.6194757  63.2981598  88.3224299  22.2511262  63.7864247  87.0948925
  22.6264039  63.2601927  87.5396627   5.6084274  58.5122651  84.2049470
   5.7100411  59.3148812  84.5330446   6.4040161  58.3109986  83.9072551
   5.7412180  58.6008549  84.2084825  12.0401093  56.0978847  93.9686775
  11.8484290  56.1133982  94.8186199  12.8899689  56.2942522  93.9453430
  12.1376815  56.1293199  94.0910070   6.4248006  58.6269829  91.9470592
   6.2833498  57.7753769  92.0715100   6.7088570  58.6698489  91.1232798
   6.4455852  58.5069579  91.8438216  16.5786599  60.4636919  86.0915080
  16.3321313  60.3832670  86.9251869  16.9071722  59.6790387  85.8977607
  16.5907842  60.3363184  86.1862603  20.4734647  67.1720278  89.8801861
  20.3349007  67.8701324  90.3850604  19.6934645  67.0168935  89.5238043
  20.3377874  67.2520445  89.9028135  18.8112733  63.4716654  96.1324243
  18.8060771  62.5996470  96.1366669  19.5173726  63.6704823  95.6593699
  18.9157737  63.3720528  96.0631278  12.5383626  63.1993638  95.5038063
  12.6827002  63.7794846  94.8681173  12.8859274  63.5769934  96.2087918
  12.6111087  63.3414342  95.5137058  14.7103543  62.3983806  93.2863195
  13.9626857  62.5914820  92.8811473  14.8645068  61.5729025  93.0487316
  14.6225971  62.3048917  93.1908600  11.6111381  71.3896409  92.3699090
  11.7600945  70.8299325  91.7172494  12.3911383  71.4688411  92.7531609
  11.7485475  71.3181975  92.3296039  21.9688020  66.5298532  80.6418360
  21.5894829  65.7435670  80.6347650  21.3054266  67.0785389  80.4990005
  21.8146495  66.4943356  80.6199157  14.1364682  71.5611052  93.6483581
  14.0608353  70.8919863  94.2034369  14.0654541  72.2628840  94.1624247
  14.1145288  71.5655960  93.8060429  14.9505320  56.2934357  94.1758598
  15.4077934  57.0258331  94.3031391  15.0261649  55.8700822  94.9345854
  15.0296290  56.3391595  94.3059675   7.1938312  56.5400176  95.2648042
   6.6580501  55.9280535  95.5808809   7.2556076  57.1148312  95.9181709
   7.1233944  56.5347104  95.4083469  19.4232646  49.4724232  88.0452441
  19.5416214  49.9300695  87.3119744  19.2494822  48.6669493  87.7588659
  19.4151817  49.4218004  87.8953375  14.7934928  70.0812051  84.4807187
  15.5584820  69.8121695  84.1589851  14.6913018  69.5962061  85.1977249
  14.8916424  69.9701616  84.5387014  12.8287698  58.2836461  91.0200422
  12.0383773  58.1027921  91.3417758  13.2248321  57.5063413  91.0030717
  12.7704574  58.1423922  91.0652971  17.3153589  67.1124235  76.4607136
  18.0826574  67.1724360  76.0512988  16.8684898  66.5404676  75.9763455
  17.3627016  67.0360811  76.3284846  18.2131384  65.9178891  88.7459868
  17.5376386  65.6864123  89.2473255  18.2223761  65.3100074  88.1201973
  18.1149889  65.7937816  88.7276021  15.3425528  60.7596720  95.5023921
  15.2784670  61.6206676  95.3744058  15.4822716  60.4428713  94.7019473
  15.3540999  60.8396886  95.3652134  20.2148119  68.7744023  80.9770046
  20.2967956  69.5811009  80.6531497  20.6997861  68.7939982  81.7010820
  20.2985277  68.8964686  81.0356945  14.0244622  63.4528859  89.6440124
  13.6006871  63.6533358  88.9079143  13.8489478  62.6057707  89.7564424
  13.9355503  63.3577641  89.5513814  13.5256316  74.9679372  92.1061581
  14.0152246  74.2690161  91.9237246  12.9540548  74.6703242  92.6937639
  13.5140846  74.8205596  92.1662622   9.3127067  63.9480910  85.0768097
   9.4691686  63.8827713  85.9324089   9.6527660  64.7229463  84.8646776
   9.3860302  64.0530109  85.1722691  15.8506212  63.3238794  83.9461460
  16.3921757  62.8209175  84.4100081  16.1652771  63.2703989  83.1350945
  15.9770609  63.2418215  83.8945272  19.7223319  67.5341441 101.0588372
  20.5358185  67.2626590 101.2193505  19.5618286  67.2348981 100.2548568
  19.8193268  67.4496367 100.9633778  14.0192662  68.7156146  81.2301488
  14.0885482  67.8570684  81.3694488  14.7981117  68.9328026  80.9020513
  14.1445512  68.6209010  81.2018645  16.9995481  58.2175099  93.9983760
  17.2137451  57.5786013  93.4447114  16.3829381  58.6620922  93.5691622
  16.9400811  58.1885242  93.8534191  18.4100149  71.1393847  85.4437981
  18.0179941  70.8360562  84.7260847  18.5653221  71.9762937  85.2542935
  18.3753739  71.2177684  85.3094478   5.8861329  61.1315861  85.3928864
   6.2660294  61.5500406  84.7289131   5.3116694  61.7129317  85.6997707
   5.8572654  61.2793720  85.3405605  19.1634569  59.8264164  94.9367067
  18.3511251  59.5190054  95.0180240  19.6224504  59.3463164  95.5009780
  19.1114954  59.7100656  95.0321662  18.5739824  67.7043836  85.3844012
  18.2154479  67.8758479  86.1608044  18.0878535  68.1657041  84.8272010
  18.4498521  67.7982807  85.4169281  16.3910210  51.3275034  88.9871103
  15.5203768  51.3013755  88.9404413  16.6450551  51.1552226  88.1696949
  16.3003770  51.2985178  88.8591240  13.3628189  63.3843001  77.9244246
  13.6520714  64.1607884  78.1987820  13.4499988  62.8731733  78.6258746
  13.4182446  63.4234919  78.0686744  16.2588077  61.2324235  99.7195770
  16.7287708  61.8566352 100.1063644  16.3049957  60.5641211 100.2788984
  16.3355953  61.2258915  99.8595841  13.4159350  53.3381263  90.4444574
  12.8997839  52.6461454  90.5696153  12.8553279  54.0052040  90.3907172
  13.2565864  53.3344520  90.4550640  15.4851584  53.8774223  92.2737426
  15.0983337  53.9023254  93.0550956  14.9984521  53.3115901  91.8211943
  15.3564093  53.7969974  92.3225330  19.7344563  68.5947732  96.3311213
  20.3724284  68.1007927  95.9973669  19.0918655  68.5225132  95.7463440
  19.7338790  68.5106740  96.1953568  21.4601563  60.4436878  90.8977128
  21.0329172  60.3563226  90.1425228  20.8227616  60.5514653  91.4831972
  21.3031171  60.4469537  90.8722570  15.1508726  50.7641208  94.5647686
  15.7801844  51.3001508  94.2868756  15.3194588  50.6718567  95.4161252
  15.2686520  50.8302570  94.6496214  14.9522641  55.5512403  96.8374098
  15.7796070  55.2797552  96.8932712  14.9730487  56.3473245  97.1937916
  15.0775491  55.6292157  96.8989281  19.7898820  69.2867540  92.9716569
  20.5791198  68.9356605  93.0918651  19.9642418  70.1003928  92.7093203
  19.9319102  69.3553397  92.9504437   9.5292130  62.6976266  90.0244358
   8.6880137  62.5980140  90.2323252   9.7382138  63.4671746  90.3758679
   9.4356823  62.7968309  90.1071673   7.0067697  60.3195803  87.8529109
   6.6124395  60.3938814  87.0779219   6.4507814  60.7053749  88.4037471
   6.8670510  60.3877577  87.8196769  18.6432644  53.2977097  87.5332988
  18.8482237  53.2299405  88.3789985  18.3159068  54.1035918  87.4654165
  18.6247892  53.4063037  87.6492643  13.3408795  60.6257665  89.2741956
  13.0371933  60.0713653  89.8752363  12.6388216  60.8049875  88.7869990
  13.1925005  60.5702447  89.2911661  12.3974892  57.9358185  83.8386658
  12.6734627  57.2177097  83.4264225  12.9973562  58.5343105  83.6307764
  12.5268157  57.9178555  83.7467419  11.4027146  67.8407386  93.9814054
  11.2947501  67.8509448  94.8476112  11.6122928  68.6662166  93.7919007
  11.4177257  67.9648460  94.0818145  21.8966332  53.8508861  87.0135753
  21.2840645  54.3379263  87.3989485  21.9930507  53.1752352  87.5573405
  21.8204229  53.8227170  87.1514612  15.8985413  55.6071702  82.1133253
  16.3529159  55.7782262  82.8381097  16.3725459  54.9939813  81.7131028
  16.0353733  55.5422587  82.1607014   9.4200938  65.0920028  91.4435991
   8.8288871  65.7329526  91.4139006  10.1821962  65.5157645  91.4167291
   9.4449199  65.2495866  91.4351138   9.8161561  56.2522026  92.1104009
  10.2763043  56.3260955  92.8479133   9.8617668  57.0503280  91.7603830
   9.8912116  56.3816173  92.1676765  11.4644911  56.9188721  96.6776036
  11.0730476  56.2722068  97.1131814  11.6330774  57.5100156  97.2970291
  11.4315821  56.9102988  96.8338742  25.5391360  64.9225798  92.4413269
  25.5974484  65.3712446  93.1873246  24.9057827  65.3324610  92.0043349
  25.4542655  65.0499532  92.4865818  19.1790454  70.5429340  88.8768016
  18.9810143  71.0320154  88.1824227  18.5578166  70.7470581  89.4552149
  19.0578019  70.6445878  88.8591239  13.2398433  62.3114236  83.2178260
  13.9840478  62.6988513  83.4561210  13.3859129  61.4671662  83.3818748
  13.3709018  62.2444709  83.2772230  15.1578008  54.1064495  88.2510121
  14.3114053  54.2787303  88.1251471  15.1549141  53.3013839  88.5875950
  15.0325158  54.0125524  88.2821248  16.2276309  57.8839710  89.1172179
  15.7536263  57.3581472  89.6277490  16.5994444  57.3369183  88.5487041
  16.2126198  57.7255706  89.1087326   6.6049339  59.8811216  94.4855725
   7.4674952  59.7806926  94.3993055   6.2741122  59.3005926  93.9241297
   6.6834535  59.7802843  94.3901131  22.4913039  62.9442085  90.5278960
  22.2511262  62.1048501  90.5321386  22.9705046  63.0242252  91.2519733
  22.5265223  62.8323485  90.6353762  18.1559808  58.7776264  82.1797933
  17.6282827  58.8605008  81.4903642  18.6155516  59.5194136  82.1762578
  18.1461659  58.8996927  82.0772628  24.4918226  59.7243543  88.4808219
  24.2527996  59.6839377  87.6429003  24.6552128  60.5714695  88.6073940
  24.4808530  59.8435628  88.3761701  21.0964256  64.1093492  94.4113264
  21.8198455  63.6566018  94.2324284  20.8314219  64.3898158  93.6285592
  21.1645530  64.0844460  94.2691979   9.9651125  58.7053665  91.1466143
   9.3404195  58.7172057  90.5392096   9.6296720  59.1813841  91.7957383
   9.8236617  58.7772182  91.1522712  10.1492873  57.0478784  77.2038828
   9.8005678  57.6998509  77.6670378   9.6689319  57.0335897  76.4762699
  10.0263117  57.1421837  77.1649919   6.6776800  66.7654126  92.5869907
   6.1476725  66.0746564  92.6364882   6.9501894  66.7564311  91.7582616
   6.6401523  66.6621257  92.4717323  17.7096891  67.3479828  81.3107590
  18.4331090  67.8137941  81.1672163  17.2697482  67.4153437  80.5605187
  17.7512583  67.4263665  81.1792371  16.8783046  64.2077370  92.5608279
  16.2640039  63.6635420  92.8556914  17.3950331  63.6941607  92.0814095
  16.8638708  64.0513779  92.5332507  16.1179343  65.2781640  90.2952578
  15.6906951  64.6531359  89.8618013  16.1104287  64.9956562  91.1211585
  16.0538484  65.1434421  90.3532405   9.2341870  60.3146813  93.3641012
   9.3935357  59.5590137  93.7692734   9.0534764  60.8637753  94.0181749
   9.2307229  60.2840627  93.5203718  17.1762173  52.4808049  93.9191801
  16.6802734  52.6771723  93.2283368  17.9331235  52.8800717  93.7480603
  17.2148998  52.5685783  93.7911938  14.4465053  56.1550395  90.5095112
  14.4707540  55.6210507  89.8207892  14.6976526  55.6467704  91.1720702
  14.4874971  56.0011299  90.5059756   1.9572643  63.4381890  89.9438256
   1.8516092  63.3928734  89.0790340   1.2072863  63.7835670  90.2252541
   1.8308246  63.4822798  89.8575586  10.7266375  54.8821213  89.8900856
  10.7664747  55.3830420  90.6035563   9.9016040  54.9731607  89.6206779
  10.6105901  54.9703029  89.9551394  12.9095988  64.4481953  97.9921151
  12.0591618  64.5853667  98.1278796  13.0724116  63.7145731  98.4368852
  12.8079851  64.3596054  98.0776750  12.1480738  61.3981723  92.1874755
  11.3172668  61.5655541  91.9810003  12.0932256  61.0217674  92.9723640
  12.0170153  61.3671454  92.2723283   9.9564522  54.8890616  97.8231166
  10.5817225  54.3452748  98.0960598   9.5015002  54.4085533  97.2538956
   9.9812782  54.7380097  97.7792760  10.5216782  59.6737314  82.7164873
  10.6619743  60.1709779  83.4193514  11.0199315  58.9723609  82.8579086
  10.6157863  59.6439293  82.8416452  10.5517005  60.5404425  80.0457450
  11.1862084  61.1364850  79.9806911  10.6342615  60.2407883  80.8603320
  10.6573556  60.5845334  80.1560536  23.5299570  63.0719903  92.9143814
  24.1217411  63.7117153  92.9462012  23.9658565  62.3742939  93.2035881
  23.6818002  63.0638253  92.9624646  12.1295987  56.4718401  80.0202892
  12.4511829  55.9921483  79.3662154  12.3922931  57.2818047  79.8293703
  12.2162013  56.5208299  79.8958384  15.3592960  67.4937275  93.5401708
  14.8518051  68.0473122  93.9842338  15.0619606  67.5545565  92.7220482
  15.2397845  67.5843586  93.4850164  17.5255142  55.8590595  92.3826371
  17.9510214  55.4063121  91.7709897  16.9112136  55.3050665  92.6591158
  17.4983788  55.7104571  92.3331396   7.0569992  62.7372266  83.3146996
   7.5662222  63.3336774  83.6958301   7.5304265  62.4698240  82.6323415
   7.2013368  62.7858082  83.2701518  17.9700741  71.4100533  81.4705651
  17.2530050  71.2361395  81.0052889  18.6207478  71.1753105  80.9381137
  17.9602591  71.3496325  81.3234869  15.9649365  52.3305695  85.7916948
  15.3217683  52.1803341  86.3602086  15.6248772  52.0848040  85.0266052
  15.8194443  52.2717817  85.7619963  20.5548712  60.2865121  85.2146956
  19.8839902  60.8294824  85.0860022  21.2488462  60.7559977  84.9728651
  20.5577579  60.4363393  85.1602484  14.6035446  72.4261833  90.4458715
  14.3801100  71.6680663  90.8142741  14.1145289  72.4559855  89.7239154
  14.4978895  72.3184058  90.3935456  20.7176839  56.7421005  88.1237329
  21.0704449  56.3150728  88.7983128  19.8591641  56.6571849  88.2538406
  20.6426284  56.6665746  88.2432340   9.4160524  59.3728525  86.1820176
   8.6972513  59.7892657  86.4493040   9.7872887  59.9382763  85.6311814
   9.3652456  59.5177806  86.1402983  18.7160105  60.0056374  92.0722172
  18.6958032  59.8239669  92.9256951  18.7639306  60.8768392  92.0481755
  18.7194746  60.1072912  92.1945466  16.6606435  66.5943566  97.9970648
  16.6202290  65.9493243  97.4115804  17.4729753  66.5380183  98.3096060
  16.7749588  66.4902532  97.9567597  13.2513902  72.6462291  87.8995799
  12.8374301  71.9836422  87.5099641  13.9361277  72.7940150  87.3791493
  13.2912274  72.5702950  87.7652296  16.6179197  71.8052377  88.6519416
  16.2195480  71.9154647  87.8840236  16.0030416  72.0134443  89.2345976
  16.4678086  71.8525945  88.6250715  15.1907099  58.4126525  81.5193555
  14.5971938  58.7343521  80.9678122  15.2282376  57.5667620  81.3114662
  15.1081488  58.3350853  81.4076327  22.1500899  51.8639417  89.0521642
  21.6431764  51.1568556  88.9842819  22.9468333  51.5332606  89.1822719
  22.1928139  51.7112568  89.0620637  18.0664915  58.3706029  84.9495306
  17.8378608  58.3938731  84.1073664  18.3262991  57.5463496  85.0690316
  18.0711103  58.2522109  84.8420503  12.3484144  60.2240502  94.5520406
  11.8363047  59.6161685  94.9105437  12.1763640  60.9397095  95.0194382
  12.2473781  60.2403801  94.6736630   7.1949858  58.6678077  97.2022768
   7.0252449  59.3279452  96.6570974   6.7515808  58.8784639  97.9235257
   7.1049192  58.7964060  97.2284397  11.1209678  56.9082575  86.2449501
  11.5967044  57.2699655  85.6099682  10.6198277  57.5639043  86.5249644
  11.1175037  57.0576764  86.1926242  24.3521039  66.3804343  82.0362506
  24.7354645  67.1295700  82.2660603  23.5565153  66.6270163  81.7774495
  24.2914821  66.5274037  82.0320080  16.2253214  58.1464747  96.9922661
  16.7824644  57.9178556  96.3601127  15.9014279  58.9070412  96.7157874
  16.2599624  58.2248583  96.8579159   4.0951923  61.5724943  92.4611258
   3.5478642  60.9025589  92.5792126   4.8844301  61.2054791  92.5254725
   4.1304106  61.4189929  92.4879958  13.9436331  61.2332400  97.9574669
  14.6947658  61.5484077  98.2714223  14.1358908  61.0311571  97.1308590
  14.0827745  61.2499782  97.8818064  13.1636331  59.0523775  79.6122885
  13.5435296  59.0703404  78.8274000  12.4228927  59.4977764  79.4913733
  13.1105169  59.1205550  79.4786454  20.7921621  57.3605966  85.1998464
  20.7915848  57.2054623  86.0582740  20.5877801  58.2068953  85.1439850
  20.7621399  57.4626587  85.3186403   2.8538892  60.7845751  89.6157281
   2.6760653  60.3322360  90.3412196   2.5657914  61.5871912  89.7995758
   2.7851845  60.8368309  89.7500783  18.5162473  62.0403468  88.8534671
  19.0116139  61.3226463  88.8138691  17.7062249  61.7374266  88.7389158
  18.4706367  61.8901114  88.8308397  13.9621085  65.8901281  81.0031675
  13.1532408  65.5667955  80.9564985  14.4695994  65.1834503  80.9359924
  13.9170752  65.7382598  80.9861970   4.5911362  63.3173475  86.7279040
   3.7256882  63.3059165  86.6161811   4.6910178  63.1303697  87.5750179
   4.4785529  63.2879536  86.8367984  20.5814292  64.7907156  91.5411800
  21.0069364  64.2681577  90.9882225  20.2171212  65.3887993  91.0200423
  20.5900895  64.8017383  91.3820809  10.2168372  73.0871373  90.3009145
  10.5314931  73.9007762  90.3086927  10.6261785  72.7021592  90.9691304
  10.3236470  73.1500076  90.4013237  17.1692892  68.5041420  87.8712957
  17.6404070  69.2181683  88.0402942  17.5053070  67.9040170  88.4072827
  17.2888007  68.5212884  87.9745333  19.2569876  70.1142733 100.0505029
  19.3666842  69.3251294 100.4061776  19.5860773  70.0248669  99.2479367
  19.3222282  69.9848586  99.9847420  14.0862387  53.2768890  94.8271052
  14.2190292  52.4799884  95.1552027  14.4707539  53.8035293  95.4069328
  14.1618716  53.2368807  94.9614555  17.8066838  68.2959354  94.6340650
  17.2587784  67.6717238  94.3660715  18.2679867  68.4853626  93.9184729
  17.7934047  68.2318404  94.4891081  17.1594742  50.1999217  91.4252145
  16.3540706  50.0896946  91.7419983  17.0301477  50.3011672  90.5682011
  17.0214875  50.1982887  91.3460186  20.6160702  56.3644709  92.0191842
  20.0323691  56.8653915  91.6069409  20.9364996  55.8574265  91.3856165
  20.5773878  56.3636544  91.8650349  13.1555502  55.2785303  82.2950517
  13.9771196  55.4483616  82.0532212  12.6925152  55.4332564  81.5716814
  13.2086664  55.3267036  82.1522161  11.7450833  53.2728066  93.0748946
  12.2895246  52.9319192  93.6653287  11.7987769  54.1313527  93.2170230
  11.8339953  53.3483325  93.1830819   7.5581392  67.0344482  89.9487754
   8.1626250  66.9940316  89.3201574   7.3508705  67.8815634  89.9791809
   7.6170289  67.1532484  89.8603870  17.3725164  69.3010427  91.1649991
  18.1923538  69.1573393  91.4266286  17.0919242  69.9256626  91.7066429
  17.4521908  69.3720779  91.2837930   2.7932674  66.0179099  89.8186677
   2.6956953  65.2075371  90.1276733   3.5761544  65.9970892  89.4332945
   2.8948811  65.8946189  89.8073540  33.8438815  76.9575278  84.1292867
  33.8132819  77.8119915  84.3011137  34.4420163  76.6570571  84.6879011
  33.9275973  77.0391775  84.2367670  27.0438500  76.0450929  88.8845798
  26.1876395  76.2059428  88.9354915  27.0906153  75.1742993  88.9050859
  26.9237611  75.9401731  88.8951864  21.4279639  85.5813647  84.6483029
  20.6762539  85.2029186  84.4199074  21.8765651  85.6132081  83.9001840
  21.3829306  85.5299254  84.5040531  30.3532216  82.3137455  98.4906254
  31.0598983  81.8189486  98.6193188  30.5420152  82.7546537  97.7608912
  30.4860122  82.3055805  98.4015299  26.8804599  86.0039017  80.0768576
  26.5455968  86.6815938  79.6412799  27.3931470  85.6144328  79.4885448
  26.9070180  86.0463595  79.9255368  26.4208890  87.9553286  86.0179688
  26.8048270  88.5240184  85.4784463  26.3568032  87.2302796  85.5385504
  26.4682318  87.9328749  85.8673551  29.8890321  78.1042973  91.5277449
  30.4346281  78.7828060  91.5871419  29.8307197  77.9630434  90.6679031
  29.9606235  78.1834975  91.4089510  23.0064395  85.5932039  86.9145802
  23.1074758  84.7832393  87.2242930  22.4106141  85.4988986  86.2845480
  22.9336934  85.4597068  86.8672040  31.6655389  79.5327580  82.4011177
  31.5494915  80.2835267  82.8303315  32.4611276  79.2751534  82.6507264
  31.7659979  79.6062427  82.5015269  22.8465135  90.5109629  88.3160658
  23.4902591  90.9522793  88.7056816  23.1721391  89.7063055  88.2290917
  22.9896964  90.4574823  88.3606135  16.2029440  81.6152326  86.5398135
  15.9679624  80.7819978  86.4330404  16.3415080  81.8956992  85.7259336
  16.1885102  81.5335829  86.4040490  18.5019527  73.7838057  89.4382443
  17.8824559  73.1930704  89.2692458  18.4003391  74.3749492  88.8046766
  18.3957203  73.7842139  89.3187433  23.5485715  83.5221603  83.6880520
  23.8701556  84.0626811  83.0841828  24.1957811  82.9518375  83.8202809
  23.6911770  83.5180779  83.6187555  25.5987423  75.5237598  83.7714906
  26.2967588  75.7025726  84.2636370  25.9139755  75.0007938  83.1485296
  25.7482760  75.4731371  83.7516916  18.2288660  77.3290338  91.6826012
  18.1047357  77.9152784  92.3175831  18.8806945  76.8350534  91.9838287
  18.3062310  77.3429143  91.8211941  25.7875358  81.9108043  83.7594698
  26.2268994  81.3025144  84.2049471  25.6380021  81.5315417  82.9880163
  25.8296824  81.7646515  83.7113865  23.2547001  80.5052055  90.9613523
  23.8996004  80.0124498  90.6424472  23.4948778  80.6476842  91.7879602
  23.3857586  80.4529498  91.0363056  25.7933093  83.3506961  90.6120416
  26.0756335  82.5558367  90.3907172  26.5219253  83.8287549  90.6325477
  25.9422656  83.3041558  90.5823431  23.7714286  70.8929995  87.8536181
  23.4417616  71.3441139  87.1839880  23.0959288  70.8146158  88.4009187
  23.6224723  70.9481130  87.8359404  29.3884695  80.2635225  80.7125467
  29.3035990  81.1196191  80.8575036  29.8769078  79.9879549  81.3807626
  29.4473592  80.3492546  80.8327549  30.9790694  66.8815518  86.0985792
  30.6644135  67.5718997  86.5306214  30.4617636  66.8260300  85.3971292
  30.8555165  66.9750407  86.0582741  30.3203128  76.8820019  82.2123202
  29.7914599  77.0979652  82.8720508  30.8428148  77.5756157  82.1324171
  30.3191581  77.0163156  82.2978801  35.7751181  82.4566323  87.5856247
  34.9448884  82.6676967  87.7489663  35.7260433  81.6303378  87.3098530
  35.6457916  82.3655930  87.5693612  22.2102736  80.7783236  81.0130670
  21.6259951  81.2833267  81.4196534  21.8072831  80.5525623  80.2727262
  22.0642040  80.8191484  80.9635695  17.7646764  86.4937997  87.8154342
  17.2814343  87.2188486  87.7913925  18.5770083  86.7914127  87.9264499
  17.8137512  86.6440351  87.8281621  23.8360918  85.2870178  90.4204156
  23.3187860  84.9277593  89.8165464  24.5335310  84.7632352  90.4310222
  23.8626500  85.1567865  90.3334415  27.4924510  85.7364992  96.3820329
  27.5807856  85.5491132  97.2298539  27.9214223  85.0902421  95.9825176
  27.5686613  85.6127999  96.4492081  25.0594970  85.0196152  95.3637991
  24.4965805  84.6068761  95.8877653  25.8215994  84.9449057  95.7831135
  25.0889419  84.9473552  95.5030992  26.6679950  77.0248888  79.4899591
  26.9075954  77.2326872  78.6774934  26.9895791  76.2206396  79.5988535
  26.7517108  76.9362989  79.3860144  21.9770240  68.9542284  83.3359129
  22.7316209  69.3220601  83.0976179  21.7997775  69.3281838  84.1038308
  22.0624719  69.0640471  83.4144017  20.6190962  87.0094173  87.9674621
  21.3211541  86.4946162  88.0247378  20.5388445  87.3368324  88.7721497
  20.7114722  86.9808399  88.0947414  35.2705139  75.1036724  91.3806668
  34.4333560  75.1738911  91.6154262  35.2393370  75.1061219  90.5080970
  35.1423422  75.1146951  91.2866216  21.6669868  77.2469760  97.0955037
  21.8390372  77.1375654  97.9440318  22.2039226  77.8924165  96.8586229
  21.7714872  77.3261761  97.1860133  20.3327305  71.3612602  80.0337242
  20.1502878  71.5784483  79.2078234  21.1952918  71.4751615  80.0895856
  20.4331895  71.4102500  79.9191729  19.9441737  83.2000525  87.4760230
  20.7830637  83.4323458  87.5233991  19.9753506  82.3304836  87.4067265
  20.0723455  83.1057471  87.4724874  20.5694440  83.6201400  91.7773535
  21.1092665  83.4772531  92.4476907  19.8864386  84.0198151  92.1457561
  20.5486594  83.6581071  91.9307957  26.0127024  68.3639013  83.0686265
  26.7413185  68.1854968  82.6224422  26.1021917  69.2057093  83.2793444
  26.1333686  68.4622892  83.0339783  29.9935325  79.2992401  86.9718559
  30.7492840  79.7323915  87.0107468  30.0997649  78.6497170  87.5453195
  30.1205496  79.2669884  87.0616585  33.0315496  83.1265678  87.7220962
  32.5950728  83.1302420  88.4779934  32.6978412  83.8071177  87.2900540
  32.9178116  83.2278134  87.7701795  27.6044570  85.1674011  99.0464113
  28.3884986  85.2804858  99.4119855  27.4041164  84.3415148  99.2422799
  27.6910595  85.0620730  99.1298499  15.9731585  79.8401691  91.9307957
  15.7070000  79.0240807  92.0898947  15.9870149  79.8854846  91.0603472
  15.9356307  79.7258596  91.8261439  32.9512979  70.1679506  89.9650390
  33.5938887  70.2377610  90.5512306  33.2036000  69.5008729  89.4629932
  33.0835111  70.0805854  89.9777670  19.8789332  74.6386775  78.5459715
  19.1647509  74.3524955  78.9582147  20.3633301  74.9783401  79.1866102
  19.8448695  74.6468425  78.7015350  20.7230192  73.3780069  94.5774964
  20.0301988  72.9077049  94.8235696  21.3390519  73.1518374  95.1516671
  20.7114721  73.2747201  94.6984117  27.7614963  87.0784113  92.6930568
  26.9630209  86.8383613  92.9504437  28.2100975  87.1298506  93.4397616
  27.7089574  87.0506504  92.8415493  36.1659842  79.8446598  86.6140600
  36.8276276  79.2837266  86.5136508  35.5251254  79.3498628  86.9393291
  36.1688710  79.6883007  86.6472940  27.0536650  83.1416729  78.9221523
  27.4687799  82.8101753  78.2306019  26.2228580  82.9085631  78.7941660
  26.9924659  83.0587985  78.8012370  16.3824999  80.6260470  89.2119701
  16.2000572  80.6007356  88.3591993  17.1174668  81.0959408  89.2508610
  16.4639063  80.6921832  89.0917619  32.4524673  80.8611980  86.3552588
  32.6880262  81.0057179  85.5279439  32.6014237  81.6254388  86.7484102
  32.5090476  80.9951034  86.2916192  19.4470751  77.3445473  95.7201809
  20.1710723  77.3298504  96.2066704  19.5486887  78.0540828  95.2223778
  19.5688960  77.4470176  95.7180596  34.2815130  79.7013646  84.1922192
  34.6123347  80.2341286  83.5862287  34.8548218  79.7552534  84.8484143
  34.4148809  79.7883215  84.1999974  26.8215700  80.8244558 100.5850756
  26.0288681  81.1388069 100.7703376  26.9364627  81.0396026  99.7471541
  26.7211110  80.9028394 100.4889091  29.4947019  77.5478549  84.8745772
  29.5893873  78.2867843  85.3285398  28.8705862  77.1196024  85.3080337
  29.4156049  77.5939869  85.0053920  27.7499493  80.7264761  95.5236053
  28.3238354  80.0892006  95.6784617  27.6714296  80.7268844  94.6545711
  27.8232728  80.6329873  95.4182464  16.3495909  77.5053971  89.3618767
  16.9269412  77.3690422  90.0011013  15.6509971  77.0489755  89.6164352
  16.3316931  77.4176237  89.4941057  29.7470040  79.3927289  78.1082724
  29.6650203  79.4629476  78.9737711  30.3849761  79.9557032  77.9166465
  29.8289878  79.4866260  78.2072674  23.1063211  79.1588026  87.5757251
  22.8482456  78.3259761  87.5488550  23.1611694  79.3845639  86.7349751
  23.0762989  79.0685798  87.4477387  28.1864262  71.2616477  87.6761343
  27.4820588  70.7725663  87.8345262  28.2349236  71.2738952  86.8049788
  28.0894313  71.1906125  87.5700683  22.0797924  76.7125789  88.0622145
  21.5047515  76.8717957  88.6986106  21.7033600  76.0761198  87.5990596
  21.9400736  76.6423602  88.0876704  25.7471212  75.1849138  92.9214524
  25.3585645  74.7603356  92.2666715  25.0825910  75.4331288  93.4291550
  25.5918140  75.1587859  92.9002392  35.3894481  74.9424143  85.6962354
  35.1331046  74.1304084  85.5060237  36.2323795  74.9501710  85.4692541
  35.4760507  74.8236140  85.6347171  11.8254742  76.3565864  86.0766586
  11.9114994  75.9797732  86.8580116  12.4530540  75.9826309  85.5986544
  11.9311293  76.2451346  86.1212063  29.5697574  68.8823767  90.4338508
  29.9508085  68.2001938  90.8206382  28.7660858  68.5933369  90.2514172
  29.5074035  68.7390815  90.4642564  26.8510150  79.4147743  81.1191331
  27.6650789  79.7062636  81.0074102  26.7869292  78.7607605  80.5449624
  26.9612889  79.3612938  81.0180168  33.0719641  82.0973739  95.5320906
  32.8358278  81.2661804  95.4132967  33.7162869  82.0459346  96.1175751
  33.1314311  81.9671427  95.6006800  22.7218059  82.8869260  86.2463643
  23.3592006  82.6481008  86.7915436  23.1473130  83.0906419  85.5116803
  22.8794225  82.8820270  86.2180800  17.4130701  85.1257597  90.1297947
  17.4534846  85.3972448  89.3017726  17.9725225  85.6499505  90.5455735
  17.5014047  85.2433352  90.0689835  23.3620874  78.1071550  80.5838532
  23.7466026  77.8879257  81.3355077  23.1132494  78.9334495  80.7139609
  23.3822946  78.1969696  80.7139609  23.5289414  71.3877965 100.3001116
  23.2142855  72.1577528 100.0370679  23.2079347  70.8248221  99.7153343
  23.4348333  71.4188234 100.1742466  34.0956061  81.8818188  91.5949201
  33.7901878  82.6146245  91.9562517  33.3762277  81.4756117  91.3141987
  33.9443403  81.9299921  91.6062338  25.1039531  83.3641683  87.9257429
  25.1778539  83.2016855  88.7799279  25.9209037  83.5531872  87.6817911
  25.2355889  83.3678425  88.0155455  39.7957853  78.5211188  90.9217545
  39.7282354  78.5407148  90.0520132  39.7813516  79.3641516  91.1473216
  39.7836610  78.6484923  90.8270022  18.8645287  83.7099546  84.9551873
  18.0383405  83.9561283  84.8286151  18.9257279  83.6311627  85.8213931
  18.7519454  83.7344495  85.0640817  21.0821311  69.7768487  85.9147313
  20.2143737  69.8491086  85.9804922  21.3696515  70.5790566  86.1035288
  20.9961059  69.9062634  85.9522079  30.2054200  69.9246346  94.2458635
  30.9507792  69.7356156  93.8322060  29.7891504  70.4504584  93.6872491
  30.2539174  69.9748491  94.1023208  23.6444116  86.3276426  82.6570903
  23.9342415  85.9365407  81.9330129  24.3747597  86.5093131  83.0976178
  23.7951001  86.2970240  82.6153710  37.5816471  77.2955575  89.1964140
  38.1324392  76.6623644  89.4361232  37.5660586  77.8270967  89.8879644
  37.6601667  77.2804523  89.3342998  24.2338862  81.1294172  93.7424033
  23.7350555  81.8409940  93.8208921  25.0439086  81.4494838  93.7042195
  24.2794968  81.2821020  93.7480602  21.5850032  88.3043808  85.7231052
  21.3650327  88.0141163  86.5157719  21.3644554  87.6458763  85.1948965
  21.5197626  88.1643517  85.7619961  20.4966979  80.3917125  87.9886754
  20.2080228  79.7654596  88.5232481  21.3650327  80.3337412  88.0551434
  20.5827231  80.2904669  88.0777708  31.2844877  75.5351908  88.3068736
  30.9409643  74.8142243  88.6575985  31.3837919  75.3265759  87.4647094
  31.2486920  75.3976112  88.2340416  23.7517988  89.6773198  84.5061745
  24.4042046  89.1449641  84.7352771  23.0543596  89.3241851  84.8929619
  23.7448706  89.5462721  84.5973912  20.6999252  82.0312376  83.9129119
  21.4545220  82.4125415  84.1264581  20.1069865  82.4823520  84.3675815
  20.7235966  82.1541203  84.0111997  31.7457906  81.9977612  83.8492724
  32.3115939  82.6570822  83.7651267  31.0985809  82.3427310  84.3209126
  31.7336662  82.1459554  83.9065480  23.1605920  73.9875216  99.0386331
  22.3505695  74.2932996  98.9276174  23.6380606  74.7080799  99.1538915
  23.1109398  74.1389817  99.0393402  22.0197479  83.2020937  89.2869234
  21.4978233  83.3421229  89.9721099  22.4071499  82.4431602  89.4771352
  22.0001180  83.1106461  89.4170311  19.0088663  73.2526746  83.3564189
  18.7213459  72.8828016  82.6196136  19.6959131  73.7221601  83.0947894
  19.0677560  73.2673715  83.2079265  28.2164484  84.9416397  83.2729803
  27.9751160  84.2084257  82.8656868  28.3965817  85.4903254  82.6196136
  28.2072108  84.9138788  83.1160026  23.4463805  80.2324956  84.6850725
  23.2506587  80.8399691  84.0911028  23.6698150  79.5392900  84.2042399
  23.4498446  80.2202482  84.5266806  21.8442335  77.1179694  84.8031594
  22.5664987  77.2820852  84.3435400  21.3650327  77.8389359  84.6970933
  21.8806065  77.2477924  84.7197208  29.8035842  73.4543493  90.1828279
  28.9646943  73.4804772  89.9466542  29.8740210  74.1014228  90.7633625
  29.6904236  73.5539619  90.2337396  19.4949951  79.5237767  93.9085734
  20.0071048  79.8022020  93.2594493  19.2086294  80.2627061  94.2748547
  19.5284815  79.6740120  93.8675612  28.2505121  70.3528870  84.9155895
  28.9531473  70.1536618  84.4375853  27.9849309  69.5804812  85.2224738
  28.3151753  70.2091836  84.8901336  33.6793366  78.6611480  87.4689520
  33.5927341  78.8166906  88.3224299  33.2243846  79.3049555  87.0948925
  33.5996623  78.7787235  87.5396627  16.5816858  74.0307958  84.2049470
  16.6832994  74.8334120  84.5330446  17.3772744  73.8295294  83.9072551
  16.7144763  74.1193857  84.2084825  23.0133677  71.6164155  93.9686775
  22.8216874  71.6319290  94.8186199  23.8632273  71.8127830  93.9453430
  23.1109399  71.6478506  94.0910070  17.3980590  74.1455137  91.9470592
  17.2566082  73.2939077  92.0715100  17.6821153  74.1883797  91.1232798
  17.4188436  74.0254887  91.8438216  27.5519182  75.9822227  86.0915080
  27.3053896  75.9017978  86.9251869  27.8804305  75.1975695  85.8977607
  27.5640426  75.8548492  86.1862603  31.4467231  82.6905586  89.8801861
  31.3081590  83.3886632  90.3850604  30.6667229  82.5354243  89.5238043
  31.3110458  82.7705753  89.9028135  29.7845316  78.9901962  96.1324243
  29.7793355  78.1181778  96.1366669  30.4906310  79.1890131  95.6593699
  29.8890320  78.8905836  96.0631278  23.5116209  78.7178945  95.5038063
  23.6559585  79.2980154  94.8681173  23.8591858  79.0955242  96.2087918
  23.5843671  78.8599650  95.5137058  25.6836127  77.9169114  93.2863195
  24.9359441  78.1100128  92.8811473  25.8377652  77.0914333  93.0487316
  25.5958554  77.8234225  93.1908600  22.5843964  86.9081717  92.3699090
  22.7333528  86.3484633  91.7172494  23.3643967  86.9873719  92.7531609
  22.7218058  86.8367283  92.3296039  32.9420604  82.0483840  80.6418360
  32.5627413  81.2620978  80.6347650  32.2786849  82.5970697  80.4990005
  32.7879079  82.0128664  80.6199157  25.1097265  87.0796360  93.6483581
  25.0340936  86.4105171  94.2034369  25.0387124  87.7814148  94.1624247
  25.0877872  87.0841268  93.8060429  25.9237904  71.8119665  94.1758598
  26.3810518  72.5443639  94.3031391  25.9994233  71.3886130  94.9345854
  26.0028874  71.8576903  94.3059675  18.1670895  72.0585484  95.2648042
  17.6313085  71.4465842  95.5808809  18.2288660  72.6333620  95.9181709
  18.0966528  72.0532412  95.4083469  30.3965230  64.9909540  88.0452441
  30.5148798  65.4486003  87.3119744  30.2227405  64.1854801  87.7588659
  30.3884401  64.9403312  87.8953375  25.7667512  85.5997359  84.4807187
  26.5317403  85.3307003  84.1589851  25.6645602  85.1147369  85.1977249
  25.8649007  85.4886924  84.5387014  23.8020282  73.8021769  91.0200422
  23.0116357  73.6213229  91.3417758  24.1980905  73.0248721  91.0030717
  23.7437158  73.6609229  91.0652971  28.2886173  82.6309543  76.4607136
  29.0559158  82.6909668  76.0512988  27.8417482  82.0589984  75.9763455
  28.3359600  82.5546119  76.3284846  29.1863968  81.4364199  88.7459868
  28.5108970  81.2049431  89.2473255  29.1956344  80.8285382  88.1201973
  29.0882473  81.3123124  88.7276021  26.3158112  76.2782028  95.5023921
  26.2517253  77.1391984  95.3744058  26.4555300  75.9614021  94.7019473
  26.3273582  76.3582194  95.3652134  31.1880703  84.2929331  80.9770046
  31.2700540  85.0996317  80.6531497  31.6730445  84.3125290  81.7010820
  31.2717861  84.4149993  81.0356945  24.9977206  78.9714167  89.6440124
  24.5739455  79.1718666  88.9079143  24.8222061  78.1243015  89.7564424
  24.9088087  78.8762948  89.5513814  24.4988899  90.4864680  92.1061581
  24.9884830  89.7875469  91.9237246  23.9273132  90.1888550  92.6937639
  24.4873429  90.3390904  92.1662622  20.2859651  79.4666218  85.0768097
  20.4424270  79.4013021  85.9324089  20.6260244  80.2414771  84.8646776
  20.3592886  79.5715417  85.1722691  26.8238796  78.8424102  83.9461460
  27.3654341  78.3394483  84.4100081  27.1385355  78.7889297  83.1350945
  26.9503193  78.7603523  83.8945272  30.6955903  83.0526749 101.0588372
  31.5090768  82.7811898 101.2193505  30.5350869  82.7534289 100.2548568
  30.7925851  82.9681675 100.9633778  24.9925245  84.2341454  81.2301488
  25.0618066  83.3755992  81.3694488  25.7713700  84.4513334  80.9020513
  25.1178095  84.1394317  81.2018645  27.9728065  73.7360406  93.9983760
  28.1870034  73.0971321  93.4447114  27.3561964  74.1806230  93.5691622
  27.9133394  73.7070550  93.8534191  29.3832733  86.6579155  85.4437981
  28.9912525  86.3545870  84.7260847  29.5385805  87.4948245  85.2542935
  29.3486323  86.7362992  85.3094478  16.8593912  76.6501169  85.3928864
  17.2392877  77.0685714  84.7289131  16.2849277  77.2314625  85.6997707
  16.8305237  76.7979028  85.3405605  30.1367153  75.3449472  94.9367067
  29.3243835  75.0375362  95.0180240  30.5957088  74.8648472  95.5009780
  30.0847538  75.2285964  95.0321662  29.5472408  83.2229144  85.3844012
  29.1887062  83.3943787  86.1608044  29.0611118  83.6842349  84.8272010
  29.4231104  83.3168115  85.4169281  27.3642794  66.8460342  88.9871103
  26.4936351  66.8199063  88.9404413  27.6183135  66.6737534  88.1696949
  27.2736354  66.8170486  88.8591240  24.3360773  78.9028309  77.9244246
  24.6253298  79.6793192  78.1987820  24.4232572  78.3917040  78.6258746
  24.3915029  78.9420227  78.0686744  27.2320660  76.7509543  99.7195770
  27.7020292  77.3751660 100.1063644  27.2782541  76.0826519 100.2788984
  27.3088536  76.7444223  99.8595841  24.3891934  68.8566571  90.4444574
  23.8730423  68.1646762  90.5696153  23.8285863  69.5237348  90.3907172
  24.2298447  68.8529828  90.4550640  26.4584168  69.3959531  92.2737426
  26.0715921  69.4208562  93.0550956  25.9717105  68.8301209  91.8211943
  26.3296676  69.3155281  92.3225330  30.7077147  84.1133040  96.3311213
  31.3456867  83.6193235  95.9973669  30.0651239  84.0410440  95.7463440
  30.7071373  84.0292048  96.1953568  32.4334147  75.9622186  90.8977128
  32.0061755  75.8748534  90.1425228  31.7960200  76.0699961  91.4831972
  32.2763754  75.9654845  90.8722570  26.1241309  66.2826516  94.5647686
  26.7534427  66.8186816  94.2868756  26.2927172  66.1903875  95.4161252
  26.2419104  66.3487878  94.6496214  25.9255224  71.0697711  96.8374098
  26.7528653  70.7982860  96.8932712  25.9463070  71.8658553  97.1937916
  26.0508074  71.1477465  96.8989281  30.7631404  84.8052848  92.9716569
  31.5523782  84.4541913  93.0918651  30.9375001  85.6189236  92.7093203
  30.9051685  84.8738705  92.9504437  20.5024714  78.2161574  90.0244358
  19.6612721  78.1165448  90.2323252  20.7114722  78.9857054  90.3758679
  20.4089407  78.3153617  90.1071673  17.9800281  75.8381111  87.8529109
  17.5856979  75.9124122  87.0779219  17.4240398  76.2239057  88.4037471
  17.8403093  75.9062885  87.8196769  29.6165228  68.8162405  87.5332988
  29.8214821  68.7484712  88.3789985  29.2891652  69.6221226  87.4654165
  29.5980476  68.9248345  87.6492643  24.3141379  76.1442973  89.2741956
  24.0104516  75.5898961  89.8752363  23.6120800  76.3235183  88.7869990
  24.1657589  76.0887755  89.2911661  23.3707476  73.4543493  83.8386658
  23.6467210  72.7362405  83.4264225  23.9706145  74.0528413  83.6307764
  23.5000741  73.4363863  83.7467419  22.3759730  83.3592694  93.9814054
  22.2680085  83.3694756  94.8476112  22.5855511  84.1847474  93.7919007
  22.3909841  83.4833768  94.0818145  32.8698915  69.3694169  87.0135753
  32.2573229  69.8564571  87.3989485  32.9663090  68.6937660  87.5573405
  32.7936813  69.3412478  87.1514612  26.8717996  71.1257010  82.1133253
  27.3261743  71.2967570  82.8381097  27.3458042  70.5125121  81.7131028
  27.0086317  71.0607895  82.1607014  20.3933522  80.6105336  91.4435991
  19.8021455  81.2514834  91.4139006  21.1554545  81.0342953  91.4167291
  20.4181782  80.7681174  91.4351138  20.7894145  71.7707334  92.1104009
  21.2495626  71.8446263  92.8479133  20.8350251  72.5688588  91.7603830
  20.8644700  71.9001481  92.1676765  22.4377494  72.4374029  96.6776036
  22.0463059  71.7907376  97.1131814  22.6063357  73.0285464  97.2970291
  22.4048405  72.4288296  96.8338742  36.5123943  80.4411106  92.4413269
  36.5707067  80.8897754  93.1873246  35.8790411  80.8509918  92.0043349
  36.4275238  80.5684840  92.4865818  30.1523038  86.0614648  88.8768016
  29.9542727  86.5505462  88.1824227  29.5310749  86.2655889  89.4552149
  30.0310602  86.1631186  88.8591239  24.2131016  77.8299544  83.2178260
  24.9573061  78.2173821  83.4561210  24.3591713  76.9856970  83.3818748
  24.3441602  77.7630017  83.2772230  26.1310592  69.6249803  88.2510121
  25.2846637  69.7972611  88.1251471  26.1281724  68.8199147  88.5875950
  26.0057742  69.5310832  88.2821248  27.2008892  73.4025018  89.1172179
  26.7268847  72.8766780  89.6277490  27.5727028  72.8554490  88.5487041
  27.1858781  73.2441014  89.1087326  17.5781922  75.3996524  94.4855725
  18.4407535  75.2992234  94.3993055  17.2473705  74.8191234  93.9241297
  17.6567119  75.2988151  94.3901131  33.4645623  78.4627393  90.5278960
  33.2243846  77.6233808  90.5321386  33.9437630  78.5427560  91.2519733
  33.4997807  78.3508793  90.6353762  29.1292392  74.2961572  82.1797933
  28.6015411  74.3790316  81.4903642  29.5888100  75.0379444  82.1762578
  29.1194242  74.4182235  82.0772628  35.4650810  75.2428851  88.4808219
  35.2260580  75.2024685  87.6429003  35.6284711  76.0900003  88.6073940
  35.4541113  75.3620936  88.3761701  32.0696840  79.6278800  94.4113264
  32.7931039  79.1751326  94.2324284  31.8046802  79.9083465  93.6285592
  32.1378113  79.6029768  94.2691979  20.9383708  74.2238973  91.1466143
  20.3136779  74.2357365  90.5392096  20.6029303  74.6999148  91.7957383
  20.7969200  74.2957490  91.1522712  21.1225457  72.5664092  77.2038828
  20.7738261  73.2183817  77.6670378  20.6421903  72.5521205  76.4762699
  20.9995701  72.6607145  77.1649919  17.6509384  82.2839433  92.5869907
  17.1209308  81.5931872  92.6364882  17.9234477  82.2749619  91.7582616
  17.6134106  82.1806565  92.4717323  28.6829474  82.8665136  81.3107590
  29.4063673  83.3323249  81.1672163  28.2430065  82.9338745  80.5605187
  28.7245167  82.9448973  81.1792371  27.8515629  79.7262678  92.5608279
  27.2372623  79.1820728  92.8556914  28.3682914  79.2126915  92.0814095
  27.8371292  79.5699087  92.5332507  27.0911927  80.7966948  90.2952578
  26.6639535  80.1716667  89.8618013  27.0836871  80.5141870  91.1211585
  27.0271068  80.6619729  90.3532405  20.2074454  75.8332121  93.3641012
  20.3667940  75.0775445  93.7692734  20.0267347  76.3823061  94.0181749
  20.2039813  75.8025935  93.5203718  28.1494757  67.9993357  93.9191801
  27.6535318  68.1957031  93.2283368  28.9063819  68.3986025  93.7480603
  28.1881581  68.0871091  93.7911938  25.4197636  71.6735703  90.5095112
  25.4440124  71.1395815  89.8207892  25.6709110  71.1653011  91.1720702
  25.4607555  71.5196607  90.5059756  12.9305226  78.9567198  89.9438256
  12.8248675  78.9114042  89.0790340  12.1805446  79.3020978  90.2252541
  12.8040829  79.0008106  89.8575586  21.6998959  70.4006521  89.8900856
  21.7397330  70.9015727  90.6035563  20.8748623  70.4916915  89.6206779
  21.5838485  70.4888337  89.9551394  23.8828571  79.9667261  97.9921151
  23.0324202  80.1038975  98.1278796  24.0456699  79.2331039  98.4368852
  23.7812435  79.8781362  98.0776750  23.1213322  76.9167031  92.1874755
  22.2905252  77.0840849  91.9810003  23.0664839  76.5402981  92.9723640
  22.9902737  76.8856762  92.2723283  20.9297105  70.4075924  97.8231166
  21.5549809  69.8638056  98.0960598  20.4747585  69.9270841  97.2538956
  20.9545366  70.2565405  97.7792760  21.4949366  75.1922622  82.7164873
  21.6352327  75.6895086  83.4193514  21.9931899  74.4908917  82.8579086
  21.5890447  75.1624601  82.8416452  21.5249588  76.0589733  80.0457450
  22.1594668  76.6550158  79.9806911  21.6075199  75.7593191  80.8603320
  21.6306139  76.1030641  80.1560536  34.5032154  78.5905211  92.9143814
  35.0949994  79.2302461  92.9462012  34.9391148  77.8928247  93.2035881
  34.6550585  78.5823561  92.9624646  23.1028571  71.9903709  80.0202892
  23.4244412  71.5106791  79.3662154  23.3655515  72.8003355  79.8293703
  23.1894596  72.0393607  79.8958384  26.3325544  83.0122583  93.5401708
  25.8250635  83.5658430  93.9842338  26.0352190  83.0730873  92.7220482
  26.2130429  83.1028894  93.4850164  28.4987726  71.3775903  92.3826371
  28.9242798  70.9248429  91.7709897  27.8844719  70.8235973  92.6591158
  28.4716371  71.2289879  92.3331396  18.0302576  78.2557574  83.3146996
  18.5394805  78.8522082  83.6958301  18.5036848  77.9883548  82.6323415
  18.1745952  78.3043389  83.2701518  28.9433324  86.9285841  81.4705651
  28.2262634  86.7546703  81.0052889  29.5940062  86.6938413  80.9381137
  28.9335175  86.8681633  81.3234869  26.9381949  67.8491002  85.7916948
  26.2950267  67.6988649  86.3602086  26.5981356  67.6033348  85.0266052
  26.7927026  67.7903125  85.7619963  31.5281295  75.8050429  85.2146956
  30.8572485  76.3480132  85.0860022  32.2221046  76.2745285  84.9728651
  31.5310163  75.9548700  85.1602484  25.5768029  87.9447141  90.4458715
  25.3533684  87.1865971  90.8142741  25.0877872  87.9745162  89.7239154
  25.4711478  87.8369366  90.3935456  31.6909423  72.2606313  88.1237329
  32.0437033  71.8336036  88.7983128  30.8324224  72.1757156  88.2538406
  31.6158867  72.1851054  88.2432340  20.3893108  74.8913833  86.1820176
  19.6705097  75.3077965  86.4493040  20.7605470  75.4568071  85.6311814
  20.3385040  75.0363114  86.1402983  29.6892689  75.5241681  92.0722172
  29.6690616  75.3424977  92.9256951  29.7371889  76.3953700  92.0481755
  29.6927330  75.6258220  92.1945466  27.6339018  82.1128873  97.9970648
  27.5934873  81.4678550  97.4115804  28.4462337  82.0565491  98.3096060
  27.7482172  82.0087840  97.9567597  24.2246486  88.1647599  87.8995799
  23.8106885  87.5021730  87.5099641  24.9093860  88.3125458  87.3791493
  24.2644858  88.0888258  87.7652296  27.5911780  87.3237685  88.6519416
  27.1928063  87.4339955  87.8840236  26.9763000  87.5319751  89.2345976
  27.4410669  87.3711253  88.6250715  26.1639682  73.9311832  81.5193555
  25.5704521  74.2528829  80.9678122  26.2014960  73.0852928  81.3114662
  26.0814071  73.8536161  81.4076327  33.1233483  67.3824725  89.0521642
  32.6164348  66.6753864  88.9842819  33.9200917  67.0517914  89.1822719
  33.1660722  67.2297876  89.0620637  29.0397499  73.8891337  84.9495306
  28.8111192  73.9124038  84.1073664  29.2995575  73.0648804  85.0690316
  29.0443687  73.7707417  84.8420503  23.3216727  75.7425810  94.5520406
  22.8095630  75.1346993  94.9105437  23.1496223  76.4582403  95.0194382
  23.2206364  75.7589109  94.6736630  18.1682442  74.1863385  97.2022768
  17.9985032  74.8464760  96.6570974  17.7248392  74.3969947  97.9235257
  18.0781775  74.3149367  97.2284397  22.0942261  72.4267883  86.2449501
  22.5699628  72.7884963  85.6099682  21.5930861  73.0824351  86.5249644
  22.0907620  72.5762072  86.1926242  35.3253623  81.8989651  82.0362506
  35.7087229  82.6481008  82.2660603  34.5297736  82.1455471  81.7774495
  35.2647405  82.0459345  82.0320080  27.1985798  73.6650055  96.9922661
  27.7557228  73.4363864  96.3601127  26.8746863  74.4255720  96.7157874
  27.2332208  73.7433891  96.8579159  15.0684506  77.0910251  92.4611258
  14.5211226  76.4210896  92.5792126  15.8576885  76.7240099  92.5254725
  15.1036690  76.9375237  92.4879958  24.9168915  76.7517708  97.9574669
  25.6680242  77.0669385  98.2714223  25.1091491  76.5496879  97.1308590
  25.0560329  76.7685090  97.8818064  24.1368914  74.5709083  79.6122885
  24.5167879  74.5888712  78.8274000  23.3961510  75.0163072  79.4913733
  24.0837752  74.6390858  79.4786454  31.7654205  72.8791274  85.1998464
  31.7648431  72.7239931  86.0582740  31.5610385  73.7254261  85.1439850
  31.7353983  72.9811895  85.3186403  13.8271476  76.3031059  89.6157281
  13.6493237  75.8507668  90.3412196  13.5390498  77.1057220  89.7995758
  13.7584429  76.3553617  89.7500783  29.4895057  77.5588776  88.8534671
  29.9848722  76.8411771  88.8138691  28.6794833  77.2559574  88.7389158
  29.4438950  77.4086422  88.8308397  24.9353668  81.4086589  81.0031675
  24.1264991  81.0853263  80.9564985  25.4428577  80.7019811  80.9359924
  24.8903335  81.2567906  80.9861970  15.5643946  78.8358782  86.7279040
  14.6989465  78.8244473  86.6161811  15.6642762  78.6489005  87.5750179
  15.4518113  78.8064844  86.8367984  31.5546876  80.3092464  91.5411800
  31.9801947  79.7866885  90.9882225  31.1903796  80.9073301  91.0200423
  31.5633478  80.3202691  91.3820809  21.1900956  88.6056681  90.3009145
  21.5047515  89.4193069  90.3086927  21.5994369  88.2206900  90.9691304
  21.2969054  88.6685383  90.4013237  28.1425475  84.0226728  87.8712957
  28.6136653  84.7366990  88.0402942  28.4785654  83.4225478  88.4072827
  28.2620590  84.0398192  87.9745333  30.2302460  85.6328041 100.0505029
  30.3399425  84.8436602 100.4061776  30.5593356  85.5433977  99.2479367
  30.2954866  85.5033894  99.9847420  25.0594970  68.7954198  94.8271052
  25.1922876  67.9985192  95.1552027  25.4440123  69.3220601  95.4069328
  25.1351299  68.7554115  94.9614555  28.7799422  83.8144662  94.6340650
  28.2320368  83.1902546  94.3660715  29.2412450  84.0038934  93.9184729
  28.7666631  83.7503712  94.4891081  28.1327325  65.7184525  91.4252145
  27.3273289  65.6082254  91.7419983  28.0034061  65.8196980  90.5682011
  27.9947458  65.7168195  91.3460186  31.5893286  71.8830016  92.0191842
  31.0056275  72.3839223  91.6069409  31.9097580  71.3759573  91.3856165
  31.5506461  71.8821851  91.8650349  24.1288085  70.7970611  82.2950517
  24.9503779  70.9668924  82.0532212  23.6657736  70.9517872  81.5716814
  24.1819247  70.8452344  82.1522161  22.7183417  68.7913373  93.0748946
  23.2627830  68.4504500  93.6653287  22.7720353  69.6498835  93.2170230
  22.8072536  68.8668633  93.1830819  18.5313976  82.5529790  89.9487754
  19.1358833  82.5125624  89.3201574  18.3241288  83.4000942  89.9791809
  18.5902873  82.6717792  89.8603870  28.3457748  84.8195735  91.1649991
  29.1656122  84.6758701  91.4266286  28.0651826  85.4441934  91.7066429
  28.4254491  84.8906087  91.2837930  13.7665258  81.5364407  89.8186677
  13.6689536  80.7260679  90.1276733  14.5494128  81.5156200  89.4332945
  13.8681395  81.4131497  89.8073540  44.8171398  92.4760586  84.1292867
  44.7865403  93.3305223  84.3011137  45.4152747  92.1755879  84.6879011
  44.9008556  92.5577083  84.2367670  38.0171083  91.5636237  88.8845798
  37.1608979  91.7244736  88.9354915  38.0638737  90.6928301  88.9050859
  37.8970195  91.4587039  88.8951864  32.4012223 101.0998955  84.6483029
  31.6495122 100.7214494  84.4199074  32.8498235 101.1317389  83.9001840
  32.3561890 101.0484562  84.5040531  41.3264800  97.8322763  98.4906254
  42.0331567  97.3374794  98.6193188  41.5152735  98.2731845  97.7608912
  41.4592705  97.8241113  98.4015299  37.8537183 101.5224325  80.0768576
  37.5188551 102.2001246  79.6412799  38.3664053 101.1329636  79.4885448
  37.8802764 101.5648903  79.9255368  37.3941474 103.4738593  86.0179688
  37.7780853 104.0425492  85.4784463  37.3300615 102.7488104  85.5385504
  37.4414901 103.4514057  85.8673551  40.8622904  93.6228281  91.5277449
  41.4078864  94.3013368  91.5871419  40.8039780  93.4815742  90.6679031
  40.9338819  93.7020283  91.4089510  33.9796979 101.1117347  86.9145802
  34.0807342 100.3017701  87.2242930  33.3838724 101.0174294  86.2845480
  33.9069518 100.9782376  86.8672040  42.6387973  95.0512888  82.4011177
  42.5227499  95.8020574  82.8303315  43.4343859  94.7936842  82.6507264
  42.7392562  95.1247735  82.5015269  33.8197719 106.0294937  88.3160658
  34.4635174 106.4708101  88.7056816  34.1453974 105.2248363  88.2290917
  33.9629547 105.9760131  88.3606135  27.1762023  97.1337634  86.5398135
  26.9412208  96.3005286  86.4330404  27.3147664  97.4142300  85.7259336
  27.1617686  97.0521137  86.4040490  29.4752111  89.3023365  89.4382443
  28.8557142  88.7116012  89.2692458  29.3735974  89.8934800  88.8046766
  29.3689786  89.3027447  89.3187433  34.5218298  99.0406911  83.6880520
  34.8434139  99.5812119  83.0841828  35.1690395  98.4703683  83.8202809
  34.6644354  99.0366087  83.6187555  36.5720006  91.0422906  83.7714906
  37.2700171  91.2211034  84.2636370  36.8872339  90.5193246  83.1485296
  36.7215344  90.9916678  83.7516916  29.2021244  92.8475646  91.6826012
  29.0779941  93.4338092  92.3175831  29.8539528  92.3535842  91.9838287
  29.2794893  92.8614451  91.8211941  36.7607942  97.4293351  83.7594698
  37.2001577  96.8210452  84.2049471  36.6112605  97.0500725  82.9880163
  36.8029407  97.2831823  83.7113865  34.2279585  96.0237363  90.9613523
  34.8728587  95.5309806  90.6424472  34.4681362  96.1662150  91.7879602
  34.3590170  95.9714805  91.0363056  36.7665676  98.8692269  90.6120416
  37.0488919  98.0743675  90.3907172  37.4951837  99.3472857  90.6325477
  36.9155240  98.8226866  90.5823431  34.7446870  86.4115303  87.8536181
  34.4150200  86.8626447  87.1839880  34.0691872  86.3331466  88.4009187
  34.5957306  86.4666438  87.8359404  40.3617278  95.7820533  80.7125467
  40.2768573  96.6381499  80.8575036  40.8501662  95.5064857  81.3807626
  40.4206176  95.8677854  80.8327549  41.9523278  82.4000826  86.0985792
  41.6376719  83.0904305  86.5306214  41.4350219  82.3445608  85.3971292
  41.8287748  82.4935714  86.0582741  41.2935712  92.4005327  82.2123202
  40.7647183  92.6164960  82.8720508  41.8160731  93.0941465  82.1324171
  41.2924165  92.5348464  82.2978801  46.7483764  97.9751631  87.5856247
  45.9181468  98.1862275  87.7489663  46.6993017  97.1488686  87.3098530
  46.6190500  97.8841238  87.5693612  33.1835319  96.2968544  81.0130670
  32.5992535  96.8018575  81.4196534  32.7805415  96.0710931  80.2727262
  33.0374623  96.3376792  80.9635695  28.7379348 102.0123305  87.8154342
  28.2546926 102.7373794  87.7913925  29.5502666 102.3099435  87.9264499
  28.7870096 102.1625658  87.8281621  34.8093502 100.8055485  90.4204156
  34.2920444 100.4462900  89.8165464  35.5067893 100.2817660  90.4310222
  34.8359083 100.6753173  90.3334415  38.4657094 101.2550300  96.3820329
  38.5540440 101.0676440  97.2298539  38.8946807 100.6087729  95.9825176
  38.5419196 101.1313307  96.4492081  36.0327554 100.5381460  95.3637991
  35.4698389 100.1254069  95.8877653  36.7948577 100.4634365  95.7831135
  36.0622002 100.4658860  95.5030992  37.6412534  92.5434196  79.4899591
  37.8808537  92.7512179  78.6774934  37.9628375  91.7391704  79.5988535
  37.7249692  92.4548297  79.3860144  32.9502824  84.4727591  83.3359129
  33.7048792  84.8405909  83.0976179  32.7730359  84.8467146  84.1038308
  33.0357302  84.5825779  83.4144017  31.5923545 102.5279481  87.9674621
  32.2944125 102.0131470  88.0247378  31.5121028 102.8553632  88.7721497
  31.6847306 102.4993707  88.0947414  46.2437723  90.6222032  91.3806668
  45.4066144  90.6924219  91.6154262  46.2125954  90.6246527  90.5080970
  46.1156005  90.6332259  91.2866216  32.6402452  92.7655068  97.0955037
  32.8122956  92.6560962  97.9440318  33.1771809  93.4109473  96.8586229
  32.7447456  92.8447069  97.1860133  31.3059889  86.8797910  80.0337242
  31.1235462  87.0969791  79.2078234  32.1685502  86.9936923  80.0895856
  31.4064478  86.9287808  79.9191729  30.9174321  98.7185833  87.4760230
  31.7563220  98.9508765  87.5233991  30.9486090  97.8490144  87.4067265
  31.0456038  98.6242779  87.4724874  31.5427024  99.1386708  91.7773535
  32.0825249  98.9957839  92.4476907  30.8596970  99.5383459  92.1457561
  31.5219178  99.1766379  91.9307957  36.9859608  83.8824321  83.0686265
  37.7145768  83.7040276  82.6224422  37.0754501  84.7242401  83.2793444
  37.1066270  83.9808200  83.0339783  40.9667909  94.8177708  86.9718559
  41.7225424  95.2509223  87.0107468  41.0730233  94.1682478  87.5453195
  41.0938079  94.7855192  87.0616585  44.0048080  98.6450986  87.7220962
  43.5683312  98.6487728  88.4779934  43.6710995  99.3256485  87.2900540
  43.8910700  98.7463442  87.7701795  38.5777153 100.6859319  99.0464113
  39.3617570 100.7990166  99.4119855  38.3773748  99.8600456  99.2422799
  38.6643179 100.5806038  99.1298499  26.9464169  95.3586999  91.9307957
  26.6802584  94.5426115  92.0898947  26.9602733  95.4040154  91.0603472
  26.9088891  95.2443903  91.8261439  43.9245563  85.6864814  89.9650390
  44.5671471  85.7562918  90.5512306  44.1768583  85.0194036  89.4629932
  44.0567695  85.5991162  89.9777670  30.8521916  90.1572083  78.5459715
  30.1380093  89.8710263  78.9582147  31.3365884  90.4968709  79.1866102
  30.8181279  90.1653733  78.7015350  31.6962775  88.8965377  94.5774964
  31.0034572  88.4262357  94.8235696  32.3123102  88.6703681  95.1516671
  31.6847305  88.7932509  94.6984117  38.7347547 102.5969421  92.6930568
  37.9362792 102.3568921  92.9504437  39.1833558 102.6483814  93.4397616
  38.6822158 102.5691812  92.8415493  47.1392426  95.3631906  86.6140600
  47.8008860  94.8022574  86.5136508  46.4983838  94.8683936  86.9393291
  47.1421293  95.2068315  86.6472940  38.0269234  98.6602037  78.9221523
  38.4420382  98.3287061  78.2306019  37.1961163  98.4270939  78.7941660
  37.9657242  98.5773293  78.8012370  27.3557582  96.1445778  89.2119701
  27.1733156  96.1192664  88.3591993  28.0907251  96.6144716  89.2508610
  27.4371646  96.2107140  89.0917619  43.4257257  96.3797288  86.3552588
  43.6612846  96.5242487  85.5279439  43.5746820  97.1439696  86.7484102
  43.4823060  96.5136342  86.2916192  30.4203334  92.8630781  95.7201809
  31.1443306  92.8483812  96.2066704  30.5219471  93.5726136  95.2223778
  30.5421543  92.9655484  95.7180596  45.2547713  95.2198954  84.1922192
  45.5855930  95.7526594  83.5862287  45.8280801  95.2737842  84.8484143
  45.3881392  95.3068523  84.1999974  37.7948284  96.3429866 100.5850756
  37.0021264  96.6573377 100.7703376  37.9097211  96.5581334  99.7471541
  37.6943694  96.4213702 100.4889091  40.4679602  93.0663857  84.8745772
  40.5626457  93.8053151  85.3285398  39.8438446  92.6381332  85.3080337
  40.3888633  93.1125177  85.0053920  38.7232076  96.2450069  95.5236053
  39.2970938  95.6077313  95.6784617  38.6446880  96.2454152  94.6545711
  38.7965311  96.1515181  95.4182464  27.3228493  93.0239279  89.3618767
  27.9001995  92.8875730  90.0011013  26.6242554  92.5675063  89.6164352
  27.3049514  92.9361545  89.4941057  40.7202624  94.9112596  78.1082724
  40.6382786  94.9814784  78.9737711  41.3582344  95.4742340  77.9166465
  40.8022461  95.0051568  78.2072674  34.0795795  94.6773334  87.5757251
  33.8215039  93.8445069  87.5488550  34.1344278  94.9030947  86.7349751
  34.0495573  94.5871106  87.4477387  39.1596845  86.7801785  87.6761343
  38.4553172  86.2910971  87.8345262  39.2081819  86.7924260  86.8049788
  39.0626897  86.7091433  87.5700683  33.0530507  92.2311097  88.0622145
  32.4780098  92.3903265  88.6986106  32.6766183  91.5946506  87.5990596
  32.9133319  92.1608910  88.0876704  36.7203796  90.7034446  92.9214524
  36.3318228  90.2788664  92.2666715  36.0558494  90.9516596  93.4291550
  36.5650723  90.6773167  92.9002392  46.3627065  90.4609451  85.6962354
  46.1063630  89.6489392  85.5060237  47.2056379  90.4687018  85.4692541
  46.4493090  90.3421448  85.6347171  22.7987326  91.8751172  86.0766586
  22.8847578  91.4983040  86.8580116  23.4263123  91.5011617  85.5986544
  22.9043877  91.7636654  86.1212063  40.5430157  84.4009075  90.4338508
  40.9240669  83.7187246  90.8206382  39.7393442  84.1118677  90.2514172
  40.4806619  84.2576123  90.4642564  37.8242734  94.9333051  81.1191331
  38.6383373  95.2247944  81.0074102  37.7601875  94.2792913  80.5449624
  37.9345473  94.8798245  81.0180168  44.0452224  97.6159047  95.5320906
  43.8090862  96.7847112  95.4132967  44.6895453  97.5644654  96.1175751
  44.1046895  97.4856735  95.6006800  33.6950642  98.4054568  86.2463643
  34.3324589  98.1666316  86.7915436  34.1205714  98.6091727  85.5116803
  33.8526808  98.4005578  86.2180800  28.3863285 100.6442905  90.1297947
  28.4267430 100.9157756  89.3017726  28.9457809 101.1684813  90.5455735
  28.4746631 100.7618660  90.0689835  34.3353457  93.6256858  80.5838532
  34.7198610  93.4064565  81.3355077  34.0865078  94.4519803  80.7139609
  34.3555530  93.7155004  80.7139609  34.5021998  86.9063273 100.3001116
  34.1875439  87.6762836 100.0370679  34.1811930  86.3433529  99.7153343
  34.4080917  86.9373542 100.1742466  45.0688645  97.4003496  91.5949201
  44.7634462  98.1331552  91.9562517  44.3494860  96.9941425  91.3141987
  44.9175987  97.4485229  91.6062338  36.0772114  98.8826991  87.9257429
  36.1511122  98.7202163  88.7799279  36.8941621  99.0717180  87.6817911
  36.2088473  98.8863733  88.0155455  50.7690437  94.0396496  90.9217545
  50.7014937  94.0592455  90.0520132  50.7546099  94.8826824  91.1473216
  50.7569193  94.1670231  90.8270022  29.8377871  99.2284854  84.9551873
  29.0115989  99.4746591  84.8286151  29.8989862  99.1496935  85.8213931
  29.7252038  99.2529803  85.0640817  32.0553895  85.2953795  85.9147313
  31.1876320  85.3676394  85.9804922  32.3429099  86.0975874  86.1035288
  31.9693643  85.4247942  85.9522079  41.1786783  85.4431654  94.2458635
  41.9240375  85.2541464  93.8322060  40.7624088  85.9689892  93.6872491
  41.2271758  85.4933799  94.1023208  34.6176700 101.8461734  82.6570903
  34.9074998 101.4550715  81.9330129  35.3480181 102.0278439  83.0976178
  34.7683584 101.8155548  82.6153710  48.5549054  92.8140883  89.1964140
  49.1056976  92.1808952  89.4361232  48.5393170  93.3456275  89.8879644
  48.6334251  92.7989831  89.3342998  35.2071445  96.6479480  93.7424033
  34.7083139  97.3595248  93.8208921  36.0171669  96.9680146  93.7042195
  35.2527552  96.8006328  93.7480602  32.5582615 103.8229116  85.7231052
  32.3382911 103.5326471  86.5157719  32.3377138 103.1644071  85.1948965
  32.4930210 103.6828825  85.7619961  31.4699563  95.9102433  87.9886754
  31.1812811  95.2839904  88.5232481  32.3382911  95.8522720  88.0551434
  31.5559815  95.8089977  88.0777708  42.2577460  91.0537216  88.3068736
  41.9142226  90.3327551  88.6575985  42.3570503  90.8451067  87.4647094
  42.2219503  90.9161419  88.2340416  34.7250571 105.1958506  84.5061745
  35.3774629 104.6634949  84.7352771  34.0276180 104.8427159  84.8929619
  34.7181289 105.0648029  84.5973912  31.6731836  97.5497684  83.9129119
  32.4277804  97.9310723  84.1264581  31.0802449  98.0008828  84.3675815
  31.6968550  97.6726511  84.0111997  42.7190490  97.5162920  83.8492724
  43.2848522  98.1756130  83.7651267  42.0718393  97.8612618  84.3209126
  42.7069246  97.6644862  83.9065480  34.1338503  89.5060524  99.0386331
  33.3238279  89.8118304  98.9276174  34.6113190  90.2266107  99.1538915
  34.0841982  89.6575125  99.0393402  32.9930063  98.7206245  89.2869234
  32.4710816  98.8606537  89.9721099  33.3804083  97.9616909  89.4771352
  32.9733764  98.6291769  89.4170311  29.9821247  88.7712054  83.3564189
  29.6946042  88.4013324  82.6196136  30.6691715  89.2406909  83.0947894
  30.0410144  88.7859023  83.2079265  39.1897068 100.4601704  83.2729803
  38.9483744  99.7269565  82.8656868  39.3698401 101.0088561  82.6196136
  39.1804692 100.4324096  83.1160026  34.4196388  95.7510264  84.6850725
  34.2239171  96.3584999  84.0911028  34.6430734  95.0578208  84.2042399
  34.4231029  95.7387790  84.5266806  32.8174918  92.6365002  84.8031594
  33.5397570  92.8006160  84.3435400  32.3382911  93.3574667  84.6970933
  32.8538649  92.7663232  84.7197208  40.7768426  88.9728801  90.1828279
  39.9379527  88.9990080  89.9466542  40.8472793  89.6199536  90.7633625
  40.6636819  89.0724927  90.2337396  30.4682535  95.0423075  93.9085734
  30.9803632  95.3207328  93.2594493  30.1818878  95.7812369  94.2748547
  30.5017398  95.1925428  93.8675612  39.2237704  85.8714178  84.9155895
  39.9264057  85.6721926  84.4375853  38.9581893  85.0990120  85.2224738
  39.2884336  85.7277144  84.8901336  44.6525950  94.1796788  87.4689520
  44.5659924  94.3352214  88.3224299  44.1976430  94.8234863  87.0948925
  44.5729206  94.2972543  87.5396627  27.5549441  89.5493266  84.2049470
  27.6565578  90.3519428  84.5330446  28.3505328  89.3480602  83.9072551
  27.6877347  89.6379165  84.2084825  33.9866260  87.1349463  93.9686775
  33.7949457  87.1504598  94.8186199  34.8364856  87.3313137  93.9453430
  34.0841982  87.1663814  94.0910070  28.3713173  89.6640445  91.9470592
  28.2298665  88.8124385  92.0715100  28.6553737  89.7069105  91.1232798
  28.3921019  89.5440195  91.8438216  38.5251766  91.5007535  86.0915080
  38.2786480  91.4203286  86.9251869  38.8536889  90.7161003  85.8977607
  38.5373009  91.3733800  86.1862603  42.4199815  98.2090894  89.8801861
  42.2814174  98.9071940  90.3850604  41.6399812  98.0539551  89.5238043
  42.2843041  98.2891061  89.9028135  40.7577900  94.5087270  96.1324243
  40.7525938  93.6367086  96.1366669  41.4638894  94.7075439  95.6593699
  40.8622904  94.4091144  96.0631278  34.4848793  94.2364253  95.5038063
  34.6292169  94.8165462  94.8681173  34.8324442  94.6140550  96.2087918
  34.5576254  94.3784957  95.5137058  36.6568710  93.4354422  93.2863195
  35.9092024  93.6285436  92.8811473  36.8110236  92.6099641  93.0487316
  36.5691138  93.3419533  93.1908600  33.5576548 102.4267025  92.3699090
  33.7066112 101.8669941  91.7172494  34.3376550 102.5059027  92.7531609
  33.6950642 102.3552591  92.3296039  43.9153187  97.5669148  80.6418360
  43.5359996  96.7806286  80.6347650  43.2519433  98.1156005  80.4990005
  43.7611662  97.5313972  80.6199157  36.0829849 102.5981668  93.6483581
  36.0073520 101.9290479  94.2034369  36.0119708 103.2999456  94.1624247
  36.0610456 102.6026575  93.8060429  36.8970487  87.3304972  94.1758598
  37.3543102  88.0628947  94.3031391  36.9726816  86.9071438  94.9345854
  36.9761457  87.3762211  94.3059675  29.1403479  87.5770792  95.2648042
  28.6045668  86.9651150  95.5808809  29.2021243  88.1518928  95.9181709
  29.0699111  87.5717720  95.4083469  41.3697813  80.5094848  88.0452441
  41.4881381  80.9671311  87.3119744  41.1959989  79.7040109  87.7588659
  41.3616984  80.4588620  87.8953375  36.7400096 101.1182667  84.4807187
  37.5049987 100.8492311  84.1589851  36.6378186 100.6332677  85.1977249
  36.8381591 101.0072232  84.5387014  34.7752865  89.3207076  91.0200422
  33.9848940  89.1398537  91.3417758  35.1713488  88.5434029  91.0030717
  34.7169742  89.1794537  91.0652971  39.2618756  98.1494851  76.4607136
  40.0291741  98.2094976  76.0512988  38.8150065  97.5775292  75.9763455
  39.3092183  98.0731426  76.3284846  40.1596552  96.9549507  88.7459868
  39.4841553  96.7234739  89.2473255  40.1688928  96.3470690  88.1201973
  40.0615056  96.8308432  88.7276021  37.2890696  91.7967336  95.5023921
  37.2249837  92.6577292  95.3744058  37.4287883  91.4799329  94.7019473
  37.3006166  91.8767502  95.3652134  42.1613286  99.8114639  80.9770046
  42.2433124 100.6181625  80.6531497  42.6463028  99.8310598  81.7010820
  42.2450444  99.9335301  81.0356945  35.9709790  94.4899475  89.6440124
  35.5472039  94.6903974  88.9079143  35.7954645  93.6428323  89.7564424
  35.8820670  94.3948256  89.5513814  35.4721483 106.0049988  92.1061581
  35.9617413 105.3060777  91.9237246  34.9005715 105.7073858  92.6937639
  35.4606013 105.8576212  92.1662622  31.2592234  94.9851526  85.0768097
  31.4156854  94.9198329  85.9324089  31.5992828  95.7600079  84.8646776
  31.3325469  95.0900724  85.1722691  37.7971379  94.3609410  83.9461460
  38.3386925  93.8579791  84.4100081  38.1117938  94.3074605  83.1350945
  37.9235776  94.2788831  83.8945272  41.6688487  98.5712057 101.0588372
  42.4823352  98.2997206 101.2193505  41.5083453  98.2719597 100.2548568
  41.7658435  98.4866983 100.9633778  35.9657829  99.7526761  81.2301488
  36.0350649  98.8941300  81.3694488  36.7446284  99.9698642  80.9020513
  36.0910679  99.6579625  81.2018645  38.9460648  89.2545714  93.9983760
  39.1602618  88.6156629  93.4447114  38.3294548  89.6991538  93.5691622
  38.8865978  89.2255858  93.8534191  40.3565316 102.1764463  85.4437981
  39.9645108 101.8731178  84.7260847  40.5118389 103.0133553  85.2542935
  40.3218906 102.2548299  85.3094478  27.8326496  92.1686477  85.3928864
  28.2125461  92.5871022  84.7289131  27.2581861  92.7499932  85.6997707
  27.8037821  92.3164336  85.3405605  41.1099736  90.8634780  94.9367067
  40.2976418  90.5560670  95.0180240  41.5689671  90.3833780  95.5009780
  41.0580121  90.7471272  95.0321662  40.5204991  98.7414452  85.3844012
  40.1619646  98.9129094  86.1608044  40.0343702  99.2027657  84.8272010
  40.3963688  98.8353423  85.4169281  38.3375377  82.3645650  88.9871103
  37.4668935  82.3384371  88.9404413  38.5915718  82.1922842  88.1696949
  38.2468937  82.3355794  88.8591240  35.3093357  94.4213617  77.9244246
  35.5985881  95.1978499  78.1987820  35.3965155  93.9102348  78.6258746
  35.3647613  94.4605535  78.0686744  38.2053244  92.2694851  99.7195770
  38.6752875  92.8936967 100.1063644  38.2515124  91.6011827 100.2788984
  38.2821120  92.2629531  99.8595841  35.3624518  84.3751878  90.4444574
  34.8463006  83.6832070  90.5696153  34.8018447  85.0422656  90.3907172
  35.2031031  84.3715136  90.4550640  37.4316751  84.9144839  92.2737426
  37.0448504  84.9393870  93.0550956  36.9449688  84.3486517  91.8211943
  37.3029260  84.8340589  92.3225330  41.6809731  99.6318348  96.3311213
  42.3189451  99.1378543  95.9973669  41.0383822  99.5595748  95.7463440
  41.6803957  99.5477356  96.1953568  43.4066731  91.4807493  90.8977128
  42.9794339  91.3933842  90.1425228  42.7692784  91.5885269  91.4831972
  43.2496338  91.4840153  90.8722570  37.0973893  81.8011824  94.5647686
  37.7267011  82.3372124  94.2868756  37.2659756  81.7089183  95.4161252
  37.2151687  81.8673186  94.6496214  36.8987808  86.5883019  96.8374098
  37.7261237  86.3168168  96.8932712  36.9195654  87.3843860  97.1937916
  37.0240658  86.6662773  96.8989281  41.7363987 100.3238156  92.9716569
  42.5256365  99.9727221  93.0918651  41.9107585 101.1374544  92.7093203
  41.8784269 100.3924013  92.9504437  31.4757298  93.7346882  90.0244358
  30.6345304  93.6350756  90.2323252  31.6847305  94.5042362  90.3758679
  31.3821990  93.8338925  90.1071673  28.9532864  91.3566418  87.8529109
  28.5589562  91.4309430  87.0779219  28.3972981  91.7424365  88.4037471
  28.8135677  91.4248193  87.8196769  40.5897811  84.3347712  87.5332988
  40.7947405  84.2670020  88.3789985  40.2624235  85.1406534  87.4654165
  40.5713059  84.4433653  87.6492643  35.2873962  91.6628281  89.2741956
  34.9837100  91.1084269  89.8752363  34.5853383  91.8420491  88.7869990
  35.1390172  91.6073063  89.2911661  34.3440059  88.9728801  83.8386658
  34.6199794  88.2547713  83.4264225  34.9438729  89.5713720  83.6307764
  34.4733324  88.9549171  83.7467419  33.3492313  98.8778001  93.9814054
  33.2412668  98.8880064  94.8476112  33.5588095  99.7032782  93.7919007
  33.3642424  99.0019076  94.0818145  43.8431499  84.8879477  87.0135753
  43.2305813  85.3749879  87.3989485  43.9395674  84.2122968  87.5573405
  43.7669397  84.8597785  87.1514612  37.8450580  86.6442318  82.1133253
  38.2994327  86.8152878  82.8381097  38.3190626  86.0310429  81.7131028
  37.9818900  86.5793203  82.1607014  31.3666105  96.1290644  91.4435991
  30.7754039  96.7700142  91.4139006  32.1287129  96.5528261  91.4167291
  31.3914366  96.2866482  91.4351138  31.7626728  87.2892642  92.1104009
  32.2228210  87.3631571  92.8479133  31.8082835  88.0873896  91.7603830
  31.8377284  87.4186789  92.1676765  33.4110078  87.9559336  96.6776036
  33.0195643  87.3092684  97.1131814  33.5795941  88.5470772  97.2970291
  33.3780988  87.9473604  96.8338742  47.4856527  95.9596414  92.4413269
  47.5439651  96.4083062  93.1873246  46.8522995  96.3695226  92.0043349
  47.4007822  96.0870148  92.4865818  41.1255622 101.5799955  88.8768016
  40.9275310 102.0690770  88.1824227  40.5043333 101.7841197  89.4552149
  41.0043186 101.6816494  88.8591239  35.1863600  93.3484852  83.2178260
  35.9305645  93.7359129  83.4561210  35.3324296  92.5042278  83.3818748
  35.3174185  93.2815325  83.2772230  37.1043175  85.1435111  88.2510121
  36.2579221  85.3157919  88.1251471  37.1014308  84.3384455  88.5875950
  36.9790325  85.0496140  88.2821248  38.1741476  88.9210326  89.1172179
  37.7001430  88.3952088  89.6277490  38.5459612  88.3739798  88.5487041
  38.1591365  88.7626322  89.1087326  28.5514506  90.9181832  94.4855725
  29.4140119  90.8177541  94.3993055  28.2206289  90.3376542  93.9241297
  28.6299702  90.8173459  94.3901131  44.4378206  93.9812701  90.5278960
  44.1976429  93.1419116  90.5321386  44.9170214  94.0612868  91.2519733
  44.4730390  93.8694101  90.6353762  40.1024976  89.8146880  82.1797933
  39.5747994  89.8975624  81.4903642  40.5620684  90.5564752  82.1762578
  40.0926826  89.9367543  82.0772628  46.4383393  90.7614158  88.4808219
  46.1993163  90.7209993  87.6429003  46.6017295  91.6085310  88.6073940
  46.4273697  90.8806243  88.3761701  43.0429424  95.1464108  94.4113264
  43.7663622  94.6936634  94.2324284  42.7779386  95.4268773  93.6285592
  43.1110697  95.1215076  94.2691979  31.9116292  89.7424281  91.1466143
  31.2869362  89.7542673  90.5392096  31.5761887  90.2184456  91.7957383
  31.7701784  89.8142798  91.1522712  32.0958041  88.0849400  77.2038828
  31.7470845  88.7369125  77.6670378  31.6154486  88.0706513  76.4762699
  31.9728285  88.1792453  77.1649919  28.6241968  97.8024741  92.5869907
  28.0941892  97.1117180  92.6364882  28.8967061  97.7934927  91.7582616
  28.5866690  97.6991873  92.4717323  39.6562058  98.3850444  81.3107590
  40.3796257  98.8508557  81.1672163  39.2162649  98.4524053  80.5605187
  39.6977750  98.4634280  81.1792371  38.8248213  95.2447986  92.5608279
  38.2105206  94.7006036  92.8556914  39.3415498  94.7312222  92.0814095
  38.8103875  95.0884395  92.5332507  38.0644510  96.3152256  90.2952578
  37.6372118  95.6901975  89.8618013  38.0569455  96.0327178  91.1211585
  38.0003651  96.1805037  90.3532405  31.1807037  91.3517429  93.3641012
  31.3400524  90.5960753  93.7692734  30.9999931  91.9008369  94.0181749
  31.1772396  91.3211243  93.5203718  39.1227340  83.5178665  93.9191801
  38.6267902  83.7142339  93.2283368  39.8796402  83.9171333  93.7480603
  39.1614165  83.6056398  93.7911938  36.3930220  87.1921011  90.5095112
  36.4172707  86.6581123  89.8207892  36.6441694  86.6838319  91.1720702
  36.4340139  87.0381914  90.5059756  23.9037810  94.4752506  89.9438256
  23.7981259  94.4299350  89.0790340  23.1538030  94.8206286  90.2252541
  23.7773413  94.5193414  89.8575586  32.6731542  85.9191829  89.8900856
  32.7129914  86.4201035  90.6035563  31.8481207  86.0102222  89.6206779
  32.5571068  86.0073645  89.9551394  34.8561155  95.4852569  97.9921151
  34.0056786  95.6224283  98.1278796  35.0189283  94.7516347  98.4368852
  34.7545019  95.3966670  98.0776750  34.0945906  92.4352339  92.1874755
  33.2637835  92.6026157  91.9810003  34.0397423  92.0588289  92.9723640
  33.9635320  92.4042070  92.2723283  31.9029689  85.9261232  97.8231166
  32.5282392  85.3823364  98.0960598  31.4480169  85.4456149  97.2538956
  31.9277949  85.7750713  97.7792760  32.4681949  90.7107930  82.7164873
  32.6084910  91.2080394  83.4193514  32.9664482  90.0094225  82.8579086
  32.5623030  90.6809909  82.8416452  32.4982172  91.5775041  80.0457450
  33.1327251  92.1735466  79.9806911  32.5807783  91.2778499  80.8603320
  32.6038723  91.6215949  80.1560536  45.4764738  94.1090519  92.9143814
  46.0682578  94.7487769  92.9462012  45.9123732  93.4113555  93.2035881
  45.6283169  94.1008869  92.9624646  34.0761155  87.5089017  80.0202892
  34.3976996  87.0292099  79.3662154  34.3388098  88.3188663  79.8293703
  34.1627180  87.5578915  79.8958384  37.3058127  98.5307891  93.5401708
  36.7983218  99.0843738  93.9842338  37.0084774  98.5916181  92.7220482
  37.1863012  98.6214202  93.4850164  39.4720310  86.8961211  92.3826371
  39.8975381  86.4433737  91.7709897  38.8577303  86.3421281  92.6591158
  39.4448955  86.7475187  92.3331396  29.0035160  93.7742882  83.3146996
  29.5127389  94.3707389  83.6958301  29.4769432  93.5068856  82.6323415
  29.1478535  93.8228697  83.2701518  39.9165908 102.4471149  81.4705651
  39.1995217 102.2732011  81.0052889  40.5672645 102.2123721  80.9381137
  39.9067758 102.3866941  81.3234869  37.9114532  83.3676310  85.7916948
  37.2682850  83.2173957  86.3602086  37.5713939  83.1218656  85.0266052
  37.7659610  83.3088433  85.7619963  42.5013879  91.3235737  85.2146956
  41.8305069  91.8665439  85.0860022  43.1953629  91.7930593  84.9728651
  42.5042746  91.4734008  85.1602484  36.5500613 103.4632449  90.4458715
  36.3266267 102.7051278  90.8142741  36.0610456 103.4930470  89.7239154
  36.4444062 103.3554674  90.3935456  42.6642006  87.7791621  88.1237329
  43.0169616  87.3521344  88.7983128  41.8056808  87.6942464  88.2538406
  42.5891451  87.7036361  88.2432340  31.3625691  90.4099141  86.1820176
  30.6437680  90.8263273  86.4493040  31.7338054  90.9753379  85.6311814
  31.3117623  90.5548422  86.1402983  40.6625272  91.0426989  92.0722172
  40.6423200  90.8610285  92.9256951  40.7104473  91.9139008  92.0481755
  40.6659913  91.1443528  92.1945466  38.6071602  97.6314181  97.9970648
  38.5667457  96.9863858  97.4115804  39.4194920  97.5750799  98.3096060
  38.7214756  97.5273148  97.9567597  35.1979070 103.6832907  87.8995799
  34.7839468 103.0207038  87.5099641  35.8826444 103.8310766  87.3791493
  35.2377441 103.6073565  87.7652296  38.5644364 102.8422993  88.6519416
  38.1660647 102.9525263  87.8840236  37.9495583 103.0505059  89.2345976
  38.4143253 102.8896561  88.6250715  37.1372266  89.4497140  81.5193555
  36.5437105  89.7714137  80.9678122  37.1747543  88.6038236  81.3114662
  37.0546655  89.3721469  81.4076327  44.0966066  82.9010033  89.0521642
  43.5896931  82.1939172  88.9842819  44.8933500  82.5703221  89.1822719
  44.1393306  82.7483184  89.0620637  40.0130082  89.4076645  84.9495306
  39.7843775  89.4309346  84.1073664  40.2728159  88.5834112  85.0690316
  40.0176270  89.2892725  84.8420503  34.2949311  91.2611118  94.5520406
  33.7828214  90.6532301  94.9105437  34.1228807  91.9767710  95.0194382
  34.1938948  91.2774417  94.6736630  29.1415025  89.7048693  97.2022768
  28.9717616  90.3650068  96.6570974  28.6980975  89.9155254  97.9235257
  29.0514359  89.8334675  97.2284397  33.0674845  87.9453191  86.2449501
  33.5432211  88.3070271  85.6099682  32.5663444  88.6009659  86.5249644
  33.0640204  88.0947380  86.1926242  46.2986206  97.4174959  82.0362506
  46.6819812  98.1666315  82.2660603  45.5030320  97.6640779  81.7774495
  46.2379989  97.5644653  82.0320080  38.1718381  89.1835363  96.9922661
  38.7289811  88.9549172  96.3601127  37.8479446  89.9441028  96.7157874
  38.2064791  89.2619199  96.8579159  26.0417090  92.6095559  92.4611258
  25.4943809  91.9396204  92.5792126  26.8309468  92.2425407  92.5254725
  26.0769274  92.4560545  92.4879958  35.8901498  92.2703016  97.9574669
  36.6412825  92.5854693  98.2714223  36.0824075  92.0682187  97.1308590
  36.0292913  92.2870398  97.8818064  35.1101498  90.0894391  79.6122885
  35.4900463  90.1074020  78.8274000  34.3694094  90.5348380  79.4913733
  35.0570336  90.1576166  79.4786454  42.7386789  88.3976582  85.1998464
  42.7381015  88.2425239  86.0582740  42.5342969  89.2439569  85.1439850
  42.7086566  88.4997203  85.3186403  24.8004059  91.8216367  89.6157281
  24.6225821  91.3692976  90.3412196  24.5123082  92.6242528  89.7995758
  24.7317013  91.8738924  89.7500783  40.4627641  93.0774084  88.8534671
  40.9581306  92.3597079  88.8138691  39.6527416  92.7744882  88.7389158
  40.4171534  92.9271730  88.8308397  35.9086252  96.9271897  81.0031675
  35.0997575  96.6038571  80.9564985  36.4161161  96.2205119  80.9359924
  35.8635919  96.7753214  80.9861970  26.5376529  94.3544090  86.7279040
  25.6722049  94.3429781  86.6161811  26.6375345  94.1674313  87.5750179
  26.4250696  94.3250152  86.8367984  42.5279459  95.8277771  91.5411800
  42.9534531  95.3052193  90.9882225  42.1636379  96.4258609  91.0200423
  42.5366062  95.8387999  91.3820809  32.1633539 104.1241989  90.3009145
  32.4780098 104.9378377  90.3086927  32.5726953 103.7392208  90.9691304
  32.2701637 104.1870691  90.4013237  39.1158059  99.5412036  87.8712957
  39.5869237 100.2552298  88.0402942  39.4518237  98.9410786  88.4072827
  39.2353174  99.5583500  87.9745333  41.2035043 101.1513349 100.0505029
  41.3132009 100.3621910 100.4061776  41.5325940 101.0619285  99.2479367
  41.2687449 101.0219202  99.9847420  36.0327554  84.3139506  94.8271052
  36.1655459  83.5170500  95.1552027  36.4172707  84.8405909  95.4069328
  36.1083883  84.2739423  94.9614555  39.7532005  99.3329970  94.6340650
  39.2052951  98.7087854  94.3660715  40.2145034  99.5224242  93.9184729
  39.7399215  99.2689020  94.4891081  39.1059909  81.2369832  91.4252145
  38.3005873  81.1267562  91.7419983  38.9766644  81.3382288  90.5682011
  38.9680042  81.2353503  91.3460186  42.5625870  87.4015324  92.0191842
  41.9788858  87.9024531  91.6069409  42.8830164  86.8944881  91.3856165
  42.5239045  87.4007159  91.8650349  35.1020669  86.3155919  82.2950517
  35.9236363  86.4854232  82.0532212  34.6390320  86.4703180  81.5716814
  35.1551831  86.3637652  82.1522161  33.6916001  84.3098681  93.0748946
  34.2360414  83.9689808  93.6653287  33.7452936  85.1684143  93.2170230
  33.7805120  84.3853941  93.1830819  29.5046559  98.0715097  89.9487754
  30.1091417  98.0310932  89.3201574  29.2973872  98.9186249  89.9791809
  29.5635457  98.1903100  89.8603870  39.3190332 100.3381043  91.1649991
  40.1388705 100.1944009  91.4266286  39.0384409 100.9627241  91.7066429
  39.3987075 100.4091395  91.2837930  24.7397842  97.0549715  89.8186677
  24.6422120  96.2445986  90.1276733  25.5226711  97.0341508  89.4332945
  24.8413978  96.9316805  89.8073540  55.7903982 107.9945894  84.1292867
  55.7597986 108.8490531  84.3011137  56.3885331 107.6941187  84.6879011
  55.8741140 108.0762391  84.2367670  48.9903667 107.0821545  88.8845798
  48.1341562 107.2430044  88.9354915  49.0371320 106.2113609  88.9050859
  48.8702778 106.9772347  88.8951864  43.3744806 116.6184263  84.6483029
  42.6227706 116.2399802  84.4199074  43.8230818 116.6502697  83.9001840
  43.3294473 116.5669870  84.5040531  52.2997383 113.3508071  98.4906254
  53.0064151 112.8560102  98.6193188  52.4885319 113.7917152  97.7608912
  52.4325289 113.3426421  98.4015299  48.8269766 117.0409633  80.0768576
  48.4921135 117.7186554  79.6412799  49.3396637 116.6514944  79.4885448
  48.8535347 117.0834211  79.9255368  48.3674058 118.9923901  86.0179688
  48.7513437 119.5610800  85.4784463  48.3033199 118.2673412  85.5385504
  48.4147485 118.9699365  85.8673551  51.8355488 109.1413589  91.5277449
  52.3811448 109.8198676  91.5871419  51.7772364 109.0001050  90.6679031
  51.9071402 109.2205591  91.4089510  44.9529563 116.6302655  86.9145802
  45.0539926 115.8203009  87.2242930  44.3571308 116.5359602  86.2845480
  44.8802101 116.4967683  86.8672040  53.6120556 110.5698196  82.4011177
  53.4960082 111.3205882  82.8303315  54.4076443 110.3122150  82.6507264
  53.7125146 110.6433043  82.5015269  44.7930302 121.5480245  88.3160658
  45.4367758 121.9893409  88.7056816  45.1186558 120.7433671  88.2290917
  44.9362131 121.4945439  88.3606135  38.1494607 112.6522942  86.5398135
  37.9144791 111.8190594  86.4330404  38.2880248 112.9327608  85.7259336
  38.1350269 112.5706445  86.4040490  40.4484694 104.8208673  89.4382443
  39.8289726 104.2301320  89.2692458  40.3468558 105.4120108  88.8046766
  40.3422370 104.8212755  89.3187433  45.4950882 114.5592219  83.6880520
  45.8166723 115.0997427  83.0841828  46.1422978 113.9888991  83.8202809
  45.6376937 114.5551395  83.6187555  47.5452590 106.5608214  83.7714906
  48.2432755 106.7396342  84.2636370  47.8604922 106.0378554  83.1485296
  47.6947927 106.5101986  83.7516916  40.1753827 108.3660954  91.6826012
  40.0512524 108.9523400  92.3175831  40.8272112 107.8721150  91.9838287
  40.2527477 108.3799759  91.8211941  47.7340525 112.9478659  83.7594698
  48.1734161 112.3395760  84.2049471  47.5845188 112.5686033  82.9880163
  47.7761991 112.8017130  83.7113865  45.2012168 111.5422671  90.9613523
  45.8461171 111.0495114  90.6424472  45.4413945 111.6847458  91.7879602
  45.3322753 111.4900113  91.0363056  47.7398260 114.3877577  90.6120416
  48.0221503 113.5928983  90.3907172  48.4684420 114.8658164  90.6325477
  47.8887823 114.3412174  90.5823431  45.7179454 101.9300611  87.8536181
  45.3882784 102.3811755  87.1839880  45.0424455 101.8516774  88.4009187
  45.5689890 101.9851746  87.8359404  51.3349862 111.3005841  80.7125467
  51.2501157 112.1566807  80.8575036  51.8234245 111.0250165  81.3807626
  51.3938759 111.3863162  80.8327549  52.9255861  97.9186134  86.0985792
  52.6109302  98.6089612  86.5306214  52.4082803  97.8630916  85.3971292
  52.8020332  98.0121022  86.0582741  52.2668295 107.9190635  82.2123202
  51.7379767 108.1350268  82.8720508  52.7893315 108.6126773  82.1324171
  52.2656748 108.0533772  82.2978801  57.7216348 113.4936939  87.5856247
  56.8914051 113.7047583  87.7489663  57.6725600 112.6673994  87.3098530
  57.5923083 113.4026546  87.5693612  44.1567903 111.8153852  81.0130670
  43.5725118 112.3203883  81.4196534  43.7537998 111.5896238  80.2727262
  44.0107207 111.8562100  80.9635695  39.7111932 117.5308613  87.8154342
  39.2279510 118.2559102  87.7913925  40.5235250 117.8284743  87.9264499
  39.7602679 117.6810966  87.8281621  45.7826086 116.3240793  90.4204156
  45.2653027 115.9648208  89.8165464  46.4800477 115.8002968  90.4310222
  45.8091667 116.1938481  90.3334415  49.4389678 116.7735607  96.3820329
  49.5273023 116.5861748  97.2298539  49.8679390 116.1273037  95.9825176
  49.5151780 116.6498615  96.4492081  47.0060137 116.0566767  95.3637991
  46.4430972 115.6439377  95.8877653  47.7681161 115.9819673  95.7831135
  47.0354586 115.9844168  95.5030992  48.6145117 108.0619504  79.4899591
  48.8541121 108.2697487  78.6774934  48.9360958 107.2577012  79.5988535
  48.6982275 107.9733605  79.3860144  43.9235408  99.9912899  83.3359129
  44.6781376 100.3591216  83.0976179  43.7462942 100.3652454  84.1038308
  44.0089886 100.1011087  83.4144017  42.5656129 118.0464789  87.9674621
  43.2676708 117.5316778  88.0247378  42.4853612 118.3738940  88.7721497
  42.6579889 118.0179015  88.0947414  57.2170306 106.1407340  91.3806668
  56.3798727 106.2109527  91.6154262  57.1858537 106.1431835  90.5080970
  57.0888589 106.1517567  91.2866216  43.6135035 108.2840376  97.0955037
  43.7855539 108.1746270  97.9440318  44.1504393 108.9294781  96.8586229
  43.7180039 108.3632377  97.1860133  42.2792472 102.3983218  80.0337242
  42.0968045 102.6155099  79.2078234  43.1418085 102.5122231  80.0895856
  42.3797062 102.4473116  79.9191729  41.8906904 114.2371141  87.4760230
  42.7295804 114.4694073  87.5233991  41.9218673 113.3675452  87.4067265
  42.0188622 114.1428087  87.4724874  42.5159607 114.6572016  91.7773535
  43.0557832 114.5143147  92.4476907  41.8329554 115.0568767  92.1457561
  42.4951761 114.6951687  91.9307957  47.9592191  99.4009629  83.0686265
  48.6878352  99.2225584  82.6224422  48.0487084 100.2427709  83.2793444
  48.0798854  99.4993507  83.0339783  51.9400492 110.3363016  86.9718559
  52.6958007 110.7694531  87.0107468  52.0462817 109.6867786  87.5453195
  52.0670663 110.3040500  87.0616585  54.9780663 114.1636294  87.7220962
  54.5415895 114.1673036  88.4779934  54.6443579 114.8441793  87.2900540
  54.8643283 114.2648749  87.7701795  49.5509737 116.2044626  99.0464113
  50.3350153 116.3175474  99.4119855  49.3506331 115.3785764  99.2422799
  49.6375762 116.0991346  99.1298499  37.9196752 110.8772307  91.9307957
  37.6535168 110.0611423  92.0898947  37.9335316 110.9225462  91.0603472
  37.8821475 110.7629211  91.8261439  54.8978146 101.2050121  89.9650390
  55.5404055 101.2748226  90.5512306  55.1501167 100.5379344  89.4629932
  55.0300278 101.1176470  89.9777670  41.8254499 105.6757391  78.5459715
  41.1112676 105.3895571  78.9582147  42.3098468 106.0154017  79.1866102
  41.7913863 105.6839041  78.7015350  42.6695359 104.4150685  94.5774964
  41.9767155 103.9447665  94.8235696  43.2855686 104.1888989  95.1516671
  42.6579889 104.3117817  94.6984117  49.7080130 118.1154729  92.6930568
  48.9095376 117.8754229  92.9504437  50.1566142 118.1669121  93.4397616
  49.6554741 118.0877120  92.8415493  58.1125009 110.8817214  86.6140600
  58.7741444 110.3207882  86.5136508  57.4716421 110.3869244  86.9393291
  58.1153877 110.7253623  86.6472940  49.0001817 114.1787345  78.9221523
  49.4152966 113.8472369  78.2306019  48.1693747 113.9456247  78.7941660
  48.9389826 114.0958601  78.8012370  38.3290166 111.6631086  89.2119701
  38.1465739 111.6377972  88.3591993  39.0639835 112.1330024  89.2508610
  38.4104230 111.7292448  89.0917619  54.3989840 111.8982596  86.3552588
  54.6345429 112.0427795  85.5279439  54.5479404 112.6625004  86.7484102
  54.4555643 112.0321650  86.2916192  41.3935918 108.3816089  95.7201809
  42.1175890 108.3669119  96.2066704  41.4952054 109.0911444  95.2223778
  41.5154127 108.4840792  95.7180596  56.2280297 110.7384262  84.1922192
  56.5588514 111.2711902  83.5862287  56.8013385 110.7923150  84.8484143
  56.3613976 110.8253831  84.1999974  48.7680867 111.8615173 100.5850756
  47.9753848 112.1758685 100.7703376  48.8829794 112.0766642  99.7471541
  48.6676278 111.9399010 100.4889091  51.4412186 108.5849165  84.8745772
  51.5359040 109.3238459  85.3285398  50.8171030 108.1566640  85.3080337
  51.3621216 108.6310485  85.0053920  49.6964660 111.7635377  95.5236053
  50.2703522 111.1262621  95.6784617  49.6179464 111.7639460  94.6545711
  49.7697895 111.6700489  95.4182464  38.2961076 108.5424587  89.3618767
  38.8734579 108.4061037  90.0011013  37.5975138 108.0860371  89.6164352
  38.2782098 108.4546853  89.4941057  51.6935207 110.4297904  78.1082724
  51.6115370 110.5000092  78.9737711  52.3314928 110.9927648  77.9166465
  51.7755045 110.5236875  78.2072674  45.0528378 110.1958642  87.5757251
  44.7947623 109.3630377  87.5488550  45.1076861 110.4216255  86.7349751
  45.0228156 110.1056414  87.4477387  50.1329429 102.2987093  87.6761343
  49.4285755 101.8096279  87.8345262  50.1814403 102.3109567  86.8049788
  50.0359480 102.2276741  87.5700683  44.0263091 107.7496405  88.0622145
  43.4512682 107.9088573  88.6986106  43.6498767 107.1131814  87.5990596
  43.8865903 107.6794218  88.0876704  47.6936379 106.2219754  92.9214524
  47.3050812 105.7973972  92.2666715  47.0291078 106.4701904  93.4291550
  47.5383307 106.1958475  92.9002392  57.3359648 105.9794759  85.6962354
  57.0796213 105.1674700  85.5060237  58.1788962 105.9872326  85.4692541
  57.4225674 105.8606756  85.6347171  33.7719910 107.3936480  86.0766586
  33.8580161 107.0168348  86.8580116  34.3995707 107.0196925  85.5986544
  33.8776461 107.2821962  86.1212063  51.5162741  99.9194383  90.4338508
  51.8973253  99.2372554  90.8206382  50.7126025  99.6303985  90.2514172
  51.4539203  99.7761431  90.4642564  48.7975318 110.4518359  81.1191331
  49.6115956 110.7433251  81.0074102  48.7334459 109.7978221  80.5449624
  48.9078057 110.3983553  81.0180168  55.0184808 113.1344355  95.5320906
  54.7823445 112.3032420  95.4132967  55.6628037 113.0829962  96.1175751
  55.0779478 113.0042043  95.6006800  44.6683226 113.9239876  86.2463643
  45.3057173 113.6851624  86.7915436  45.0938297 114.1277035  85.5116803
  44.8259392 113.9190886  86.2180800  39.3595868 116.1628213  90.1297947
  39.4000013 116.4343064  89.3017726  39.9190392 116.6870121  90.5455735
  39.4479214 116.2803968  90.0689835  45.3086041 109.1442166  80.5838532
  45.6931194 108.9249873  81.3355077  45.0597661 109.9705111  80.7139609
  45.3288113 109.2340312  80.7139609  45.4754581 102.4248581 100.3001116
  45.1608022 103.1948144 100.0370679  45.1544514 101.8618837  99.7153343
  45.3813500 102.4558850 100.1742466  56.0421228 112.9188804  91.5949201
  55.7367045 113.6516860  91.9562517  55.3227444 112.5126733  91.3141987
  55.8908571 112.9670537  91.6062338  47.0504698 114.4012299  87.9257429
  47.1243706 114.2387471  88.7799279  47.8674204 114.5902488  87.6817911
  47.1821056 114.4049041  88.0155455  61.7423020 109.5581804  90.9217545
  61.6747521 109.5777763  90.0520132  61.7278683 110.4012131  91.1473216
  61.7301777 109.6855539  90.8270022  40.8110454 114.7470162  84.9551873
  39.9848572 114.9931899  84.8286151  40.8722446 114.6682242  85.8213931
  40.6984621 114.7715111  85.0640817  43.0286478 100.8139103  85.9147313
  42.1608904 100.8861702  85.9804922  43.3161683 101.6161182  86.1035288
  42.9426226 100.9433250  85.9522079  52.1519367 100.9616962  94.2458635
  52.8972959 100.7726772  93.8322060  51.7356672 101.4875200  93.6872491
  52.2004341 101.0119107  94.1023208  45.5909283 117.3647042  82.6570903
  45.8807582 116.9736023  81.9330129  46.3212764 117.5463747  83.0976178
  45.7416168 117.3340856  82.6153710  59.5281638 108.3326190  89.1964140
  60.0789559 107.6994259  89.4361232  59.5125753 108.8641583  89.8879644
  59.6066834 108.3175139  89.3342998  46.1804029 112.1664788  93.7424033
  45.6815722 112.8780555  93.8208921  46.9904253 112.4865454  93.7042195
  46.2260135 112.3191636  93.7480602  43.5315199 119.3414424  85.7231052
  43.3115494 119.0511779  86.5157719  43.3109721 118.6829379  85.1948965
  43.4662793 119.2014133  85.7619961  42.4432146 111.4287741  87.9886754
  42.1545395 110.8025212  88.5232481  43.3115494 111.3708028  88.0551434
  42.5292398 111.3275285  88.0777708  53.2310044 106.5722524  88.3068736
  52.8874810 105.8512859  88.6575985  53.3303087 106.3636375  87.4647094
  53.1952087 106.4346727  88.2340416  45.6983155 120.7143814  84.5061745
  46.3507213 120.1820256  84.7352771  45.0008763 120.3612466  84.8929619
  45.6913873 120.5833337  84.5973912  42.6464420 113.0682992  83.9129119
  43.4010388 113.4496031  84.1264581  42.0535032 113.5194135  84.3675815
  42.6701133 113.1911819  84.0111997  53.6923073 113.0348228  83.8492724
  54.2581106 113.6941438  83.7651267  53.0450977 113.3797926  84.3209126
  53.6801830 113.1830169  83.9065480  45.1071087 105.0245832  99.0386331
  44.2970862 105.3303612  98.9276174  45.5845773 105.7451414  99.1538915
  45.0574565 105.1760433  99.0393402  43.9662646 114.2391553  89.2869234
  43.4443400 114.3791845  89.9721099  44.3536667 113.4802217  89.4771352
  43.9466347 114.1477077  89.4170311  40.9553830 104.2897362  83.3564189
  40.6678626 103.9198632  82.6196136  41.6424299 104.7592217  83.0947894
  41.0142728 104.3044331  83.2079265  50.1629651 115.9787012  83.2729803
  49.9216327 115.2454873  82.8656868  50.3430984 116.5273869  82.6196136
  50.1537275 115.9509404  83.1160026  45.3928972 111.2695572  84.6850725
  45.1971754 111.8770307  84.0911028  45.6163317 110.5763516  84.2042399
  45.3963613 111.2573098  84.5266806  43.7907502 108.1550310  84.8031594
  44.5130154 108.3191468  84.3435400  43.3115495 108.8759975  84.6970933
  43.8271233 108.2848540  84.7197208  51.7501009 104.4914109  90.1828279
  50.9112110 104.5175388  89.9466542  51.8205377 105.1384844  90.7633625
  51.6369403 104.5910235  90.2337396  41.4415119 110.5608382  93.9085734
  41.9536215 110.8392636  93.2594493  41.1551461 111.2997677  94.2748547
  41.4749982 110.7110736  93.8675612  50.1970288 101.3899486  84.9155895
  50.8996641 101.1907234  84.4375853  49.9314476 100.6175428  85.2224738
  50.2616920 101.2462452  84.8901336  55.6258533 109.6982096  87.4689520
  55.5392508 109.8537522  88.3224299  55.1709013 110.3420171  87.0948925
  55.5461790 109.8157851  87.5396627  38.5282025 105.0678574  84.2049470
  38.6298161 105.8704736  84.5330446  39.3237912 104.8665910  83.9072551
  38.6609931 105.1564473  84.2084825  44.9598844 102.6534771  93.9686775
  44.7682041 102.6689906  94.8186199  45.8097440 102.8498445  93.9453430
  45.0574566 102.6849122  94.0910070  39.3445757 105.1825753  91.9470592
  39.2031249 104.3309693  92.0715100  39.6286320 105.2254413  91.1232798
  39.3653603 105.0625503  91.8438216  49.4984349 107.0192843  86.0915080
  49.2519064 106.9388594  86.9251869  49.8269472 106.2346311  85.8977607
  49.5105593 106.8919108  86.1862603  53.3932398 113.7276202  89.8801861
  53.2546757 114.4257248  90.3850604  52.6132396 113.5724859  89.5238043
  53.2575625 113.8076369  89.9028135  51.7310483 110.0272577  96.1324243
  51.7258522 109.1552394  96.1366669  52.4371477 110.2260747  95.6593699
  51.8355487 109.9276452  96.0631278  45.4581377 109.7549561  95.5038063
  45.6024752 110.3350769  94.8681173  45.8057025 110.1325858  96.2087918
  45.5308838 109.8970265  95.5137058  47.6301294 108.9539730  93.2863195
  46.8824608 109.1470744  92.8811473  47.7842819 108.1284949  93.0487316
  47.5423722 108.8604841  93.1908600  44.5309132 117.9452333  92.3699090
  44.6798695 117.3855249  91.7172494  45.3109134 118.0244335  92.7531609
  44.6683225 117.8737899  92.3296039  54.8885771 113.0854456  80.6418360
  54.5092580 112.2991594  80.6347650  54.2252016 113.6341313  80.4990005
  54.7344246 113.0499280  80.6199157  47.0562432 118.1166976  93.6483581
  46.9806103 117.4475787  94.2034369  46.9852291 118.8184764  94.1624247
  47.0343039 118.1211883  93.8060429  47.8703071 102.8490280  94.1758598
  48.3275685 103.5814255  94.3031391  47.9459400 102.4256746  94.9345854
  47.9494041 102.8947519  94.3059675  40.1136062 103.0956100  95.2648042
  39.5778252 102.4836458  95.5808809  40.1753827 103.6704236  95.9181709
  40.0431695 103.0903028  95.4083469  52.3430397  96.0280156  88.0452441
  52.4613965  96.4856619  87.3119744  52.1692573  95.2225417  87.7588659
  52.3349568  95.9773928  87.8953375  47.7132679 116.6367975  84.4807187
  48.4782570 116.3677619  84.1589851  47.6110769 116.1517985  85.1977249
  47.8114175 116.5257540  84.5387014  45.7485449 104.8392384  91.0200422
  44.9581524 104.6583844  91.3417758  46.1446072 104.0619337  91.0030717
  45.6902325 104.6979845  91.0652971  50.2351340 113.6680159  76.4607136
  51.0024325 113.7280284  76.0512988  49.7882649 113.0960600  75.9763455
  50.2824767 113.5916734  76.3284846  51.1329135 112.4734815  88.7459868
  50.4574137 112.2420047  89.2473255  51.1421511 111.8655997  88.1201973
  51.0347640 112.3493740  88.7276021  48.2623279 107.3152643  95.5023921
  48.1982420 108.1762600  95.3744058  48.4020467 106.9984637  94.7019473
  48.2738749 107.3952810  95.3652134  53.1345870 115.3299947  80.9770046
  53.2165707 116.1366933  80.6531497  53.6195612 115.3495906  81.7010820
  53.2183028 115.4520609  81.0356945  46.9442373 110.0084783  89.6440124
  46.5204622 110.2089282  88.9079143  46.7687228 109.1613631  89.7564424
  46.8553254 109.9133564  89.5513814  46.4454067 121.5235296  92.1061581
  46.9349997 120.8246085  91.9237246  45.8738299 121.2259166  92.6937639
  46.4338596 121.3761519  92.1662622  42.2324818 110.5036834  85.0768097
  42.3889437 110.4383637  85.9324089  42.5725411 111.2785387  84.8646776
  42.3058053 110.6086032  85.1722691  48.7703963 109.8794718  83.9461460
  49.3119508 109.3765099  84.4100081  49.0850522 109.8259913  83.1350945
  48.8968360 109.7974139  83.8945272  52.6421070 114.0897365 101.0588372
  53.4555935 113.8182514 101.2193505  52.4816036 113.7904905 100.2548568
  52.7391019 114.0052291 100.9633778  46.9390412 115.2712069  81.2301488
  47.0083233 114.4126608  81.3694488  47.7178868 115.4883950  80.9020513
  47.0643262 115.1764933  81.2018645  49.9193232 104.7731022  93.9983760
  50.1335202 104.1341937  93.4447114  49.3027131 105.2176846  93.5691622
  49.8598561 104.7441166  93.8534191  51.3297900 117.6949771  85.4437981
  50.9377692 117.3916486  84.7260847  51.4850972 118.5318861  85.2542935
  51.2951490 117.7733607  85.3094478  38.8059080 107.6871785  85.3928864
  39.1858044 108.1056330  84.7289131  38.2314444 108.2685240  85.6997707
  38.7770404 107.8349644  85.3405605  52.0832320 106.3820088  94.9367067
  51.2709002 106.0745978  95.0180240  52.5422255 105.9019088  95.5009780
  52.0312705 106.2656580  95.0321662  51.4937575 114.2599759  85.3844012
  51.1352229 114.4314402  86.1608044  51.0076286 114.7212965  84.8272010
  51.3696272 114.3538731  85.4169281  49.3107961  97.8830958  88.9871103
  48.4401519  97.8569679  88.9404413  49.5648302  97.7108150  88.1696949
  49.2201521  97.8541102  88.8591240  46.2825940 109.9398925  77.9244246
  46.5718465 110.7163807  78.1987820  46.3697739 109.4287656  78.6258746
  46.3380196 109.9790843  78.0686744  49.1785828 107.7880159  99.7195770
  49.6485459 108.4122275 100.1063644  49.2247708 107.1197134 100.2788984
  49.2553703 107.7814839  99.8595841  46.3357101  99.8937186  90.4444574
  45.8195590  99.2017378  90.5696153  45.7751030 100.5607963  90.3907172
  46.1763614  99.8900444  90.4550640  48.4049335 100.4330146  92.2737426
  48.0181088 100.4579178  93.0550956  47.9182272  99.8671825  91.8211943
  48.2761844 100.3525897  92.3225330  52.6542314 115.1503655  96.3311213
  53.2922035 114.6563851  95.9973669  52.0116406 115.0781056  95.7463440
  52.6536541 115.0662664  96.1953568  54.3799314 106.9992801  90.8977128
  53.9526922 106.9119150  90.1425228  53.7425367 107.1070577  91.4831972
  54.2228921 107.0025461  90.8722570  48.0706476  97.3197132  94.5647686
  48.6999594  97.8557432  94.2868756  48.2392339  97.2274491  95.4161252
  48.1884271  97.3858494  94.6496214  47.8720391 102.1068327  96.8374098
  48.6993821 101.8353476  96.8932712  47.8928237 102.9029168  97.1937916
  47.9973241 102.1848081  96.8989281  52.7096571 115.8423464  92.9716569
  53.4988949 115.4912528  93.0918651  52.8840169 116.6559852  92.7093203
  52.8516852 115.9109321  92.9504437  42.4489881 109.2532189  90.0244358
  41.6077888 109.1536064  90.2323252  42.6579889 110.0227670  90.3758679
  42.3554574 109.3524233  90.1071673  39.9265448 106.8751726  87.8529109
  39.5322146 106.9494738  87.0779219  39.3705565 107.2609673  88.4037471
  39.7868260 106.9433501  87.8196769  51.5630395  99.8533020  87.5332988
  51.7679988  99.7855328  88.3789985  51.2356819 100.6591842  87.4654165
  51.5445643  99.9618961  87.6492643  46.2606546 107.1813589  89.2741956
  45.9569683 106.6269577  89.8752363  45.5585967 107.3605799  88.7869990
  46.1122756 107.1258371  89.2911661  45.3172643 104.4914108  83.8386658
  45.5932377 103.7733021  83.4264225  45.9171312 105.0899028  83.6307764
  45.4465908 104.4734479  83.7467419  44.3224897 114.3963309  93.9814054
  44.2145252 114.4065371  94.8476112  44.5320678 115.2218090  93.7919007
  44.3375008 114.5204384  94.0818145  54.8164083 100.4064785  87.0135753
  54.2038396 100.8935187  87.3989485  54.9128257  99.7308276  87.5573405
  54.7401980 100.3783093  87.1514612  48.8183164 102.1627626  82.1133253
  49.2726910 102.3338186  82.8381097  49.2923209 101.5495736  81.7131028
  48.9551484 102.0978511  82.1607014  42.3398689 111.6475952  91.4435991
  41.7486622 112.2885450  91.4139006  43.1019713 112.0713569  91.4167291
  42.3646950 111.8051790  91.4351138  42.7359312 102.8077950  92.1104009
  43.1960793 102.8816879  92.8479133  42.7815419 103.6059204  91.7603830
  42.8109867 102.9372097  92.1676765  44.3842662 103.4744644  96.6776036
  43.9928227 102.8277992  97.1131814  44.5528524 104.0656080  97.2970291
  44.3513572 103.4658912  96.8338742  58.4589111 111.4781721  92.4413269
  58.5172234 111.9268370  93.1873246  57.8255578 111.8880534  92.0043349
  58.3740406 111.6055456  92.4865818  52.0988205 117.0985263  88.8768016
  51.9007894 117.5876078  88.1824227  51.4775916 117.3026505  89.4552149
  51.9775770 117.2001802  88.8591239  46.1596184 108.8670160  83.2178260
  46.9038229 109.2544436  83.4561210  46.3056880 108.0227586  83.3818748
  46.2906769 108.8000633  83.2772230  48.0775759 100.6620419  88.2510121
  47.2311804 100.8343227  88.1251471  48.0746891  99.8569763  88.5875950
  47.9522909 100.5681448  88.2821248  49.1474059 104.4395633  89.1172179
  48.6734014 103.9137396  89.6277490  49.5192195 103.8925106  88.5487041
  49.1323948 104.2811630  89.1087326  39.5247090 106.4367140  94.4855725
  40.3872703 106.3362849  94.3993055  39.1938873 105.8561849  93.9241297
  39.6032286 106.3358767  94.3901131  55.4110790 109.4998009  90.5278960
  55.1709013 108.6604424  90.5321386  55.8902797 109.5798176  91.2519733
  55.4462974 109.3879409  90.6353762  51.0757559 105.3332188  82.1797933
  50.5480578 105.4160932  81.4903642  51.5353267 106.0750060  82.1762578
  51.0659410 105.4552850  82.0772628  57.4115977 106.2799466  88.4808219
  57.1725747 106.2395301  87.6429003  57.5749878 107.1270618  88.6073940
  57.4006280 106.3991551  88.3761701  54.0162007 110.6649416  94.4113264
  54.7396206 110.2121942  94.2324284  53.7511969 110.9454081  93.6285592
  54.0843280 110.6400384  94.2691979  42.8848876 105.2609589  91.1466143
  42.2601946 105.2727981  90.5392096  42.5494470 105.7369764  91.7957383
  42.7434367 105.3328106  91.1522712  43.0690624 103.6034708  77.2038828
  42.7203429 104.2554433  77.6670378  42.5887070 103.5891821  76.4762699
  42.9460868 103.6977761  77.1649919  39.5974551 113.3210049  92.5869907
  39.0674476 112.6302488  92.6364882  39.8699644 113.3120235  91.7582616
  39.5599273 113.2177181  92.4717323  50.6294642 113.9035752  81.3107590
  51.3528840 114.3693865  81.1672163  50.1895233 113.9709361  80.5605187
  50.6710334 113.9819588  81.1792371  49.7980797 110.7633294  92.5608279
  49.1837790 110.2191344  92.8556914  50.3148082 110.2497530  92.0814095
  49.7836459 110.6069703  92.5332507  49.0377094 111.8337564  90.2952578
  48.6104702 111.2087283  89.8618013  49.0302038 111.5512486  91.1211585
  48.9736235 111.6990345  90.3532405  42.1539621 106.8702737  93.3641012
  42.3133108 106.1146061  93.7692734  41.9732515 107.4193677  94.0181749
  42.1504980 106.8396551  93.5203718  50.0959924  99.0363973  93.9191801
  49.6000485  99.2327647  93.2283368  50.8528986  99.4356641  93.7480603
  50.1346749  99.1241706  93.7911938  47.3662803 102.7106318  90.5095112
  47.3905291 102.1766431  89.8207892  47.6174277 102.2023627  91.1720702
  47.4072722 102.5567222  90.5059756  34.8770393 109.9937813  89.9438256
  34.7713842 109.9484658  89.0790340  34.1270613 110.3391594  90.2252541
  34.7505996 110.0378722  89.8575586  43.6464126 101.4377137  89.8900856
  43.6862497 101.9386343  90.6035563  42.8213790 101.5287530  89.6206779
  43.5303652 101.5258953  89.9551394  45.8293739 111.0037877  97.9921151
  44.9789369 111.1409591  98.1278796  45.9921866 110.2701655  98.4368852
  45.7277602 110.9151978  98.0776750  45.0678489 107.9537647  92.1874755
  44.2370419 108.1211465  91.9810003  45.0130006 107.5773597  92.9723640
  44.9367904 107.9227378  92.2723283  42.8762272 101.4446539  97.8231166
  43.5014976 100.9008672  98.0960598  42.4212752 100.9641457  97.2538956
  42.9010533 101.2936021  97.7792760  43.4414533 106.2293238  82.7164873
  43.5817494 106.7265702  83.4193514  43.9397066 105.5279532  82.8579086
  43.5355614 106.1995217  82.8416452  43.4714755 107.0960349  80.0457450
  44.1059835 107.6920774  79.9806911  43.5540366 106.7963807  80.8603320
  43.5771306 107.1401257  80.1560536  56.4497321 109.6275826  92.9143814
  57.0415161 110.2673077  92.9462012  56.8856316 108.9298863  93.2035881
  56.6015752 109.6194177  92.9624646  45.0493738 103.0274324  80.0202892
  45.3709579 102.5477407  79.3662154  45.3120682 103.8373971  79.8293703
  45.1359764 103.0764222  79.8958384  48.2790711 114.0493199  93.5401708
  47.7715802 114.6029046  93.9842338  47.9817357 114.1101489  92.7220482
  48.1595596 114.1399510  93.4850164  50.4452893 102.4146518  92.3826371
  50.8707965 101.9619045  91.7709897  49.8309886 101.8606589  92.6591158
  50.4181539 102.2660495  92.3331396  39.9767743 109.2928190  83.3146996
  40.4859973 109.8892697  83.6958301  40.4502015 109.0254164  82.6323415
  40.1211119 109.3414005  83.2701518  50.8898491 117.9656457  81.4705651
  50.1727801 117.7917319  81.0052889  51.5405229 117.7309029  80.9381137
  50.8800342 117.9052249  81.3234869  48.8847116  98.8861618  85.7916948
  48.2415434  98.7359265  86.3602086  48.5446523  98.6403964  85.0266052
  48.7392193  98.8273741  85.7619963  53.4746462 106.8421045  85.2146956
  52.8037652 107.3850747  85.0860022  54.1686213 107.3115900  84.9728651
  53.4775330 106.9919316  85.1602484  47.5233196 118.9817757  90.4458715
  47.2998851 118.2236586  90.8142741  47.0343040 119.0115778  89.7239154
  47.4176645 118.8739982  90.3935456  53.6374590 103.2976929  88.1237329
  53.9902200 102.8706652  88.7983128  52.7789391 103.2127772  88.2538406
  53.5624035 103.2221669  88.2432340  42.3358275 105.9284448  86.1820176
  41.6170264 106.3448581  86.4493040  42.7070637 106.4938687  85.6311814
  42.2850207 106.0733730  86.1402983  51.6357856 106.5612297  92.0722172
  51.6155783 106.3795592  92.9256951  51.6837056 107.4324316  92.0481755
  51.6392497 106.6628836  92.1945466  49.5804186 113.1499489  97.9970648
  49.5400040 112.5049166  97.4115804  50.3927504 113.0936107  98.3096060
  49.6947339 113.0458456  97.9567597  46.1711653 119.2018215  87.8995799
  45.7572052 118.5392345  87.5099641  46.8559027 119.3496074  87.3791493
  46.2110025 119.1258873  87.7652296  49.5376947 118.3608300  88.6519416
  49.1393231 118.4710571  87.8840236  48.9228167 118.5690367  89.2345976
  49.3875837 118.4081869  88.6250715  48.1104849 104.9682448  81.5193555
  47.5169689 105.2899445  80.9678122  48.1480127 104.1223544  81.3114662
  48.0279238 104.8906777  81.4076327  55.0698650  98.4195341  89.0521642
  54.5629515  97.7124480  88.9842819  55.8666084  98.0888529  89.1822719
  55.1125889  98.2668492  89.0620637  50.9862666 104.9261953  84.9495306
  50.7576359 104.9494654  84.1073664  51.2460742 104.1019420  85.0690316
  50.9908854 104.8078033  84.8420503  45.2681894 106.7796426  94.5520406
  44.7560797 106.1717609  94.9105437  45.0961390 107.4953018  95.0194382
  45.1671531 106.7959725  94.6736630  40.1147609 105.2234001  97.2022768
  39.9450199 105.8835376  96.6570974  39.6713559 105.4340562  97.9235257
  40.0246943 105.3519983  97.2284397  44.0407428 103.4638499  86.2449501
  44.5164795 103.8255579  85.6099682  43.5396028 104.1194967  86.5249644
  44.0372787 103.6132688  86.1926242  57.2718790 112.9360267  82.0362506
  57.6552396 113.6851623  82.2660603  56.4762903 113.1826087  81.7774495
  57.2112572 113.0829961  82.0320080  49.1450965 104.7020671  96.9922661
  49.7022395 104.4734480  96.3601127  48.8212030 105.4626336  96.7157874
  49.1797375 104.7804507  96.8579159  37.0149674 108.1280867  92.4611258
  36.4676393 107.4581512  92.5792126  37.8042052 107.7610715  92.5254725
  37.0501857 107.9745853  92.4879958  46.8634082 107.7888324  97.9574669
  47.6145409 108.1040001  98.2714223  47.0556658 107.5867495  97.1308590
  47.0025496 107.8055706  97.8818064  46.0834082 105.6079699  79.6122885
  46.4633046 105.6259328  78.8274000  45.3426678 106.0533688  79.4913733
  46.0302919 105.6761474  79.4786454  53.7119372 103.9161890  85.1998464
  53.7113599 103.7610547  86.0582740  53.5075552 104.7624877  85.1439850
  53.6819150 104.0182511  85.3186403  35.7736643 107.3401675  89.6157281
  35.5958404 106.8878284  90.3412196  35.4855665 108.1427836  89.7995758
  35.7049596 107.3924232  89.7500783  51.4360224 108.5959392  88.8534671
  51.9313889 107.8782387  88.8138691  50.6260000 108.2930190  88.7389158
  51.3904117 108.4457038  88.8308397  46.8818836 112.4457205  81.0031675
  46.0730158 112.1223879  80.9564985  47.3893745 111.7390427  80.9359924
  46.8368502 112.2938522  80.9861970  37.5109113 109.8729398  86.7279040
  36.6454632 109.8615089  86.6161811  37.6107929 109.6859621  87.5750179
  37.3983280 109.8435460  86.8367984  53.5012043 111.3463079  91.5411800
  53.9267115 110.8237501  90.9882225  53.1368963 111.9443917  91.0200423
  53.5098646 111.3573306  91.3820809  43.1366123 119.6427297  90.3009145
  43.4512682 120.4563685  90.3086927  43.5459536 119.2577516  90.9691304
  43.2434221 119.7055999  90.4013237  50.0890642 115.0597344  87.8712957
  50.5601821 115.7737606  88.0402942  50.4250821 114.4596094  88.4072827
  50.2085757 115.0768808  87.9745333  52.1767627 116.6698657 100.0505029
  52.2864592 115.8807218 100.4061776  52.5058524 116.5804593  99.2479367
  52.2420033 116.5404510  99.9847420  47.0060137  99.8324814  94.8271052
  47.1388043  99.0355808  95.1552027  47.3905290 100.3591217  95.4069328
  47.0816466  99.7924731  94.9614555  50.7264589 114.8515278  94.6340650
  50.1785535 114.2273161  94.3660715  51.1877617 115.0409550  93.9184729
  50.7131798 114.7874328  94.4891081  50.0792493  96.7555140  91.4252145
  49.2738456  96.6452870  91.7419983  49.9499228  96.8567596  90.5682011
  49.9412625  96.7538810  91.3460186  53.5358453 102.9200632  92.0191842
  52.9521442 103.4209839  91.6069409  53.8562747 102.4130188  91.3856165
  53.4971628 102.9192467  91.8650349  46.0753252 101.8341227  82.2950517
  46.8968947 102.0039540  82.0532212  45.6122903 101.9888488  81.5716814
  46.1284415 101.8822960  82.1522161  44.6648584  99.8283989  93.0748946
  45.2092997  99.4875116  93.6653287  44.7185520 100.6869451  93.2170230
  44.7537704  99.9039249  93.1830819  40.4779143 113.5900405  89.9487754
  41.0824000 113.5496240  89.3201574  40.2706455 114.4371557  89.9791809
  40.5368040 113.7088408  89.8603870  50.2922915 115.8566351  91.1649991
  51.1121289 115.7129317  91.4266286  50.0116993 116.4812549  91.7066429
  50.3719658 115.9276703  91.2837930  35.7130425 112.5735023  89.8186677
  35.6154703 111.7631294  90.1276733  36.4959295 112.5526816  89.4332945
  35.8146562 112.4502113  89.8073540  66.7636565 123.5131202  84.1292867
  66.7330570 124.3675839  84.3011137  67.3617914 123.2126495  84.6879011
  66.8473723 123.5947699  84.2367670  59.9636250 122.6006853  88.8845798
  59.1074146 122.7615351  88.9354915  60.0103904 121.7298917  88.9050859
  59.8435362 122.4957655  88.8951864  63.2729967 128.8693379  98.4906254
  63.9796734 128.3745410  98.6193188  63.4617902 129.3102460  97.7608912
  63.4057872 128.8611729  98.4015299  62.8088071 124.6598897  91.5277449
  63.3544031 125.3383984  91.5871419  62.7504948 124.5186358  90.6679031
  62.8803986 124.7390899  91.4089510  64.5853140 126.0883504  82.4011177
  64.4692666 126.8391190  82.8303315  65.3809027 125.8307458  82.6507264
  64.6857729 126.1618351  82.5015269  51.4217278 120.3393980  89.4382443
  50.8022310 119.7486628  89.2692458  51.3201142 120.9305416  88.8046766
  51.3154953 120.3398063  89.3187433  58.5185174 122.0793522  83.7714906
  59.2165338 122.2581650  84.2636370  58.8337506 121.5563862  83.1485296
  58.6680511 122.0287294  83.7516916  51.1486411 123.8846262  91.6826012
  51.0245108 124.4708708  92.3175831  51.8004695 123.3906458  91.9838287
  51.2260060 123.8985067  91.8211941  56.6912037 117.4485919  87.8536181
  56.3615367 117.8997062  87.1839880  56.0157039 117.3702082  88.4009187
  56.5422473 117.5037054  87.8359404  62.3082446 126.8191149  80.7125467
  62.2233741 127.6752115  80.8575036  62.7966829 126.5435473  81.3807626
  62.3671343 126.9048470  80.8327549  63.8988445 113.4371442  86.0985792
  63.5841886 114.1274920  86.5306214  63.3815387 113.3816224  85.3971292
  63.7752915 113.5306330  86.0582741  63.2400879 123.4375943  82.2123202
  62.7112350 123.6535576  82.8720508  63.7625899 124.1312081  82.1324171
  63.2389332 123.5719080  82.2978801  68.6948932 129.0122247  87.5856247
  67.8646635 129.2232891  87.7489663  68.6458184 128.1859302  87.3098530
  68.5655667 128.9211853  87.5693612  59.5877701 123.5804812  79.4899591
  59.8273705 123.7882795  78.6774934  59.9093542 122.7762320  79.5988535
  59.6714859 123.4918913  79.3860144  54.8967991 115.5098207  83.3359129
  55.6513959 115.8776524  83.0976179  54.7195526 115.8837762  84.1038308
  54.9822470 115.6196395  83.4144017  68.1902890 121.6592648  91.3806668
  67.3531311 121.7294835  91.6154262  68.1591121 121.6617143  90.5080970
  68.0621172 121.6702875  91.2866216  54.5867619 123.8025683  97.0955037
  54.7588123 123.6931578  97.9440318  55.1236976 124.4480089  96.8586229
  54.6912623 123.8817685  97.1860133  53.2525056 117.9168526  80.0337242
  53.0700629 118.1340407  79.2078234  54.1150669 118.0307539  80.0895856
  53.3529645 117.9658424  79.9191729  58.9324775 114.9194937  83.0686265
  59.6610935 114.7410892  82.6224422  59.0219668 115.7613017  83.2793444
  59.0531437 115.0178815  83.0339783  62.9133076 125.8548324  86.9718559
  63.6690591 126.2879839  87.0107468  63.0195400 125.2053094  87.5453195
  63.0403246 125.8225808  87.0616585  65.9513247 129.6821602  87.7220962
  65.5148479 129.6858344  88.4779934  65.6176162 130.3627101  87.2900540
  65.8375867 129.7834057  87.7701795  65.8710730 116.7235429  89.9650390
  66.5136638 116.7933534  90.5512306  66.1233750 116.0564652  89.4629932
  66.0032862 116.6361778  89.9777670  52.7987083 121.1942699  78.5459715
  52.0845260 120.9080878  78.9582147  53.2831052 121.5339325  79.1866102
  52.7646446 121.2024349  78.7015350  53.6427942 119.9335993  94.5774964
  52.9499739 119.4632973  94.8235696  54.2588270 119.7074297  95.1516671
  53.6312472 119.8303125  94.6984117  69.0857593 126.4002521  86.6140600
  69.7474027 125.8393190  86.5136508  68.4449005 125.9054552  86.9393291
  69.0886461 126.2438931  86.6472940  65.3722424 127.4167904  86.3552588
  65.6078013 127.5613103  85.5279439  65.5211987 128.1810312  86.7484102
  65.4288227 127.5506958  86.2916192  52.3668501 123.9001397  95.7201809
  53.0908474 123.8854427  96.2066704  52.4684638 124.6096752  95.2223778
  52.4886710 124.0026100  95.7180596  67.2012880 126.2569570  84.1922192
  67.5321098 126.7897210  83.5862287  67.7745969 126.3108458  84.8484143
  67.3346560 126.3439139  84.1999974  59.7413451 127.3800481 100.5850756
  58.9486431 127.6943993 100.7703376  59.8562378 127.5951950  99.7471541
  59.6408861 127.4584318 100.4889091  62.4144770 124.1034473  84.8745772
  62.5091624 124.8423767  85.3285398  61.7903613 123.6751948  85.3080337
  62.3353800 124.1495793  85.0053920  60.6697243 127.2820685  95.5236053
  61.2436105 126.6447929  95.6784617  60.5912047 127.2824768  94.6545711
  60.7430478 127.1885797  95.4182464  49.2693660 124.0609895  89.3618767
  49.8467163 123.9246345  90.0011013  48.5707722 123.6045679  89.6164352
  49.2514681 123.9732161  89.4941057  62.6667791 125.9483212  78.1082724
  62.5847953 126.0185399  78.9737711  63.3047511 126.5112956  77.9166465
  62.7487628 126.0422183  78.2072674  56.0260962 125.7143950  87.5757251
  55.7680206 124.8815685  87.5488550  56.0809445 125.9401563  86.7349751
  55.9960740 125.6241722  87.4477387  61.1062012 117.8172401  87.6761343
  60.4018339 117.3281586  87.8345262  61.1546987 117.8294875  86.8049788
  61.0092064 117.7462049  87.5700683  54.9995674 123.2681713  88.0622145
  54.4245265 123.4273881  88.6986106  54.6231351 122.6317122  87.5990596
  54.8598487 123.1979526  88.0876704  58.6668963 121.7405062  92.9214524
  58.2783396 121.3159280  92.2666715  58.0023661 121.9887212  93.4291550
  58.5115891 121.7143783  92.9002392  68.3092232 121.4980067  85.6962354
  68.0528797 120.6860008  85.5060237  69.1521546 121.5057634  85.4692541
  68.3958257 121.3792064  85.6347171  44.7452493 122.9121787  86.0766586
  44.8312745 122.5353656  86.8580116  45.3728291 122.5382233  85.5986544
  44.8509044 122.8007270  86.1212063  62.4895324 115.4379691  90.4338508
  62.8705836 114.7557862  90.8206382  61.6858609 115.1489293  90.2514172
  62.4271786 115.2946739  90.4642564  59.7707901 125.9703667  81.1191331
  60.5848540 126.2618559  81.0074102  59.7067042 125.3163529  80.5449624
  59.8810640 125.9168861  81.0180168  65.9917391 128.6529663  95.5320906
  65.7556029 127.8217728  95.4132967  66.6360620 128.6015270  96.1175751
  66.0512062 128.5227351  95.6006800  56.2818624 124.6627474  80.5838532
  56.6663777 124.4435181  81.3355077  56.0330245 125.4890419  80.7139609
  56.3020697 124.7525620  80.7139609  56.4487165 117.9433889 100.3001116
  56.1340606 118.7133452 100.0370679  56.1277097 117.3804145  99.7153343
  56.3546084 117.9744158 100.1742466  67.0153812 128.4374111  91.5949201
  66.7099629 129.1702168  91.9562517  66.2960028 128.0312041  91.3141987
  66.8641154 128.4855844  91.6062338  72.7155604 125.0767112  90.9217545
  72.6480104 125.0963071  90.0520132  72.7011266 125.9197439  91.1473216
  72.7034361 125.2040847  90.8270022  54.0019062 116.3324411  85.9147313
  53.1341487 116.4047010  85.9804922  54.2894266 117.1346489  86.1035288
  53.9158810 116.4618558  85.9522079  63.1251951 116.4802270  94.2458635
  63.8705543 116.2912080  93.8322060  62.7089255 117.0060508  93.6872491
  63.1736925 116.5304415  94.1023208  70.5014221 123.8511498  89.1964140
  71.0522143 123.2179567  89.4361232  70.4858337 124.3826891  89.8879644
  70.5799418 123.8360447  89.3342998  64.2042628 122.0907832  88.3068736
  63.8607393 121.3698167  88.6575985  64.3035670 121.8821683  87.4647094
  64.1684670 121.9532035  88.2340416  64.6655657 128.5533536  83.8492724
  65.2313689 129.2126746  83.7651267  64.0183560 128.8983234  84.3209126
  64.6534413 128.7015477  83.9065480  56.0803670 120.5431140  99.0386331
  55.2703446 120.8488920  98.9276174  56.5578357 121.2636722  99.1538915
  56.0307149 120.6945741  99.0393402  51.9286414 119.8082670  83.3564189
  51.6411210 119.4383940  82.6196136  52.6156882 120.2777525  83.0947894
  51.9875311 119.8229639  83.2079265  54.7640085 123.6735618  84.8031594
  55.4862737 123.8376776  84.3435400  54.2848078 124.3945283  84.6970933
  54.8003816 123.8033848  84.7197208  62.7233593 120.0099417  90.1828279
  61.8844694 120.0360696  89.9466542  62.7937960 120.6570152  90.7633625
  62.6101987 120.1095543  90.2337396  61.1702871 116.9084794  84.9155895
  61.8729224 116.7092542  84.4375853  60.9047060 116.1360736  85.2224738
  61.2349504 116.7647760  84.8901336  66.5991117 125.2167404  87.4689520
  66.5125091 125.3722830  88.3224299  66.1441597 125.8605479  87.0948925
  66.5194373 125.3343159  87.5396627  49.5014608 120.5863882  84.2049470
  49.6030745 121.3890044  84.5330446  50.2970495 120.3851218  83.9072551
  49.6342514 120.6749781  84.2084825  55.9331428 118.1720079  93.9686775
  55.7414625 118.1875213  94.8186199  56.7830023 118.3683753  93.9453430
  56.0307149 118.2034430  94.0910070  50.3178341 120.7011060  91.9470592
  50.1763832 119.8495001  92.0715100  50.6018904 120.7439721  91.1232798
  50.3386187 120.5810810  91.8438216  60.4716933 122.5378151  86.0915080
  60.2251647 122.4573902  86.9251869  60.8002056 121.7531619  85.8977607
  60.4838176 122.4104416  86.1862603  62.7043067 125.5457885  96.1324243
  62.6991105 124.6737702  96.1366669  63.4104061 125.7446055  95.6593699
  62.8088071 125.4461760  96.0631278  56.4313960 125.2734869  95.5038063
  56.5757336 125.8536077  94.8681173  56.7789609 125.6511166  96.2087918
  56.5041422 125.4155573  95.5137058  58.6033878 124.4725038  93.2863195
  57.8557192 124.6656052  92.8811473  58.7575403 123.6470257  93.0487316
  58.5156305 124.3790149  93.1908600  65.8618355 128.6039764  80.6418360
  65.4825163 127.8176902  80.6347650  65.1984600 129.1526621  80.4990005
  65.7076829 128.5684588  80.6199157  58.8435655 118.3675588  94.1758598
  59.3008269 119.0999563  94.3031391  58.9191983 117.9442054  94.9345854
  58.9226624 118.4132826  94.3059675  51.0868646 118.6141408  95.2648042
  50.5510835 118.0021766  95.5808809  51.1486411 119.1889544  95.9181709
  51.0164278 118.6088336  95.4083469  63.3162981 111.5465464  88.0452441
  63.4346549 112.0041927  87.3119744  63.1425156 110.7410725  87.7588659
  63.3082151 111.4959236  87.8953375  56.7218032 120.3577692  91.0200422
  55.9314107 120.1769152  91.3417758  57.1178655 119.5804645  91.0030717
  56.6634909 120.2165153  91.0652971  62.1061719 127.9920122  88.7459868
  61.4306721 127.7605355  89.2473255  62.1154095 127.3841305  88.1201973
  62.0080223 127.8679048  88.7276021  59.2355863 122.8337951  95.5023921
  59.1715004 123.6947908  95.3744058  59.3753051 122.5169945  94.7019473
  59.2471333 122.9138118  95.3652134  57.9174957 125.5270091  89.6440124
  57.4937206 125.7274590  88.9079143  57.7419812 124.6798939  89.7564424
  57.8285837 125.4318872  89.5513814  59.7436546 125.3980026  83.9461460
  60.2852092 124.8950407  84.4100081  60.0583105 125.3445220  83.1350945
  59.8700943 125.3159447  83.8945272  60.8925816 120.2916330  93.9983760
  61.1067785 119.6527244  93.4447114  60.2759715 120.7362154  93.5691622
  60.8331145 120.2626474  93.8534191  49.7791663 123.2057093  85.3928864
  50.1590628 123.6241638  84.7289131  49.2047028 123.7870548  85.6997707
  49.7502988 123.3534951  85.3405605  63.0564904 121.9005395  94.9367067
  62.2441585 121.5931286  95.0180240  63.5154838 121.4204396  95.5009780
  63.0045288 121.7841888  95.0321662  60.2840544 113.4016266  88.9871103
  59.4134102 113.3754987  88.9404413  60.5380886 113.2293458  88.1696949
  60.1934104 113.3726410  88.8591240  57.2558524 125.4584233  77.9244246
  57.5451049 126.2349115  78.1987820  57.3430323 124.9472964  78.6258746
  57.3112780 125.4976151  78.0686744  60.1518411 123.3065467  99.7195770
  60.6218042 123.9307583 100.1063644  60.1980291 122.6382442 100.2788984
  60.2286287 123.3000147  99.8595841  57.3089685 115.4122494  90.4444574
  56.7928173 114.7202686  90.5696153  56.7483614 116.0793271  90.3907172
  57.1496198 115.4085752  90.4550640  59.3781918 115.9515454  92.2737426
  58.9913671 115.9764486  93.0550956  58.8914856 115.3857133  91.8211943
  59.2494427 115.8711205  92.3225330  65.3531898 122.5178109  90.8977128
  64.9259506 122.4304458  90.1425228  64.7157951 122.6255885  91.4831972
  65.1961505 122.5210769  90.8722570  59.0439060 112.8382440  94.5647686
  59.6732178 113.3742740  94.2868756  59.2124923 112.7459799  95.4161252
  59.1616855 112.9043802  94.6496214  58.8452975 117.6253635  96.8374098
  59.6726404 117.3538783  96.8932712  58.8660821 118.4214476  97.1937916
  58.9705825 117.7033389  96.8989281  53.4222465 124.7717497  90.0244358
  52.5810471 124.6721372  90.2323252  53.6312473 125.5412978  90.3758679
  53.3287157 124.8709541  90.1071673  50.8998032 122.3937034  87.8529109
  50.5054729 122.4680046  87.0779219  50.3438148 122.7794981  88.4037471
  50.7600844 122.4618809  87.8196769  62.5362978 115.3718328  87.5332988
  62.7412572 115.3040636  88.3789985  62.2089402 116.1777150  87.4654165
  62.5178226 115.4804269  87.6492643  57.2339130 122.6998897  89.2741956
  56.9302267 122.1454885  89.8752363  56.5318550 122.8791107  88.7869990
  57.0855339 122.6443679  89.2911661  56.2905227 120.0099416  83.8386658
  56.5664961 119.2918329  83.4264225  56.8903896 120.6084336  83.6307764
  56.4198491 119.9919787  83.7467419  65.7896666 115.9250093  87.0135753
  65.1770980 116.4120495  87.3989485  65.8860841 115.2493583  87.5573405
  65.7134564 115.8968401  87.1514612  59.7915747 117.6812934  82.1133253
  60.2459494 117.8523494  82.8381097  60.2655793 117.0681044  81.7131028
  59.9284067 117.6163819  82.1607014  53.7091895 118.3263257  92.1104009
  54.1693377 118.4002187  92.8479133  53.7548002 119.1244511  91.7603830
  53.7842451 118.4557405  92.1676765  55.3575245 118.9929952  96.6776036
  54.9660810 118.3463299  97.1131814  55.5261108 119.5841388  97.2970291
  55.3246155 118.9844220  96.8338742  69.4321694 126.9967029  92.4413269
  69.4904818 127.4453678  93.1873246  68.7988162 127.4065842  92.0043349
  69.3472989 127.1240764  92.4865818  57.1328767 124.3855468  83.2178260
  57.8770812 124.7729744  83.4561210  57.2789463 123.5412893  83.3818748
  57.2639352 124.3185941  83.2772230  59.0508343 116.1805727  88.2510121
  58.2044388 116.3528535  88.1251471  59.0479475 115.3755071  88.5875950
  58.9255493 116.0866756  88.2821248  60.1206643 119.9580941  89.1172179
  59.6466597 119.4322703  89.6277490  60.4924779 119.4110414  88.5487041
  60.1056532 119.7996938  89.1087326  50.4979673 121.9552448  94.4855725
  51.3605286 121.8548157  94.3993055  50.1671456 121.3747157  93.9241297
  50.5764870 121.8544075  94.3901131  66.3843374 125.0183317  90.5278960
  66.1441596 124.1789732  90.5321386  66.8635381 125.0983484  91.2519733
  66.4195557 124.9064717  90.6353762  62.0490143 120.8517496  82.1797933
  61.5213161 120.9346240  81.4903642  62.5085851 121.5935367  82.1762578
  62.0391993 120.9738158  82.0772628  68.3848561 121.7984774  88.4808219
  68.1458331 121.7580608  87.6429003  68.5482462 122.6455926  88.6073940
  68.3738864 121.9176859  88.3761701  64.9894591 126.1834724  94.4113264
  65.7128790 125.7307250  94.2324284  64.7244553 126.4639389  93.6285592
  65.0575864 126.1585692  94.2691979  53.8581459 120.7794897  91.1466143
  53.2334529 120.7913289  90.5392096  53.5227054 121.2555072  91.7957383
  53.7166951 120.8513414  91.1522712  54.0423208 119.1220016  77.2038828
  53.6936012 119.7739741  77.6670378  53.5619654 119.1077129  76.4762699
  53.9193452 119.2163069  77.1649919  60.7713380 126.2818602  92.5608279
  60.1570373 125.7376652  92.8556914  61.2880665 125.7682838  92.0814095
  60.7569043 126.1255011  92.5332507  60.0109677 127.3522872  90.2952578
  59.5837285 126.7272590  89.8618013  60.0034622 127.0697794  91.1211585
  59.9468819 127.2175652  90.3532405  53.1272204 122.3888045  93.3641012
  53.2865691 121.6331369  93.7692734  52.9465098 122.9378984  94.0181749
  53.1237563 122.3581859  93.5203718  61.0692507 114.5549280  93.9191801
  60.5733069 114.7512955  93.2283368  61.8261570 114.9541949  93.7480603
  61.1079332 114.6427014  93.7911938  58.3395387 118.2291626  90.5095112
  58.3637874 117.6951739  89.8207892  58.5906861 117.7208935  91.1720702
  58.3805306 118.0752530  90.5059756  54.6196709 116.9562445  89.8900856
  54.6595081 117.4571651  90.6035563  53.7946374 117.0472838  89.6206779
  54.5036235 117.0444261  89.9551394  56.8026322 126.5223185  97.9921151
  55.9521953 126.6594899  98.1278796  56.9654450 125.7886963  98.4368852
  56.7010186 126.4337286  98.0776750  56.0411073 123.4722954  92.1874755
  55.2103002 123.6396772  91.9810003  55.9862590 123.0958905  92.9723640
  55.9100488 123.4412686  92.2723283  53.8494856 116.9631847  97.8231166
  54.4747559 116.4193980  98.0960598  53.3945336 116.4826765  97.2538956
  53.8743117 116.8121329  97.7792760  54.4147117 121.7478546  82.7164873
  54.5550078 122.2451010  83.4193514  54.9129649 121.0464840  82.8579086
  54.5088197 121.7180525  82.8416452  54.4447339 122.6145657  80.0457450
  55.0792418 123.2106082  79.9806911  54.5272950 122.3149115  80.8603320
  54.5503890 122.6586565  80.1560536  67.4229905 125.1461134  92.9143814
  68.0147745 125.7858385  92.9462012  67.8588899 124.4484171  93.2035881
  67.5748336 125.1379485  92.9624646  56.0226322 118.5459632  80.0202892
  56.3442163 118.0662715  79.3662154  56.2853266 119.3559278  79.8293703
  56.1092347 118.5949530  79.8958384  61.4185477 117.9331826  92.3826371
  61.8440548 117.4804353  91.7709897  60.8042470 117.3791897  92.6591158
  61.3914122 117.7845803  92.3331396  59.8579700 114.4046926  85.7916948
  59.2148018 114.2544573  86.3602086  59.5179107 114.1589271  85.0266052
  59.7124777 114.3459049  85.7619963  64.4479046 122.3606353  85.2146956
  63.7770236 122.9036055  85.0860022  65.1418796 122.8301208  84.9728651
  64.4507914 122.5104624  85.1602484  64.6107174 118.8162237  88.1237329
  64.9634784 118.3891960  88.7983128  63.7521975 118.7313080  88.2538406
  64.5356618 118.7406977  88.2432340  53.3090859 121.4469756  86.1820176
  52.5902848 121.8633889  86.4493040  53.6803221 122.0123995  85.6311814
  53.2582790 121.5919038  86.1402983  62.6090439 122.0797605  92.0722172
  62.5888367 121.8980900  92.9256951  62.6569640 122.9509624  92.0481755
  62.6125080 122.1814144  92.1945466  59.0837433 120.4867756  81.5193555
  58.4902272 120.8084753  80.9678122  59.1212711 119.6408852  81.3114662
  59.0011822 120.4092084  81.4076327  66.0431234 113.9380648  89.0521642
  65.5362098 113.2309788  88.9842819  66.8398667 113.6073837  89.1822719
  66.0858473 113.7853800  89.0620637  61.9595249 120.4447261  84.9495306
  61.7308942 120.4679962  84.1073664  62.2193326 119.6204728  85.0690316
  61.9641438 120.3263341  84.8420503  56.2414478 122.2981734  94.5520406
  55.7293381 121.6902917  94.9105437  56.0693974 123.0138326  95.0194382
  56.1404115 122.3145033  94.6736630  51.0880193 120.7419309  97.2022768
  50.9182783 121.4020684  96.6570974  50.6446142 120.9525870  97.9235257
  50.9979526 120.8705291  97.2284397  55.0140012 118.9823807  86.2449501
  55.4897378 119.3440887  85.6099682  54.5128612 119.6380275  86.5249644
  55.0105371 119.1317996  86.1926242  68.2451374 128.4545575  82.0362506
  68.6284979 129.2036931  82.2660603  67.4495487 128.7011395  81.7774495
  68.1845156 128.6015269  82.0320080  60.1183548 120.2205978  96.9922661
  60.6754978 119.9919788  96.3601127  59.7944613 120.9811644  96.7157874
  60.1529958 120.2989815  96.8579159  47.9882257 123.6466175  92.4611258
  47.4408977 122.9766820  92.5792126  48.7774635 123.2796023  92.5254725
  48.0234441 123.4931161  92.4879958  57.8366666 123.3073632  97.9574669
  58.5877992 123.6225309  98.2714223  58.0289242 123.1052803  97.1308590
  57.9758080 123.3241014  97.8818064  57.0566665 121.1265007  79.6122885
  57.4365630 121.1444636  78.8274000  56.3159261 121.5718996  79.4913733
  57.0035503 121.1946781  79.4786454  64.6851956 119.4347198  85.1998464
  64.6846182 119.2795855  86.0582740  64.4808136 120.2810185  85.1439850
  64.6551734 119.5367819  85.3186403  62.4092808 124.1144700  88.8534671
  62.9046473 123.3967695  88.8138691  61.5992583 123.8115498  88.7389158
  62.3636701 123.9642346  88.8308397  64.4744627 126.8648387  91.5411800
  64.8999698 126.3422809  90.9882225  64.1101546 127.4629225  91.0200423
  64.4831229 126.8758614  91.3820809  57.9792721 115.3510122  94.8271052
  58.1120627 114.5541116  95.1552027  58.3637874 115.8776525  95.4069328
  58.0549050 115.3110039  94.9614555  61.0525076 112.2740448  91.4252145
  60.2471040 112.1638178  91.7419983  60.9231812 112.3752904  90.5682011
  60.9145209 112.2724118  91.3460186  64.5091037 118.4385940  92.0191842
  63.9254026 118.9395147  91.6069409  64.8295331 117.9315496  91.3856165
  64.4704212 118.4377775  91.8650349  57.0485836 117.3526535  82.2950517
  57.8701530 117.5224848  82.0532212  56.5855487 117.5073796  81.5716814
  57.1016998 117.4008268  82.1522161  55.6381168 115.3469297  93.0748946
  56.1825581 115.0060424  93.6653287  55.6918103 116.2054759  93.2170230
  55.7270287 115.4224557  93.1830819  74.8721028 128.9556750  86.0985792
  74.5574469 129.6460228  86.5306214  74.3547970 128.9001532  85.3971292
  74.7485499 129.0491638  86.0582741  69.9057359 130.4380245  83.0686265
  70.6343519 130.2596200  82.6224422  69.9952252 131.2798325  83.2793444
  70.0264021 130.5364123  83.0339783  76.8443313 132.2420737  89.9650390
  77.4869222 132.3118842  90.5512306  77.0966334 131.5749960  89.4629932
  76.9765445 132.1547086  89.9777670  73.4627908 130.9564999  90.4338508
  73.8438420 130.2743170  90.8206382  72.6591192 130.6674601  90.2514172
  73.4004370 130.8132047  90.4642564  74.0984534 131.9987578  94.2458635
  74.8438126 131.8097388  93.8322060  73.6821839 132.5245816  93.6872491
  74.1469508 132.0489723  94.1023208  72.1435455 132.4270102  84.9155895
  72.8461808 132.2277850  84.4375853  71.8779644 131.6546044  85.2224738
  72.2082087 132.2833068  84.8901336  74.2895564 127.0650771  88.0452441
  74.4079132 127.5227235  87.3119744  74.1157740 126.2596033  87.7588659
  74.2814735 127.0144544  87.8953375  71.2573128 128.9201574  88.9871103
  70.3866686 128.8940295  88.9404413  71.5113469 128.7478766  88.1696949
  71.1666688 128.8911718  88.8591240  70.3514502 131.4700762  92.2737426
  69.9646255 131.4949794  93.0550956  69.8647439 130.9042441  91.8211943
  70.2227011 131.3896513  92.3225330  70.0171644 128.3567748  94.5647686
  70.6464762 128.8928048  94.2868756  70.1857506 128.2645107  95.4161252
  70.1349438 128.4229110  94.6496214  73.5095562 130.8903636  87.5332988
  73.7145155 130.8225944  88.3789985  73.1821986 131.6962458  87.4654165
  73.4910810 130.9989577  87.6492643  76.7629250 131.4435401  87.0135753
  76.1503563 131.9305803  87.3989485  76.8593425 130.7678891  87.5573405
  76.6867147 131.4153709  87.1514612  72.0425091 130.0734588  93.9191801
  71.5465652 130.2698263  93.2283368  72.7994153 130.4727257  93.7480603
  72.0811916 130.1612322  93.7911938  70.8312283 129.9232234  85.7916948
  70.1880601 129.7729880  86.3602086  70.4911690 129.6774579  85.0266052
  70.6857360 129.8644357  85.7619963  77.0163817 129.4565956  89.0521642
  76.5094682 128.7495096  88.9842819  77.8131251 129.1259145  89.1822719
  77.0591056 129.3039108  89.0620637  68.9525305 130.8695430  94.8271052
  69.0853210 130.0726424  95.1552027  69.3370457 131.3961833  95.4069328
  69.0281633 130.8295347  94.9614555  72.0257660 127.7925756  91.4252145
  71.2203623 127.6823486  91.7419983  71.8964395 127.8938212  90.5682011
  71.8877793 127.7909426  91.3460186  11.5924472  22.8582794  71.0632914
  11.5618476  23.7127430  71.2351184  12.1905820  22.5578086  71.6219058
  11.6761629  22.9399290  71.1707716   4.7924156  21.9458445  75.8185845
   3.9362052  22.1066943  75.8694961   4.8391810  21.0750509  75.8390906
   4.6723268  21.8409247  75.8291911   8.1017873  28.2144970  85.4246301
   8.8084640  27.7197001  85.5533235   8.2905808  28.6554052  84.6948959
   8.2345779  28.2063321  85.3355346   4.6290256  31.9046532  67.0108623
   4.2941624  32.5823454  66.5752845   5.1417126  31.5151843  66.4225495
   4.6555837  31.9471110  66.8595415   4.1694547  33.8560801  72.9519735
   4.5533927  34.4247699  72.4124510   4.1053688  33.1310311  72.4725551
   4.2167974  33.8336264  72.8013597   7.6375977  24.0050489  78.4617496
   8.1831937  24.6835575  78.5211466   7.5792854  23.8637950  77.6019078
   7.7091892  24.0842490  78.3429557   9.4141046  25.4335096  69.3351224
   9.2980572  26.1842782  69.7643362  10.2096933  25.1759049  69.5847311
   9.5145635  25.5069943  69.4355316   1.2971372  29.4229119  70.6220566
   1.6187213  29.9634326  70.0181874   1.9443468  28.8525890  70.7542856
   1.4397427  29.4188294  70.5527602   3.3473080  21.4245114  70.7054953
   4.0453244  21.6033241  71.1976416   3.6625412  20.9015453  70.0825342
   3.4968417  21.3738886  70.6856963   3.5361015  27.8115559  70.6934745
   3.9754650  27.2032659  71.1389517   3.3865678  27.4322932  69.9220210
   3.5782481  27.6654030  70.6453912   1.0032658  26.4059571  77.8953570
   1.6481661  25.9132014  77.5764519   1.2434435  26.5484357  78.7219648
   1.1343243  26.3537013  77.9703103   3.5418749  29.2514476  77.5460463
   3.8241992  28.4565882  77.3247218   4.2704910  29.7295064  77.5665524
   3.6908313  29.2049073  77.5163478   7.1370352  26.1642740  67.6465514
   7.0521647  27.0203707  67.7915083   7.6254735  25.8887064  68.3147673
   7.1959249  26.2500061  67.7667595   8.0688785  22.7827534  69.1463249
   7.5400256  22.9987168  69.8060555   8.5913805  23.4763673  69.0664218
   8.0677238  22.9170671  69.2318848  13.5236838  28.3573839  74.5196293
  12.6934541  28.5684482  74.6829710  13.4746090  27.5310893  74.2438577
  13.3943573  28.2663445  74.5033659   1.5846575  31.1877693  77.3544203
   1.0673517  30.8285108  76.7505511   2.2820967  30.6639867  77.3650269
   1.6112156  31.0575381  77.2674462   5.2410167  31.6372507  83.3160376
   5.3293513  31.4498647  84.1638586   5.6699880  30.9909936  82.9165223
   5.3172270  31.5135515  83.3832127   2.8080627  30.9203667  82.2978038
   2.2451462  30.5076277  82.8217699   3.5701651  30.8456573  82.7171181
   2.8375076  30.8481067  82.4371038   4.4165607  22.9256403  66.4239638
   4.6561611  23.1334387  65.6114981   4.7381448  22.1213912  66.5328582
   4.5002765  22.8370504  66.3200191  13.0190796  21.0044239  78.3146715
  12.1819217  21.0746426  78.5494309  12.9879027  21.0068734  77.4421017
  12.8909078  21.0154466  78.2206263   7.7420982  25.1999916  73.9058606
   8.4978497  25.6331430  73.9447515   7.8483306  24.5504686  74.4793242
   7.8691152  25.1677400  73.9956632  10.7801153  29.0273193  74.6561009
  10.3436385  29.0309936  75.4119981  10.4464068  29.7078692  74.2240587
  10.6663773  29.1285649  74.7041842   5.3530227  31.0681526  85.9804160
   6.1370643  31.1812374  86.3459902   5.1526821  30.2422663  86.1762845
   5.4396252  30.9628245  86.0638546  10.6998636  16.0687021  76.8990437
  11.3424544  16.1385126  77.4852352  10.9521657  15.4016244  76.3969979
  10.8320768  15.9813370  76.9117716   5.5100620  32.9791628  79.6270615
   4.7115866  32.7391128  79.8844484   5.9586631  33.0306021  80.3737663
   5.4575231  32.9514019  79.7755539  13.9145499  25.7454113  73.5480646
  14.5761933  25.1844781  73.4476555  13.2736911  25.2506144  73.8733338
  13.9174367  25.5890522  73.5812987   4.8022307  29.0424244  65.8561570
   5.2173455  28.7109268  65.1646065   3.9714236  28.8093147  65.7281706
   4.7410316  28.9595500  65.7352417  10.2010330  26.7619495  73.2892635
  10.4365919  26.9064694  72.4619486  10.3499893  27.5261903  73.6824149
  10.2576133  26.8958550  73.2256239  12.0300787  25.6021161  71.1262239
  12.3609004  26.1348801  70.5202334  12.6033875  25.6560049  71.7824190
  12.1634466  25.6890730  71.1340021   4.5701357  26.7252073  87.5190803
   3.7774337  27.0395585  87.7043423   4.6850284  26.9403541  86.6811588
   4.4696767  26.8035910  87.4229138   7.2432676  23.4486064  71.8085819
   7.3379530  24.1875358  72.2625445   6.6191519  23.0203540  72.2420384
   7.1641706  23.4947385  71.9393967   5.4985150  26.6272277  82.4576100
   6.0724011  25.9899521  82.6124664   5.4199953  26.6276359  81.5885758
   5.5718384  26.5337388  82.3522511   7.4955697  25.2934804  65.0422771
   7.4135860  25.3636991  65.9077758   8.1335417  25.8564548  64.8506512
   7.5775534  25.3873775  65.1412721   5.9349918  17.1623992  74.6101390
   5.2306245  16.6733178  74.7685309   5.9834893  17.1746467  73.7389835
   5.8379970  17.0913640  74.5040730   3.4956869  21.0856654  79.8554571
   3.1071302  20.6610871  79.2006762   2.8311567  21.3338803  80.3631597
   3.3403797  21.0595375  79.8342439  13.1380138  20.8431658  72.6302401
  12.8816703  20.0311600  72.4400283  13.9809452  20.8509225  72.4032588
  13.2246163  20.7243656  72.5687218   4.5995807  25.3155258  68.0531378
   5.4136446  25.6070151  67.9414149   4.5354948  24.6615120  67.4789671
   4.7098546  25.2620453  67.9520215  10.8205297  27.9981254  82.4660953
  10.5843935  27.1669319  82.3473014  11.4648526  27.9466861  83.0515797
  10.8799968  27.8678942  82.5346847   1.1106530  24.0079065  67.5178579
   1.4951683  23.7886772  68.2695124   0.8618151  24.8342011  67.6479655
   1.1308603  24.0977212  67.6479655  11.8441718  27.7825703  78.5289248
  11.5387535  28.5153760  78.8902563  11.1247934  27.3763633  78.2482034
  11.6929060  27.8307436  78.5402385   2.8525187  29.2649198  74.8597476
   2.9264196  29.1024370  75.7139326   3.6694694  29.4539388  74.6157958
   2.9841546  29.2685941  74.9495502  17.5443510  24.4218704  77.8557592
  17.4768010  24.4414663  76.9860179  17.5299173  25.2649031  78.0813263
  17.5322267  24.5492438  77.7610069   7.9539857  15.8253861  81.1798681
   8.6993449  15.6363672  80.7662107   7.5377161  16.3512099  80.6212538
   8.0024831  15.8756007  81.0363255   1.3929773  32.2283941  69.5910949
   1.6828072  31.8372923  68.8670176   2.1233254  32.4100646  70.0316225
   1.5436657  32.1977755  69.5493756  15.3302127  23.1963090  76.1304186
  15.8810049  22.5631159  76.3701278  15.3146243  23.7278483  76.8219691
  15.4087324  23.1812038  76.2683045   1.9824518  27.0301687  80.6764080
   1.4836212  27.7417455  80.7548968   2.7924743  27.3502354  80.6382242
   2.0280625  27.1828536  80.6820648   9.0330534  21.4359424  75.2408783
   8.6895300  20.7149759  75.5916032   9.1323576  21.2273275  74.3987141
   8.9972577  21.2983627  75.1680463   1.5003644  35.5780714  71.4401791
   2.1527702  35.0457156  71.6692818   0.8029253  35.2249366  71.8269665
   1.4934362  35.4470237  71.5313959   9.4943563  27.8985128  70.7832771
  10.0601595  28.5578338  70.6991314   8.8471466  28.2434826  71.2549173
   9.4822319  28.0467069  70.8405527   5.9650141  30.8423912  70.2069850
   5.7236817  30.1091773  69.7996915   6.1451474  31.3910769  69.5536183
   5.9557765  30.8146303  70.0500073   1.1949461  26.1332472  71.6190772
   0.9992244  26.7407206  71.0251075   1.4183807  25.4400416  71.1382446
   1.1984103  26.1209997  71.4606853   7.5521499  19.3551008  77.1168325
   6.7132600  19.3812287  76.8806589   7.6225866  20.0021744  77.6973672
   7.4389893  19.4547134  77.1677442   5.9990777  16.2536385  71.8495941
   6.7017130  16.0544134  71.3715900   5.7334966  15.4812328  72.1564785
   6.0637410  16.1099351  71.8241383  11.4279023  24.5618995  74.4029567
  11.3412997  24.7174421  75.2564346  10.9729503  25.2057071  74.0288972
  11.3482280  24.6794750  74.4736674   5.3004839  21.8829742  73.0255127
   5.0539553  21.8025493  73.8591916   5.6289962  21.0983210  72.8317654
   5.3126083  21.7556008  73.1202650   9.1952888  28.5913102  76.8141908
   9.0567247  29.2894147  77.3190650   8.4152886  28.4361758  76.4578090
   9.0596115  28.6713268  76.8368182   7.5330973  24.8909477  83.0664290
   7.5279011  24.0189293  83.0706716   8.2391967  25.0897646  82.5933745
   7.6375977  24.7913351  82.9971325   1.2601866  24.6186461  82.4378110
   1.4045242  25.1987669  81.8021220   1.6077515  24.9962758  83.1427964
   1.3329328  24.7607165  82.4477105   3.4321784  23.8176629  80.2203241
   2.6845098  24.0107644  79.8151519   3.5863309  22.9921849  79.9827363
   3.3444211  23.7241741  80.1248647  10.6906261  27.9491355  67.5758407
  10.3113069  27.1628493  67.5687697  10.0272506  28.4978212  67.4330051
  10.5364735  27.9136179  67.5539204   2.8582922  32.9803876  80.5823627
   2.7826593  32.3112686  81.1374416   2.7872781  33.6821664  81.0964294
   2.8363529  32.9848783  80.7400476   3.6723561  17.7127180  81.1098645
   4.1296175  18.4451154  81.2371437   3.7479889  17.2893645  81.8685901
   3.7514530  17.7584418  81.2399722   3.5153169  31.5004874  71.4147233
   4.2803060  31.2314518  71.0929898   3.4131259  31.0154885  72.1317296
   3.6134664  31.3894439  71.4727061   1.5505939  19.7029284  77.9540469
   0.7602013  19.5220744  78.2757805   1.9466561  18.9256236  77.9370764
   1.4922815  19.5616745  77.9993018   6.0371829  28.5317058  63.3947183
   6.8044814  28.5917183  62.9853035   5.5903138  27.9597500  62.9103501
   6.0845257  28.4553634  63.2624893   6.9349625  27.3371714  75.6799915
   6.2594627  27.1056946  76.1813302   6.9442001  26.7292897  75.0542020
   6.8368129  27.2130639  75.6616067   4.0643769  22.1789543  82.4363968
   4.0002910  23.0399499  82.3084105   4.2040957  21.8621536  81.6359519
   4.0759239  22.2589710  82.2992181   8.9366359  30.1936846  67.9110093
   9.0186197  31.0003833  67.5871544   9.4216102  30.2132806  68.6350867
   9.0203517  30.3157509  67.9696992   2.7462863  24.8721682  76.5780171
   2.3225112  25.0726181  75.8419189   2.5707718  24.0250530  76.6904471
   2.6573743  24.7770464  76.4853861   2.2474556  36.3872195  79.0401628
   2.7370486  35.6882985  78.8577293   1.6758788  36.0896065  79.6277686
   2.2359086  36.2398419  79.1002669   4.5724452  24.7431617  70.8801507
   5.1139998  24.2401998  71.3440127   4.8871011  24.6896812  70.0690992
   4.6988849  24.6611038  70.8285319   8.4441560  28.9534265  87.9928419
   9.2576425  28.6819414  88.1533551   8.2836526  28.6541805  87.1888615
   8.5411508  28.8689191  87.8973825   2.7410902  30.1348969  68.1641535
   2.8103722  29.2763507  68.3034535   3.5199357  30.3520850  67.8360559
   2.8663752  30.0401833  68.1358692   5.7213722  19.6367922  80.9323807
   5.9355691  18.9978836  80.3787161   5.1047621  20.0813746  80.5031669
   5.6619051  19.6078066  80.7874238   7.1318390  32.5586670  72.3778028
   6.7398181  32.2553385  71.6600894   7.2871462  33.3955760  72.1882982
   7.0971979  32.6370507  72.2434525   7.8852810  21.2456987  81.8707114
   7.0729491  20.9382877  81.9520287   8.3442744  20.7655987  82.4349826
   7.8333194  21.1293479  81.9661708   7.2958064  29.1236659  72.3184059
   6.9372719  29.2951302  73.0948091   6.8096775  29.5849865  71.7612057
   7.1716761  29.2175630  72.3509328   2.0846430  24.8035824  64.8584293
   2.3738955  25.5800707  65.1327867   2.1718229  24.2924556  65.5598792
   2.1400686  24.8427743  65.0026791   4.9806317  22.6517058  86.6535817
   5.4505948  23.2759175  87.0403691   5.0268197  21.9834034  87.2129031
   5.0574193  22.6451739  86.7935888   8.4562804  30.0140555  83.2651259
   9.0942524  29.5200751  82.9313716   7.8136895  29.9417955  82.6803486
   8.4557030  29.9299563  83.1293614  10.1819804  21.8629701  77.8317175
   9.7547412  21.7756049  77.0765275   9.5445857  21.9707476  78.4172019
  10.0249411  21.8662361  77.8062617   3.6740881  16.9705226  83.7714144
   4.5014310  16.6990375  83.8272759   3.6948727  17.7666068  84.1277963
   3.7993731  17.0484980  83.8329327   8.5117060  30.7060363  79.9056616
   9.3009438  30.3549428  80.0258698   8.6860658  31.5196752  79.6433250
   8.6537342  30.7746220  79.8844484   7.3650884  14.7169920  74.4673035
   7.5700478  14.6492228  75.3130032   7.0377308  15.5228741  74.3994212
   7.3466132  14.8255860  74.5832690   2.0627036  22.0450488  76.2082003
   1.7590173  21.4906476  76.8092410   1.3606456  22.2242698  75.7210037
   1.9143245  21.9895270  76.2251708   1.1193133  19.3551008  70.7726704
   1.3952867  18.6369920  70.3604272   1.7191802  19.9535928  70.5647811
   1.2486397  19.3371379  70.6807466  10.6184572  15.2701684  73.9475800
  10.0058886  15.7572086  74.3329532  10.7148747  14.5945175  74.4913451
  10.5422470  15.2419993  74.0854658   4.6203653  17.0264525  69.0473299
   5.0747400  17.1975086  69.7721144   5.0943699  16.4132636  68.6471075
   4.7571973  16.9615411  69.0947061  14.2609600  26.3418621  79.3753316
  14.3192724  26.7905270  80.1213293  13.6276068  26.7517434  78.9383396
  14.1760895  26.4692356  79.4205865   7.9008695  31.9622163  75.8108062
   7.7028383  32.4512977  75.1164274   7.2796406  32.1663404  76.3892196
   7.7796259  32.0638701  75.7931286   1.9616673  23.7307060  70.1518307
   2.7058718  24.1181336  70.3901257   2.1077369  22.8864485  70.3158795
   2.0927258  23.6637532  70.2112276   4.9494549  19.3032533  76.0512226
   4.4754503  18.7774295  76.5617537   5.3212685  18.7562006  75.4827088
   4.9344438  19.1448530  76.0427373  11.2131280  24.3634909  77.4619007
  10.9729503  23.5241324  77.4661433  11.6923287  24.4435075  78.1859780
  11.2483463  24.2516308  77.5693809   6.8778049  20.1969088  69.1137980
   6.3501067  20.2797832  68.4243689   7.3373757  20.9386959  69.1102625
   6.8679899  20.3189750  69.0112675  13.2136467  21.1436366  75.4148266
  12.9746237  21.1032200  74.5769050  13.3770368  21.9907518  75.5413987
  13.2026770  21.2628451  75.3101748   9.8182497  25.5286315  81.3453311
  10.5416696  25.0758842  81.1664331   9.5532459  25.8090981  80.5625639
   9.8863770  25.5037284  81.2032026   6.4315131  28.7672651  68.2447637
   7.1549330  29.2330764  68.1012210   5.9915722  28.8346261  67.4945234
   6.4730823  28.8456488  68.1132418   5.6001286  25.6270193  79.4948326
   4.9858279  25.0828244  79.7896961   6.1168571  25.1134430  79.0154142
   5.5856949  25.4706602  79.4672554   4.8397583  26.6974463  77.2292625
   4.4125191  26.0724182  76.7958060   4.8322528  26.4149385  78.0551632
   4.7756725  26.5627244  77.2872452   3.1683293  17.5743218  77.4435159
   3.1925780  17.0403330  76.7547939   3.4194767  17.0660527  78.1060749
   3.2093212  17.4204122  77.4399803   1.6314228  25.8674776  84.9261197
   0.7809859  26.0046490  85.0618842   1.7942356  25.1338554  85.3708899
   1.5298092  25.7788877  85.0116797  12.2517811  24.4912726  79.8483861
  12.8435651  25.1309977  79.8802059  12.6876805  23.7935763  80.1375927
  12.4036242  24.4831076  79.8964693   4.0811201  28.9130098  80.4741754
   3.5736292  29.4665945  80.9182385   3.7837847  28.9738388  79.6560529
   3.9616086  29.0036410  80.4190211   6.2473383  17.2783418  79.3166417
   6.6728454  16.8255944  78.7049944   5.6330376  16.7243489  79.5931205
   6.2202028  17.1297394  79.2671443   6.6918981  32.8293356  68.4045698
   5.9748291  32.6554218  67.9392935   7.3425719  32.5945928  67.8721184
   6.6820831  32.7689149  68.2574916   9.2766952  21.7057945  72.1487003
   8.6058142  22.2487647  72.0200069   9.9706702  22.1752800  71.9068698
   9.2795820  21.8556216  72.0942531   3.3253686  33.8454657  77.3798761
   3.1019340  33.0873486  77.7482788   2.8363529  33.8752678  76.6579201
   3.2197135  33.7376881  77.3275502   9.4395080  18.1613828  75.0577376
   9.7922690  17.7343551  75.7323175   8.5809881  18.0764672  75.1878453
   9.3644524  18.0858569  75.1772387   7.4378345  21.4249197  79.0062219
   7.4176273  21.2432492  79.8596997   7.4857546  22.2961215  78.9821802
   7.4412986  21.5265735  79.1285513   5.3824675  28.0136389  84.9310695
   5.3420530  27.3686066  84.3455851   6.1947994  27.9573006  85.2436107
   5.4967829  27.9095356  84.8907644   1.9732143  34.0655115  74.8335846
   1.5592541  33.4029245  74.4439688   2.6579517  34.2132973  74.3131540
   2.0130515  33.9895773  74.6992343   5.3397437  33.2245200  75.5859463
   4.9413720  33.3347470  74.8180283   4.7248657  33.4327266  76.1686022
   5.1896326  33.2718768  75.5590762   3.9125339  19.8319348  68.4533602
   3.3190178  20.1536344  67.9018169   3.9500617  18.9860443  68.2454708
   3.8299728  19.7543676  68.3416374  10.8719140  13.2832240  75.9861689
  10.3650004  12.5761380  75.9182866  11.6686573  12.9525429  76.1162765
  10.9146379  13.1305391  75.9960684   6.7883156  19.7898852  71.8835353
   6.5596849  19.8131554  71.0413711   7.0481232  18.9656319  72.0030363
   6.7929344  19.6714932  71.7760550  13.0739280  27.7997167  68.9702553
  13.4572885  28.5488523  69.2000650  12.2783393  28.0462986  68.7114542
  13.0133062  27.9466861  68.9660127   4.9471454  19.5657570  83.9262708
   5.5042884  19.3371380  83.2941174   4.6232519  20.3263236  83.6497921
   4.9817864  19.6441407  83.7919205   2.6654572  22.6525223  84.8914715
   3.4165899  22.9676900  85.2054270   2.8577148  22.4504394  84.0648637
   2.8045986  22.6692605  84.8158111   1.8854571  20.4716598  66.5462932
   2.2653536  20.4896228  65.7614047   1.1447167  20.9170587  66.4253779
   1.8323409  20.5398373  66.4126500   9.5139862  18.7798790  72.1338511
   9.5134088  18.6247446  72.9922787   9.3096042  19.6261777  72.0779896
   9.4839640  18.8819410  72.2526450   7.2380714  23.4596291  75.7874718
   7.7334379  22.7419286  75.7478738   6.4280489  23.1567089  75.6729205
   7.1924607  23.3093938  75.7648444   2.6839325  27.3094105  67.9371722
   1.8750648  26.9860778  67.8905032   3.1914234  26.6027327  67.8699971
   2.6388992  27.1575421  67.9202017   9.3032533  26.2099979  78.4751846
   9.7287604  25.6874401  77.9222272   8.9389452  26.8080816  77.9540469
   9.3119135  26.2210206  78.3160856   5.8911132  29.9234243  74.8053004
   6.3622310  30.6374506  74.9742989   6.2271311  29.3232993  75.3412873
   6.0106247  29.9405707  74.9085380   7.9788117  31.5335557  86.9845076
   8.0885082  30.7444117  87.3401823   8.3079013  31.4441493  86.1819414
   8.0440522  31.4041409  86.9187467   6.5285078  29.7152177  81.5680697
   5.9806024  29.0910061  81.3000762   6.9898107  29.9046449  80.8524776
   6.5152288  29.6511227  81.4231128   9.3378943  17.7837532  78.9531889
   8.7541932  18.2846738  78.5409456   9.6583237  17.2767088  78.3196212
   9.2992118  17.7829367  78.7990396   6.0943405  30.7203250  78.0990038
   6.9141779  30.5766216  78.3606333   5.8137482  31.3449449  78.6406476
   6.1740148  30.7913602  78.2177977  22.5657055  38.3768102  71.0632914
  22.5351059  39.2312738  71.2351184  23.1638404  38.0763394  71.6219058
  22.6494213  38.4584598  71.1707716  15.7656740  37.4643753  75.8185845
  14.9094635  37.6252251  75.8694961  15.8124394  36.5935817  75.8390906
  15.6455851  37.3594555  75.8291911  10.1497880  47.0006471  71.5823076
   9.3980779  46.6222009  71.3539121  10.5983891  47.0324904  70.8341886
  10.1047546  46.9492078  71.4380578  19.0750456  43.7330278  85.4246301
  19.7817224  43.2382309  85.5533235  19.2638392  44.1739360  84.6948959
  19.2078362  43.7248629  85.3355346  15.6022840  47.4231840  67.0108623
  15.2674208  48.1008762  66.5752845  16.1149710  47.0337151  66.4225495
  15.6288421  47.4656418  66.8595415  15.1427131  49.3746109  72.9519735
  15.5266510  49.9433007  72.4124510  15.0786272  48.6495619  72.4725551
  15.1900558  49.3521572  72.8013597  18.6108561  39.5235797  78.4617496
  19.1564521  40.2020883  78.5211466  18.5525437  39.3823258  77.6019078
  18.6824475  39.6027798  78.3429557  11.7282636  47.0124863  73.8485849
  11.8292999  46.2025217  74.1582976  11.1324381  46.9181809  73.2185527
  11.6555174  46.8789891  73.8012087  20.3873630  40.9520404  69.3351224
  20.2713156  41.7028090  69.7643362  21.1829516  40.6944357  69.5847311
  20.4878219  41.0255251  69.4355316  11.5683375  51.9302452  75.2500705
  12.2120831  52.3715616  75.6396863  11.8939631  51.1255878  75.1630963
  11.7115204  51.8767647  75.2946182   4.9247680  43.0345149  73.4738182
   4.6897865  42.2012802  73.3670451   5.0633321  43.3149815  72.6599383
   4.9103343  42.9528653  73.3380537   7.2237768  35.2030880  76.3722490
   6.6042799  34.6123527  76.2032505   7.1221631  35.7942315  75.7386813
   7.1175443  35.2034962  76.2527480  12.2703955  44.9414427  70.6220566
  12.5919796  45.4819634  70.0181874  12.9176052  44.3711198  70.7542856
  12.4130010  44.9373602  70.5527602  14.3205663  36.9430422  70.7054953
  15.0185828  37.1218549  71.1976416  14.6357996  36.4200761  70.0825342
  14.4701000  36.8924194  70.6856963   6.9506901  38.7483162  78.6166059
   6.8265597  39.3345607  79.2515878   7.6025185  38.2543357  78.9178334
   7.0280550  38.7621966  78.7551988  14.5093599  43.3300867  70.6934745
  14.9487234  42.7217967  71.1389517  14.3598261  42.9508240  69.9220210
  14.5515064  43.1839338  70.6453912  11.9765242  41.9244879  77.8953570
  12.6214244  41.4317322  77.5764519  12.2167019  42.0669665  78.7219648
  12.1075827  41.8722321  77.9703103  14.5151333  44.7699784  77.5460463
  14.7974576  43.9751190  77.3247218  15.2437493  45.2480372  77.5665524
  14.6640897  44.7234381  77.5163478  12.4932527  32.3122818  74.7876228
  12.1635857  32.7633962  74.1179926  11.8177529  32.2338982  75.3349234
  12.3442963  32.3673954  74.7699451  18.1102935  41.6828048  67.6465514
  18.0254230  42.5389015  67.7915083  18.5987318  41.4072372  68.3147673
  18.1691832  41.7685369  67.7667595  19.7008935  28.3008341  73.0325838
  19.3862376  28.9911820  73.4646261  19.1835876  28.2453124  72.3311339
  19.5773405  28.3943230  72.9922787  19.0421368  38.3012842  69.1463249
  18.5132840  38.5172476  69.8060555  19.5646388  38.9948981  69.0664218
  19.0409821  38.4355979  69.2318848  24.4969421  43.8759147  74.5196293
  23.6667124  44.0869790  74.6829710  24.4478674  43.0496201  74.2438577
  24.3676157  43.7848753  74.5033659  10.9320976  42.1976059  67.9470717
  10.3478191  42.7026090  68.3536581  10.5291071  41.9718446  67.2067309
  10.7860280  42.2384307  67.8975742   6.4865005  47.9130820  74.7494388
   6.0032583  48.6381310  74.7253972   7.2988323  48.2106950  74.8604546
   6.5355752  48.0633174  74.7621668  12.5579159  46.7063001  77.3544203
  12.0406100  46.3470416  76.7505511  13.2553550  46.1825175  77.3650269
  12.5844740  46.5760689  77.2674462  16.2142751  47.1557815  83.3160376
  16.3026097  46.9683955  84.1638586  16.6432463  46.5095244  82.9165223
  16.2904853  47.0320823  83.3832127  13.7813211  46.4388975  82.2978038
  13.2184045  46.0261585  82.8217699  14.5434234  46.3641880  82.7171181
  13.8107659  46.3666375  82.4371038  15.3898191  38.4441711  66.4239638
  15.6294194  38.6519695  65.6114981  15.7114032  37.6399220  66.5328582
  15.4735348  38.3555812  66.3200191  10.6988481  30.3735107  70.2699175
  11.4534449  30.7413424  70.0316226  10.5216015  30.7474661  71.0378355
  10.7842959  30.4833295  70.3484064   9.3409202  48.4286996  74.9014668
  10.0429781  47.9138985  74.9587425   9.2606685  48.7561147  75.7061543
   9.4332962  48.4001222  75.0287460  23.9923380  36.5229547  78.3146715
  23.1551801  36.5931734  78.5494309  23.9611610  36.5254042  77.4421017
  23.8641662  36.5339774  78.2206263  10.3888109  38.6662583  84.0295083
  10.5608612  38.5568478  84.8780365  10.9257466  39.3116988  83.7926276
  10.4933113  38.7454585  84.1200180   9.0545545  32.7805426  66.9677288
   8.8721119  32.9977307  66.1418281   9.9171158  32.8944438  67.0235903
   9.1550135  32.8295324  66.8531775   8.6659977  44.6193348  74.4100276
   9.5048877  44.8516281  74.4574038   8.6971747  43.7497659  74.3407312
   8.7941695  44.5250294  74.4064921   9.2912680  45.0394223  78.7113582
   9.8310905  44.8965354  79.3816954   8.6082627  45.4390974  79.0797608
   9.2704834  45.0773894  78.8648004  14.7345265  29.7831836  70.0026312
  15.4631425  29.6047791  69.5564469  14.8240158  30.6249916  70.2133490
  14.8551927  29.8815715  69.9679830  18.7153565  40.7185224  73.9058606
  19.4711080  41.1516738  73.9447515  18.8215890  40.0689994  74.4793242
  18.8423736  40.6862708  73.9956632  21.7533736  44.5458501  74.6561009
  21.3168968  44.5495243  75.4119981  21.4196652  45.2264000  74.2240587
  21.6396356  44.6470957  74.7041842  16.3262810  46.5866834  85.9804160
  17.1103227  46.6997682  86.3459902  16.1259405  45.7607971  86.1762845
  16.4128835  46.4813553  86.0638546   4.6949826  41.2594514  78.8648003
   4.4288241  40.4433631  79.0238994   4.7088390  41.3047670  77.9943519
   4.6574548  41.1451419  78.7601485  21.6731219  31.5872329  76.8990437
  22.3157128  31.6570433  77.4852352  21.9254240  30.9201552  76.3969979
  21.8053351  31.4998678  76.9117716   8.6007573  36.0579598  65.4799761
   7.8865750  35.7717778  65.8922194   9.0851541  36.3976224  66.1206149
   8.5666936  36.0661248  65.6355396   9.4448432  34.7972892  81.5115011
   8.7520229  34.3269872  81.7575743  10.0608759  34.5711197  82.0856718
   9.4332962  34.6940024  81.6324164  16.4833203  48.4976936  79.6270615
  15.6848449  48.2576436  79.8844484  16.9319215  48.5491329  80.3737663
  16.4307815  48.4699327  79.7755539  24.8878083  41.2639421  73.5480646
  25.5494517  40.7030089  73.4476555  24.2469495  40.7691452  73.8733338
  24.8906950  41.1075830  73.5812987  15.7754890  44.5609552  65.8561570
  16.1906039  44.2294576  65.1646065  14.9446820  44.3278455  65.7281706
  15.7142899  44.4780808  65.7352417   5.1043239  42.0453293  76.1459748
   4.9218812  42.0200179  75.2932040   5.8392908  42.5152231  76.1848656
   5.1857303  42.1114656  76.0257666  21.1742913  42.2804803  73.2892635
  21.4098503  42.4250002  72.4619486  21.3232477  43.0447211  73.6824149
  21.2308717  42.4143858  73.2256239   8.1688991  38.7638296  82.6541856
   8.8928963  38.7491327  83.1406751   8.2705127  39.4733651  82.1563825
   8.2907200  38.8662999  82.6520643  23.0033370  41.1206469  71.1262239
  23.3341587  41.6534109  70.5202334  23.5766458  41.1745357  71.7824190
  23.1367049  41.2076038  71.1340021  15.5433940  42.2437381  87.5190803
  14.7506921  42.5580893  87.7043423  15.6582867  42.4588849  86.6811588
  15.4429351  42.3221218  87.4229138  18.2165259  38.9671372  71.8085819
  18.3112114  39.7060666  72.2625445  17.5924103  38.5388847  72.2420384
  18.1374289  39.0132693  71.9393967  16.4717733  42.1457585  82.4576100
  17.0456595  41.5084829  82.6124664  16.3932537  42.1461667  81.5885758
  16.5450968  42.0522696  82.3522511   5.0714150  38.9246794  76.2958814
   5.6487652  38.7883245  76.9351060   4.3728211  38.4682578  76.5504399
   5.0535171  38.8369060  76.4281104  18.4688281  40.8120112  65.0422771
  18.3868443  40.8822299  65.9077758  19.1068001  41.3749856  64.8506512
  18.5508118  40.9059083  65.1412721  11.8281452  40.5780850  74.5097297
  11.5700696  39.7452585  74.4828597  11.8829935  40.8038463  73.6689798
  11.7981230  40.4878621  74.3817434  16.9082502  32.6809300  74.6101390
  16.2038829  32.1918486  74.7685309  16.9567476  32.6931775  73.7389835
  16.8112553  32.6098948  74.5040730  10.8016164  38.1318612  74.9962192
  10.2265755  38.2910781  75.6326153  10.4251840  37.4954021  74.5330643
  10.6618976  38.0616425  75.0216751  14.4689453  36.6041961  79.8554571
  14.0803885  36.1796179  79.2006762  13.8044151  36.8524111  80.3631597
  14.3136380  36.5780683  79.8342439  24.1112722  36.3616966  72.6302401
  23.8549286  35.5496908  72.4400283  24.9542036  36.3694533  72.4032588
  24.1978747  36.2428964  72.5687218  18.2915814  30.3016590  77.3678555
  18.6726326  29.6194761  77.7546429  17.4879098  30.0126192  77.1854219
  18.2292276  30.1583639  77.3982611  15.5728391  40.8340566  68.0531378
  16.3869030  41.1255459  67.9414149  15.5087532  40.1800428  67.4789671
  15.6831130  40.7805761  67.9520215  21.7937881  43.5166562  82.4660953
  21.5576518  42.6854627  82.3473014  22.4381110  43.4652169  83.0515797
  21.8532552  43.3864250  82.5346847  11.4436299  44.3062084  73.1803690
  12.0810246  44.0673831  73.7255483  11.8691371  44.5099242  72.4456850
  11.6012465  44.3013094  73.1520847   6.1348941  46.5450420  77.0637993
   6.1753087  46.8165271  76.2357773   6.6943465  47.0692328  77.4795781
   6.2232287  46.6626175  77.0029882  12.0839114  39.5264373  67.5178579
  12.4684267  39.3072080  68.2695124  11.8350734  40.3527319  67.6479655
  12.1041187  39.6162520  67.6479655  12.2507654  32.8070788  87.2341163
  11.9361096  33.5770351  86.9710726  11.9297587  32.2441045  86.6493390
  12.1566574  32.8381057  87.1082513  22.8174302  43.3011011  78.5289248
  22.5120119  44.0339068  78.8902563  22.0980517  42.8948940  78.2482034
  22.6661644  43.3492744  78.5402385  13.8257771  44.7834506  74.8597476
  13.8996779  44.6209678  75.7139326  14.6427277  44.9724696  74.6157958
  13.9574130  44.7871248  74.9495502  28.5176094  39.9404012  77.8557592
  28.4500594  39.9599971  76.9860179  28.5031756  40.7834339  78.0813263
  28.5054850  40.0677746  77.7610069   7.5863528  45.1292369  71.8891919
   6.7601645  45.3754106  71.7626198   7.6475519  45.0504450  72.7553978
   7.4737695  45.1537318  71.9980864   9.8039551  31.1961310  72.8487360
   8.9361977  31.2683909  72.9144969  10.0914756  31.9983389  73.0375335
   9.7179300  31.3255457  72.8862126  18.9272440  31.3439169  81.1798681
  19.6726032  31.1548980  80.7662107  18.5109745  31.8697407  80.6212538
  18.9757414  31.3941315  81.0363255  12.3662357  47.7469249  69.5910949
  12.6560655  47.3558231  68.8670176  13.0965838  47.9285954  70.0316225
  12.5169241  47.7163063  69.5493756  26.3034711  38.7148398  76.1304186
  26.8542633  38.0816467  76.3701278  26.2878826  39.2463791  76.8219691
  26.3819907  38.6997346  76.2683045  12.9557102  42.5486995  80.6764080
  12.4568796  43.2602763  80.7548968  13.7657326  42.8687662  80.6382242
  13.0013209  42.7013844  80.6820648  10.3068272  49.7236632  72.6571099
  10.0868568  49.4333986  73.4497766  10.0862794  49.0651587  72.1289011
  10.2415866  49.5836340  72.6960008   9.2185219  41.8109948  74.9226801
   8.9298468  41.1847419  75.4572528  10.0868568  41.7530236  74.9891481
   9.3045471  41.7097492  75.0117755  20.0063117  36.9544732  75.2408783
  19.6627883  36.2335067  75.5916032  20.1056160  36.7458583  74.3987141
  19.9705160  36.8168935  75.1680463  12.4736228  51.0966022  71.4401791
  13.1260286  50.5642464  71.6692818  11.7761837  50.7434674  71.8269665
  12.4666946  50.9655545  71.5313959   9.4217493  43.4505199  70.8469166
  10.1763461  43.8318238  71.0604628   8.8288106  43.9016343  71.3015862
   9.4454206  43.5734027  70.9452044  20.4676146  43.4170436  70.7832771
  21.0334179  44.0763645  70.6991314  19.8204050  43.7620134  71.2549173
  20.4554903  43.5652377  70.8405527  11.8824160  35.4068040  85.9726378
  11.0723936  35.7125819  85.8616220  12.3598847  36.1273622  86.0878962
  11.8327639  35.5582641  85.9733449  10.7415719  44.6213761  76.2209281
  10.2196473  44.7614052  76.9061146  11.1289740  43.8624425  76.4111399
  10.7219420  44.5299284  76.3510358   7.7306903  34.6719569  70.2904236
   7.4431699  34.3020840  69.5536183   8.4177372  35.1414425  70.0287941
   7.7895801  34.6866539  70.1419312  16.9382724  46.3609220  70.2069850
  16.6969400  45.6277080  69.7996915  17.1184057  46.9096077  69.5536183
  16.9290348  46.3331611  70.0500073  12.1682045  41.6517780  71.6190772
  11.9724828  42.2592514  71.0251075  12.3916391  40.9585724  71.1382446
  12.1716686  41.6395305  71.4606853  10.5660575  38.5372517  71.7371641
  11.2883227  38.7013676  71.2775447  10.0868568  39.2582182  71.6310980
  10.6024306  38.6670747  71.6537255  18.5254083  34.8736316  77.1168325
  17.6865183  34.8997595  76.8806589  18.5958450  35.5207052  77.6973672
  18.4122476  34.9732442  77.1677442   8.2168192  40.9430590  80.8425780
   8.7289289  41.2214843  80.1934540   7.9304534  41.6819884  81.2088593
   8.2503055  41.0932944  80.8015658  16.9723361  31.7721693  71.8495941
  17.6749714  31.5729442  71.3715900  16.7067550  30.9997636  72.1564785
  17.0369993  31.6284659  71.8241383  22.4011607  40.0804303  74.4029567
  22.3145581  40.2359729  75.2564346  21.9462086  40.7242379  74.0288972
  22.3214863  40.1980058  74.4736674   5.3035098  35.4500782  71.1389517
   5.4051235  36.2526943  71.4670492   6.0990985  35.2488118  70.8412597
   5.4363004  35.5386681  71.1424872  11.7351917  33.0356978  80.9026822
  11.5435114  33.0512113  81.7526246  12.5850513  33.2320653  80.8793477
  11.8327639  33.0671330  81.0250117   6.1198830  35.5647960  78.8810638
   5.9784322  34.7131901  79.0055146   6.4039394  35.6076621  78.0572844
   6.1406676  35.4447710  78.7778263  16.2737423  37.4015050  73.0255127
  16.0272137  37.3210801  73.8591916  16.6022546  36.6168518  72.8317654
  16.2858666  37.2741315  73.1202650  20.1685471  44.1098409  76.8141908
  20.0299831  44.8079455  77.3190650  19.3885469  43.9547066  76.4578090
  20.0328698  44.1898576  76.8368182  18.5063557  40.4094785  83.0664290
  18.5011595  39.5374601  83.0706716  19.2124550  40.6082954  82.5933745
  18.6108561  40.3098659  82.9971325  12.2334450  40.1371769  82.4378110
  12.3777826  40.7172977  81.8021220  12.5810098  40.5148065  83.1427964
  12.3061911  40.2792473  82.4477105  14.4054367  39.3361937  80.2203241
  13.6577681  39.5292951  79.8151519  14.5595892  38.5107157  79.9827363
  14.3176795  39.2427049  80.1248647  11.3062205  48.3274541  79.3039137
  11.4551769  47.7677456  78.6512541  12.0862207  48.4066542  79.6871655
  11.4436298  48.2560106  79.2636086  21.6638844  43.4676663  67.5758407
  21.2845653  42.6813801  67.5687697  21.0005090  44.0163520  67.4330051
  21.5097319  43.4321487  67.5539204  13.8315505  48.4989183  80.5823627
  13.7559177  47.8297994  81.1374416  13.7605365  49.2006972  81.0964294
  13.8096112  48.5034091  80.7400476  14.6456144  33.2312488  81.1098645
  15.1028758  33.9636462  81.2371437  14.7212473  32.8078953  81.8685901
  14.7247114  33.2769726  81.2399722   6.8889135  33.4778308  82.1988089
   6.3531325  32.8658666  82.5148856   6.9506900  34.0526444  82.8521755
   6.8184768  33.4725235  82.3423516  19.1183470  26.4102363  74.9792488
  19.2367038  26.8678826  74.2459791  18.9445646  25.6047624  74.6928706
  19.1102641  26.3596135  74.8293422  14.4885752  47.0190182  71.4147233
  15.2535643  46.7499826  71.0929898  14.3863842  46.5340193  72.1317296
  14.5867248  46.9079747  71.4727061  12.5238522  35.2214592  77.9540469
  11.7334597  35.0406052  78.2757805  12.9199145  34.4441544  77.9370764
  12.4655398  35.0802053  77.9993018  17.0104413  44.0502366  63.3947183
  17.7777398  44.1102491  62.9853035  16.5635722  43.4782807  62.9103501
  17.0577840  43.9738942  63.2624893  17.9082208  42.8557022  75.6799915
  17.2327210  42.6242254  76.1813302  17.9174585  42.2478205  75.0542020
  17.8100713  42.7315947  75.6616067  15.0376352  37.6974851  82.4363968
  14.9735494  38.5584807  82.3084105  15.1773540  37.3806844  81.6359519
  15.0491822  37.7775018  82.2992181  19.9098943  45.7122154  67.9110093
  19.9918780  46.5189140  67.5871544  20.3948685  45.7318114  68.6350867
  19.9936101  45.8342817  67.9696992  13.7195446  40.3906990  76.5780171
  13.2957695  40.5911489  75.8419189  13.5440301  39.5435838  76.6904471
  13.6306327  40.2955772  76.4853861  13.2207140  51.9057503  79.0401628
  13.7103070  51.2068292  78.8577293  12.6491372  51.6081373  79.6277686
  13.2091670  51.7583727  79.1002669   9.0077891  40.8859042  72.0108144
   9.1642510  40.8205844  72.8664136   9.3478484  41.6607594  71.7986823
   9.0811126  40.9908240  72.1062738  15.5457036  40.2616925  70.8801507
  16.0872581  39.7587306  71.3440127  15.8603595  40.2082120  70.0690992
  15.6721433  40.1796346  70.8285319  19.4174143  44.4719573  87.9928419
  20.2309009  44.2004721  88.1533551  19.2569110  44.1727113  87.1888615
  19.5144092  44.3874499  87.8973825  13.7143486  45.6534277  68.1641535
  13.7836306  44.7948815  68.3034535  14.4931941  45.8706158  67.8360559
  13.8396336  45.5587141  68.1358692  16.6946305  35.1553230  80.9323807
  16.9088275  34.5164144  80.3787161  16.0780204  35.5999054  80.5031669
  16.6351635  35.1263373  80.7874238  18.1050973  48.0771978  72.3778028
  17.7130765  47.7738693  71.6600894  18.2604045  48.9141068  72.1882982
  18.0704563  48.1555815  72.2434525   5.5812153  38.0693992  72.3268911
   5.9611118  38.4878537  71.6629178   5.0067518  38.6507448  72.6337754
   5.5523478  38.2171851  72.2745652  18.8585393  36.7642295  81.8707114
  18.0462075  36.4568185  81.9520287  19.3175328  36.2841295  82.4349826
  18.8065778  36.6478787  81.9661708  18.2690648  44.6421967  72.3184059
  17.9105303  44.8136610  73.0948091  17.7829359  45.1035173  71.7612057
  18.1449345  44.7360938  72.3509328  16.0861034  28.2653165  75.9211150
  15.2154592  28.2391887  75.8744459  16.3401375  28.0930358  75.1036996
  15.9954594  28.2363309  75.7931287  13.0579013  40.3221132  64.8584293
  13.3471538  41.0986015  65.1327867  13.1450812  39.8109864  65.5598792
  13.1133270  40.3613051  65.0026791  15.9538901  38.1702366  86.6535817
  16.4238532  38.7944483  87.0403691  16.0000781  37.5019342  87.2129031
  16.0306777  38.1637047  86.7935888  13.1110174  30.2759394  77.3784620
  12.5948663  29.5839585  77.5036199  12.5504103  30.9430171  77.3247219
  12.9516688  30.2722651  77.3890686  15.1802408  30.8152354  79.2077473
  14.7934161  30.8401385  79.9891003  14.6935345  30.2494033  78.7551990
  15.0514917  30.7348105  79.2565377  19.4295387  45.5325863  83.2651259
  20.0675108  45.0386059  82.9313716  18.7869479  45.4603263  82.6803486
  19.4289614  45.4484871  83.1293614  21.1552387  37.3815009  77.8317175
  20.7279995  37.2941357  77.0765275  20.5178440  37.4892784  78.4172019
  20.9981995  37.3847669  77.8062617  14.8459550  27.7019339  81.4987733
  15.4752668  28.2379639  81.2208803  15.0145412  27.6096698  82.3501299
  14.9637344  27.7680702  81.5836261  14.6473464  32.4890534  83.7714144
  15.4746894  32.2175683  83.8272759  14.6681311  33.2851376  84.1277963
  14.7726315  32.5670288  83.8329327  19.4849644  46.2245671  79.9056616
  20.2742022  45.8734736  80.0258698  19.6593242  47.0382060  79.6433250
  19.6269926  46.2931528  79.8844484   9.2242954  39.6354397  76.9584405
   8.3830961  39.5358271  77.1663299   9.4332962  40.4049877  77.3098726
   9.1307647  39.7346440  77.0411720   6.7018521  37.2573934  74.7869156
   6.3075219  37.3316946  74.0119265   6.1458638  37.6431880  75.3377518
   6.5621334  37.3255708  74.7536816  18.3383468  30.2355228  74.4673035
  18.5433061  30.1677536  75.3130032  18.0109892  31.0414049  74.3994212
  18.3198716  30.3441168  74.5832690  13.0359619  37.5635796  76.2082003
  12.7322757  37.0091784  76.8092410  12.3339040  37.7428006  75.7210037
  12.8875829  37.5080578  76.2251708  12.0925716  34.8736316  70.7726704
  12.3685451  34.1555228  70.3604272  12.6924386  35.4721236  70.5647811
  12.2218981  34.8556687  70.6807466  11.0977970  44.7785517  80.9154100
  10.9898325  44.7887579  81.7816158  11.3073752  45.6040297  80.7259054
  11.1128081  44.9026592  81.0158192  21.5917156  30.7886992  73.9475800
  20.9791469  31.2757394  74.3329532  21.6881331  30.1130483  74.4913451
  21.5155053  30.7605301  74.0854658  15.5936237  32.5449833  69.0473299
  16.0479983  32.7160394  69.7721144  16.0676283  31.9317944  68.6471075
  15.7304557  32.4800718  69.0947061   9.1151762  42.0298159  78.3776038
   8.5239695  42.6707657  78.3479053   9.8772786  42.4535776  78.3507337
   9.1400023  42.1873998  78.3691185   9.5112385  33.1900157  79.0444056
   9.9713867  33.2639086  79.7819179   9.5568492  33.9881411  78.6943877
   9.5862940  33.3194304  79.1016812  11.1595735  33.8566852  83.6116083
  10.7681300  33.2100199  84.0471860  11.3281597  34.4478287  84.2310338
  11.1266645  33.8481120  83.7678789  25.2342184  41.8603929  79.3753316
  25.2925307  42.3090578  80.1213293  24.6008651  42.2702742  78.9383396
  25.1493479  41.9877664  79.4205865  18.8741278  47.4807471  75.8108062
  18.6760967  47.9698285  75.1164274  18.2528989  47.6848712  76.3892196
  18.7528843  47.5824009  75.7931286  12.9349257  39.2492368  70.1518307
  13.6791302  39.6366644  70.3901257  13.0809953  38.4049793  70.3158795
  13.0659842  39.1822840  70.2112276  14.8528832  31.0442626  75.1850168
  14.0064877  31.2165434  75.0591518  14.8499965  30.2391970  75.5215996
  14.7275982  30.9503655  75.2161295  15.9227133  34.8217841  76.0512226
  15.4487087  34.2959603  76.5617537  16.2945268  34.2747314  75.4827088
  15.9077022  34.6633838  76.0427373   6.3000163  36.8189348  81.4195772
   7.1625776  36.7185057  81.3333102   5.9691946  36.2384057  80.8581344
   6.3785359  36.7180974  81.3241178  22.1863863  39.8820217  77.4619007
  21.9462086  39.0426632  77.4661433  22.6655870  39.9620383  78.1859780
  22.2216047  39.7701616  77.5693809  17.8510632  35.7154395  69.1137980
  17.3233651  35.7983139  68.4243689  18.3106340  36.4572267  69.1102625
  17.8412483  35.8375058  69.0112675  24.1869050  36.6621674  75.4148266
  23.9478820  36.6217508  74.5769050  24.3502951  37.5092826  75.5413987
  24.1759354  36.7813759  75.3101748  20.7915080  41.0471623  81.3453311
  21.5149279  40.5944149  81.1664331  20.5265043  41.3276289  80.5625639
  20.8596354  41.0222592  81.2032026   9.6601949  35.6431797  78.0806190
   9.0355019  35.6550189  77.4732143   9.3247544  36.1191972  78.7297430
   9.5187441  35.7150314  78.0862759   9.8443697  33.9856915  64.1378875
   9.4956502  34.6376640  64.6010424   9.3640143  33.9714028  63.4102746
   9.7213941  34.0799969  64.0989966   6.3727624  43.7032257  79.5209954
   5.8427549  43.0124696  79.5704929   6.6452718  43.6942442  78.6922663
   6.3352347  43.5999389  79.4057370  17.4047715  44.2857959  68.2447637
  18.1281914  44.7516072  68.1012210  16.9648306  44.3531569  67.4945234
  17.4463407  44.3641796  68.1132418  16.5733870  41.1455501  79.4948326
  15.9590863  40.6013552  79.7896961  17.0901155  40.6319738  79.0154142
  16.5589532  40.9891910  79.4672554  15.8130167  42.2159771  77.2292625
  15.3857775  41.5909490  76.7958060  15.8055111  41.9334693  78.0551632
  15.7489308  42.0812552  77.2872452   8.9292694  37.2524944  80.2981059
   9.0886181  36.4968269  80.7032780   8.7485588  37.8015884  80.9521796
   8.9258053  37.2218758  80.4543764  16.8712997  29.4186180  80.8531848
  16.3753558  29.6149854  80.1623415  17.6282059  29.8178848  80.6820650
  16.9099822  29.5063914  80.7251985  14.1415877  33.0928526  77.4435159
  14.1658364  32.5588638  76.7547939  14.3927350  32.5845835  78.1060749
  14.1825795  32.9389430  77.4399803   1.6523467  40.3760021  76.8778303
   1.5466916  40.3306865  76.0130387   0.9023687  40.7213801  77.1592587
   1.5259069  40.4200929  76.7915632  10.4217199  31.8199344  76.8240903
  10.4615571  32.3208551  77.5375610   9.5966864  31.9109738  76.5546826
  10.3056725  31.9081160  76.8891441  12.6046812  41.3860084  84.9261197
  11.7542442  41.5231798  85.0618842  12.7674940  40.6523862  85.3708899
  12.5030675  41.2974185  85.0116797  11.8431562  38.3359854  79.1214802
  11.0123492  38.5033672  78.9150050  11.7883080  37.9595805  79.9063687
  11.7120977  38.3049585  79.2063330   9.6515346  31.8268747  84.7571213
  10.2768049  31.2830880  85.0300645   9.1965826  31.3463664  84.1879003
   9.6763606  31.6758228  84.7132806  10.2167606  36.6115445  69.6504920
  10.3570567  37.1087910  70.3533561  10.7150139  35.9101740  69.7919133
  10.3108687  36.5817424  69.7756499  10.2467829  37.4782557  66.9797496
  10.8812908  38.0742982  66.9146958  10.3293439  37.1786014  67.7943367
  10.3524380  37.5223465  67.0900583  23.2250394  40.0098034  79.8483861
  23.8168235  40.6495285  79.8802059  23.6609389  39.3121071  80.1375927
  23.3768826  40.0016384  79.8964693  11.8246811  33.4096532  66.9542938
  12.1462652  32.9299614  66.3002201  12.0873755  34.2196178  66.7633750
  11.9112837  33.4586430  66.8298430  15.0543784  44.4315406  80.4741754
  14.5468875  44.9851253  80.9182385  14.7570430  44.4923696  79.6560529
  14.9348669  44.5221717  80.4190211  17.2205966  32.7968726  79.3166417
  17.6461038  32.3441252  78.7049944  16.6062959  32.2428797  79.5931205
  17.1934612  32.6482702  79.2671443   6.7520816  39.6750397  70.2487042
   7.2613046  40.2714905  70.6298348   7.2255089  39.4076371  69.5663462
   6.8964192  39.7236213  70.2041565  17.6651564  48.3478664  68.4045698
  16.9480874  48.1739526  67.9392935  18.3158302  48.1131236  67.8721184
  17.6553415  48.2874456  68.2574916  15.6600189  29.2683826  72.7256994
  15.0168507  29.1181472  73.2942133  15.3199596  29.0226171  71.9606099
  15.5145267  29.2095948  72.6960010  20.2499536  37.2243253  72.1487003
  19.5790726  37.7672955  72.0200069  20.9439286  37.6938108  71.9068698
  20.2528403  37.3741524  72.0942531  14.2986269  49.3639965  77.3798761
  14.0751924  48.6058794  77.7482788  13.8096113  49.3937986  76.6579201
  14.1929718  49.2562189  77.3275502  20.4127663  33.6799136  75.0577376
  20.7655273  33.2528859  75.7323175  19.5542465  33.5949980  75.1878453
  20.3377108  33.6043877  75.1772387   9.1111348  36.3106656  73.1160223
   8.3923337  36.7270788  73.3833086   9.4823710  36.8760895  72.5651861
   9.0603280  36.4555937  73.0743030  18.4110929  36.9434505  79.0062219
  18.3908856  36.7617800  79.8596997  18.4590130  37.8146523  78.9821802
  18.4145570  37.0451043  79.1285513  16.3557259  43.5321697  84.9310695
  16.3153114  42.8871374  84.3455851  17.1680577  43.4758314  85.2436107
  16.4700412  43.4280664  84.8907644  12.9464726  49.5840423  74.8335846
  12.5325125  48.9214553  74.4439688  13.6312101  49.7318281  74.3131540
  12.9863098  49.5081081  74.6992343  16.3130021  48.7430508  75.5859463
  15.9146304  48.8532778  74.8180283  15.6981240  48.9512574  76.1686022
  16.1628910  48.7904076  75.5590762  14.8857923  35.3504656  68.4533602
  14.2922762  35.6721652  67.9018169  14.9233200  34.5045751  68.2454708
  14.8032312  35.2728984  68.3416374  21.8451723  28.8017548  75.9861689
  21.3382588  28.0946688  75.9182866  22.6419157  28.4710737  76.1162765
  21.8878962  28.6490699  75.9960684  17.7615739  35.3084160  71.8835353
  17.5329432  35.3316862  71.0413711  18.0213815  34.4841627  72.0030363
  17.7661927  35.1900240  71.7760550  12.0434968  37.1618633  81.4860453
  11.5313871  36.5539816  81.8445484  11.8714464  37.8775226  81.9534428
  11.9424605  37.1781933  81.6076676   6.8900682  35.6056209  84.1362815
   6.7203273  36.2657583  83.5911021   6.4466632  35.8162770  84.8575304
   6.8000016  35.7342191  84.1624444  10.8160502  33.8460707  73.1789548
  11.2917868  34.2077786  72.5439729  10.3149101  34.5017174  73.4589691
  10.8125861  33.9954895  73.1266289  24.0471863  43.3182475  68.9702553
  24.4305469  44.0673831  69.2000650  23.2515977  43.5648294  68.7114542
  23.9865645  43.4652168  68.9660127  15.9204038  35.0842878  83.9262708
  16.4775468  34.8556687  83.2941174  15.5965103  35.8448544  83.6497921
  15.9550448  35.1626715  83.7919205   3.7902747  38.5103074  79.3951304
   3.2429466  37.8403720  79.5132173   4.5795125  38.1432922  79.4594772
   3.8254930  38.3568061  79.4220005  13.6387155  38.1710531  84.8914715
  14.3898482  38.4862208  85.2054270  13.8309732  37.9689702  84.0648637
  13.7778569  38.1877913  84.8158111  12.8587155  35.9901906  66.5462932
  13.2386120  36.0081536  65.7614047  12.1179751  36.4355895  66.4253779
  12.8055993  36.0583681  66.4126500  20.4872445  34.2984098  72.1338511
  20.4866672  34.1432754  72.9922787  20.2828625  35.1447085  72.0779896
  20.4572223  34.4004718  72.2526450   2.5489716  37.7223882  76.5497327
   2.3711477  37.2700491  77.2752243   2.2608738  38.5250043  76.7335805
   2.4802669  37.7746440  76.6840830  18.2113297  38.9781599  75.7874718
  18.7066963  38.2604594  75.7478738  17.4013073  38.6752397  75.6729205
  18.1657191  38.8279246  75.7648444  13.6571909  42.8279413  67.9371722
  12.8483232  42.5046086  67.8905032  14.1646818  42.1212635  67.8699971
  13.6121576  42.6760729  67.9202017   4.2862186  40.2551606  73.6619086
   3.4207706  40.2437296  73.5501858   4.3861002  40.0681829  74.5090226
   4.1736353  40.2257667  73.7708031  20.2765116  41.7285287  78.4751846
  20.7020188  41.2059709  77.9222272  19.9122036  42.3266124  77.9540469
  20.2851719  41.7395514  78.3160856   9.9119196  50.0249504  77.2349192
  10.2265755  50.8385893  77.2426974  10.3212609  49.6399723  77.9031351
  10.0187294  50.0878207  77.3353284  16.8643716  45.4419551  74.8053004
  17.3354894  46.1559814  74.9742989  17.2003894  44.8418301  75.3412873
  16.9838831  45.4591015  74.9085380  18.9520700  47.0520864  86.9845076
  19.0617666  46.2629425  87.3401823  19.2811597  46.9626801  86.1819414
  19.0173106  46.9226717  86.9187467  13.7813211  30.2147022  81.7611099
  13.9141116  29.4178015  82.0892074  14.1658363  30.7413425  82.3409374
  13.8569539  30.1746938  81.8954602  17.5017662  45.2337485  81.5680697
  16.9538608  44.6095369  81.3000762  17.9630691  45.4231757  80.8524776
  17.4884871  45.1696535  81.4231128  16.8545566  27.1377348  78.3592192
  16.0491529  27.0275077  78.6760030  16.7252301  27.2389803  77.5022058
  16.7165699  27.1361018  78.2800232  20.3111526  33.3022840  78.9531889
  19.7274515  33.8032046  78.5409456  20.6315820  32.7952396  78.3196212
  20.2724702  33.3014675  78.7990396  12.8506325  32.2163435  69.2290564
  13.6722020  32.3861747  68.9872259  12.3875976  32.3710695  68.5056861
  12.9037488  32.2645167  69.0862208  11.4401657  30.2106197  80.0088992
  11.9846070  29.8697324  80.5993334  11.4938593  31.0691658  80.1510277
  11.5290777  30.2861456  80.1170866   7.2532216  43.9722613  76.8827800
   7.8577074  43.9318447  76.2541621   7.0459529  44.8193765  76.9131856
   7.3121113  44.0910615  76.7943917  17.0675988  46.2388558  78.0990038
  17.8874362  46.0951524  78.3606333  16.7870066  46.8634757  78.6406476
  17.1472732  46.3098910  78.2177977   2.4883498  42.9557230  76.7526724
   2.3907776  42.1453502  77.0616780   3.2712368  42.9349024  76.3672992
   2.5899635  42.8324320  76.7413586  33.5389639  53.8953410  71.0632914
  33.5083643  54.7498046  71.2351184  34.1370987  53.5948702  71.6219058
  33.6226797  53.9769906  71.1707716  26.7389324  52.9829061  75.8185845
  25.8827219  53.1437559  75.8694961  26.7856977  52.1121125  75.8390906
  26.6188435  52.8779863  75.8291911  21.1230463  62.5191779  71.5823076
  20.3713363  62.1407317  71.3539121  21.5716475  62.5510212  70.8341886
  21.0780130  62.4677386  71.4380578  30.0483040  59.2515586  85.4246301
  30.7549807  58.7567617  85.5533235  30.2370975  59.6924668  84.6948959
  30.1810946  59.2433937  85.3355346  26.5755423  62.9417148  67.0108623
  26.2406792  63.6194070  66.5752845  27.0882294  62.5522459  66.4225495
  26.6021004  62.9841726  66.8595415  26.1159714  64.8931417  72.9519735
  26.4999094  65.4618315  72.4124510  26.0518856  64.1680927  72.4725551
  26.1633142  64.8706880  72.8013597  29.5841145  55.0421105  78.4617496
  30.1297105  55.7206191  78.5211466  29.5258021  54.9008565  77.6019078
  29.6557059  55.1213106  78.3429557  22.7015219  62.5310171  73.8485849
  22.8025582  61.7210525  74.1582976  22.1056965  62.4367117  73.2185527
  22.6287758  62.3975199  73.8012087  31.3606213  56.4705712  69.3351224
  31.2445739  57.2213398  69.7643362  32.1562100  56.2129665  69.5847311
  31.4610803  56.5440559  69.4355316  22.5415959  67.4487760  75.2500705
  23.1853414  67.8900924  75.6396863  22.8672215  66.6441186  75.1630963
  22.6847788  67.3952955  75.2946182  15.8980264  58.5530457  73.4738182
  15.6630448  57.7198110  73.3670451  16.0365904  58.8335123  72.6599383
  15.8835926  58.4713961  73.3380537  18.1970351  50.7216188  76.3722490
  17.5775383  50.1308835  76.2032505  18.0954215  51.3127623  75.7386813
  18.0908027  50.7220270  76.2527480  23.2436539  60.4599735  70.6220566
  23.5652380  61.0004942  70.0181874  23.8908635  59.8896506  70.7542856
  23.3862594  60.4558910  70.5527602  25.2938247  52.4615730  70.7054953
  25.9918411  52.6403857  71.1976416  25.6090579  51.9386069  70.0825342
  25.4433584  52.4109502  70.6856963  17.9239484  54.2668470  78.6166059
  17.7998181  54.8530915  79.2515878  18.5757769  53.7728665  78.9178334
  18.0013133  54.2807274  78.7551988  25.4826182  58.8486175  70.6934745
  25.9219818  58.2403275  71.1389517  25.3330845  58.4693548  69.9220210
  25.5247648  58.7024646  70.6453912  22.9497825  57.4430186  77.8953570
  23.5946828  56.9502630  77.5764519  23.1899602  57.5854973  78.7219648
  23.0808410  57.3907629  77.9703103  25.4883917  60.2885092  77.5460463
  25.7707159  59.4936498  77.3247218  26.2170077  60.7665680  77.5665524
  25.6373480  60.2419689  77.5163478  23.4665110  47.8308126  74.7876228
  23.1368440  48.2819270  74.1179926  22.7910112  47.7524290  75.3349234
  23.3175547  47.8859261  74.7699451  29.0835519  57.2013356  67.6465514
  28.9986814  58.0574323  67.7915083  29.5719902  56.9257680  68.3147673
  29.1424416  57.2870677  67.7667595  30.6741518  43.8193649  73.0325838
  30.3594959  44.5097128  73.4646261  30.1568460  43.7638431  72.3311339
  30.5505989  43.9128538  72.9922787  30.0153952  53.8198150  69.1463249
  29.4865423  54.0357784  69.8060555  30.5378972  54.5134289  69.0664218
  30.0142405  53.9541287  69.2318848  35.4702005  59.3944455  74.5196293
  34.6399708  59.6055098  74.6829710  35.4211257  58.5681509  74.2438577
  35.3408740  59.3034061  74.5033659  21.9053560  57.7161367  67.9470717
  21.3210775  58.2211398  68.3536581  21.5023655  57.4903754  67.2067309
  21.7592864  57.7569615  67.8975742  17.4597588  63.4316128  74.7494388
  16.9765167  64.1566618  74.7253972  18.2720907  63.7292258  74.8604546
  17.5088336  63.5818482  74.7621668  23.5311742  62.2248309  77.3544203
  23.0138684  61.8655724  76.7505511  24.2286134  61.7010483  77.3650269
  23.5577324  62.0945997  77.2674462  27.1875334  62.6743123  83.3160376
  27.2758680  62.4869263  84.1638586  27.6165047  62.0280552  82.9165223
  27.2637437  62.5506130  83.3832127  24.7545794  61.9574283  82.2978038
  24.1916629  61.5446893  82.8217699  25.5166818  61.8827188  82.7171181
  24.7840243  61.8851683  82.4371038  26.3630774  53.9627019  66.4239638
  26.6026778  54.1705003  65.6114981  26.6846615  53.1584528  66.5328582
  26.4467932  53.8741120  66.3200191  21.6721064  45.8920415  70.2699175
  22.4267032  46.2598732  70.0316226  21.4948599  46.2659969  71.0378355
  21.7575543  46.0018603  70.3484064  20.3141786  63.9472304  74.9014668
  21.0162365  63.4324293  74.9587425  20.2339269  64.2746455  75.7061543
  20.4065546  63.9186530  75.0287460  34.9655963  52.0414855  78.3146715
  34.1284384  52.1117042  78.5494309  34.9344194  52.0439350  77.4421017
  34.8374246  52.0525082  78.2206263  21.3620692  54.1847891  84.0295083
  21.5341196  54.0753785  84.8780365  21.8990050  54.8302296  83.7926276
  21.4665696  54.2639893  84.1200180  20.0278129  48.2990734  66.9677288
  19.8453702  48.5162615  66.1418281  20.8903742  48.4129746  67.0235903
  20.1282719  48.3480632  66.8531775  19.6392561  60.1378656  74.4100276
  20.4781460  60.3701589  74.4574038  19.6704330  59.2682967  74.3407312
  19.7674279  60.0435602  74.4064921  20.2645264  60.5579531  78.7113582
  20.8043489  60.4150662  79.3816954  19.5815210  60.9576282  79.0797608
  20.2437418  60.5959202  78.8648004  25.7077848  45.3017144  70.0026312
  26.4364009  45.1233099  69.5564469  25.7972741  46.1435224  70.2133490
  25.8284510  45.4001023  69.9679830  29.6886149  56.2370532  73.9058606
  30.4443664  56.6702046  73.9447515  29.7948473  55.5875301  74.4793242
  29.8156320  56.2048016  73.9956632  32.7266320  60.0643809  74.6561009
  32.2901552  60.0680551  75.4119981  32.3929236  60.7449308  74.2240587
  32.6128940  60.1656265  74.7041842  27.2995394  62.1052142  85.9804160
  28.0835810  62.2182990  86.3459902  27.0991988  61.2793279  86.1762845
  27.3861419  61.9998861  86.0638546  15.6682409  56.7779822  78.8648003
  15.4020824  55.9618939  79.0238994  15.6820973  56.8232977  77.9943519
  15.6307131  56.6636727  78.7601485  32.6463803  47.1057637  76.8990437
  33.2889711  47.1755741  77.4852352  32.8986824  46.4386860  76.3969979
  32.7785935  47.0183985  76.9117716  19.5740156  51.5764906  65.4799761
  18.8598333  51.2903086  65.8922194  20.0584125  51.9161532  66.1206149
  19.5399519  51.5846556  65.6355396  20.4181016  50.3158200  81.5115011
  19.7252812  49.8455180  81.7575743  21.0341343  50.0896505  82.0856718
  20.4065545  50.2125332  81.6324164  27.4565787  64.0162244  79.6270615
  26.6581033  63.7761744  79.8844484  27.9051799  64.0676637  80.3737663
  27.4040398  63.9884635  79.7755539  35.8610666  56.7824729  73.5480646
  36.5227100  56.2215397  73.4476555  35.2202078  56.2876760  73.8733338
  35.8639534  56.6261138  73.5812987  26.7487474  60.0794860  65.8561570
  27.1638623  59.7479884  65.1646065  25.9179404  59.8463763  65.7281706
  26.6875483  59.9966116  65.7352417  16.0775823  57.5638601  76.1459748
  15.8951396  57.5385487  75.2932040  16.8125492  58.0337539  76.1848656
  16.1589887  57.6299964  76.0257666  32.1475497  57.7990111  73.2892635
  32.3831086  57.9435310  72.4619486  32.2965061  58.5632519  73.6824149
  32.2041300  57.9329166  73.2256239  19.1421574  54.2823604  82.6541856
  19.8661547  54.2676635  83.1406751  19.2437711  54.9918959  82.1563825
  19.2639784  54.3848307  82.6520643  33.9765954  56.6391777  71.1262239
  34.3074171  57.1719417  70.5202334  34.5499042  56.6930665  71.7824190
  34.1099633  56.7261346  71.1340021  26.5166524  57.7622689  87.5190803
  25.7239505  58.0766201  87.7043423  26.6315451  57.9774157  86.6811588
  26.4161934  57.8406525  87.4229138  29.1897843  54.4856680  71.8085819
  29.2844697  55.2245974  72.2625445  28.5656686  54.0574155  72.2420384
  29.1106873  54.5318001  71.9393967  27.4450317  57.6642893  82.4576100
  28.0189178  57.0270137  82.6124664  27.3665120  57.6646975  81.5885758
  27.5183552  57.5708004  82.3522511  16.0446733  54.4432102  76.2958814
  16.6220236  54.3068553  76.9351060  15.3460795  53.9867886  76.5504399
  16.0267755  54.3554368  76.4281104  29.4420864  56.3305420  65.0422771
  29.3601027  56.4007607  65.9077758  30.0800585  56.8935164  64.8506512
  29.5240702  56.4244391  65.1412721  22.8014035  56.0966158  74.5097297
  22.5433280  55.2637893  74.4828597  22.8562518  56.3223771  73.6689798
  22.7713813  56.0063929  74.3817434  27.8815085  48.1994608  74.6101390
  27.1771412  47.7103794  74.7685309  27.9300060  48.2117083  73.7389835
  27.7845137  48.1284256  74.5040730  21.7748747  53.6503920  74.9962192
  21.1998339  53.8096088  75.6326153  21.3984424  53.0139329  74.5330643
  21.6351560  53.5801733  75.0216751  25.4422036  52.1227269  79.8554571
  25.0536469  51.6981487  79.2006762  24.7776734  52.3709419  80.3631597
  25.2868964  52.0965991  79.8342439  35.0845305  51.8802274  72.6302401
  34.8281870  51.0682216  72.4400283  35.9274619  51.8879841  72.4032588
  35.1711331  51.7614272  72.5687218  11.5205566  53.2943995  73.0106633
  11.6065818  52.9175863  73.7920163  12.1481364  52.9204441  72.5326591
  11.6262117  53.1829477  73.0552110  29.2648398  45.8201898  77.3678555
  29.6458909  45.1380069  77.7546429  28.4611682  45.5311500  77.1854219
  29.2024859  45.6768947  77.3982611  26.5460974  56.3525874  68.0531378
  27.3601613  56.6440767  67.9414149  26.4820116  55.6985736  67.4789671
  26.6563713  56.2991069  67.9520215  32.7670464  59.0351870  82.4660953
  32.5309102  58.2039935  82.3473014  33.4113693  58.9837477  83.0515797
  32.8265135  58.9049558  82.5346847  22.4168883  59.8247391  73.1803690
  23.0542830  59.5859139  73.7255483  22.8423954  60.0284550  72.4456850
  22.5745049  59.8198402  73.1520847  17.1081525  62.0635728  77.0637993
  17.1485670  62.3350579  76.2357773  17.6676049  62.5877636  77.4795781
  17.1964871  62.1811483  77.0029882  23.0571698  55.0449681  67.5178579
  23.4416850  54.8257388  68.2695124  22.8083318  55.8712627  67.6479655
  23.0773770  55.1347827  67.6479655  23.2240238  48.3256096  87.2341163
  22.9093679  49.0955659  86.9710726  22.9030171  47.7626352  86.6493390
  23.1299157  48.3566365  87.1082513  33.7906885  58.8196319  78.5289248
  33.4852702  59.5524376  78.8902563  33.0713101  58.4134248  78.2482034
  33.6394227  58.8678052  78.5402385  24.7990355  60.3019814  74.8597476
  24.8729363  60.1394986  75.7139326  25.6159861  60.4910004  74.6157958
  24.9306713  60.3056556  74.9495502  39.4908677  55.4589320  77.8557592
  39.4233178  55.4785279  76.9860179  39.4764340  56.3019647  78.0813263
  39.4787434  55.5863054  77.7610069  18.5596111  60.6477677  71.8891919
  17.7334229  60.8939414  71.7626198  18.6208102  60.5689758  72.7553978
  18.4470278  60.6722626  71.9980864  20.7772135  46.7146618  72.8487360
  19.9094560  46.7869217  72.9144969  21.0647339  47.5168697  73.0375335
  20.6911883  46.8440765  72.8862126  29.9005024  46.8624477  81.1798681
  30.6458616  46.6734288  80.7662107  29.4842328  47.3882715  80.6212538
  29.9489998  46.9126623  81.0363255  23.3394940  63.2654557  69.5910949
  23.6293239  62.8743538  68.8670176  24.0698421  63.4471262  70.0316225
  23.4901824  63.2348371  69.5493756  37.2767295  54.2333706  76.1304186
  37.8275216  53.6001775  76.3701278  37.2611410  54.7649099  76.8219691
  37.3552491  54.2182654  76.2683045  23.9289685  58.0672303  80.6764080
  23.4301379  58.7788071  80.7548968  24.7389910  58.3872970  80.6382242
  23.9745792  58.2199152  80.6820648  21.2800856  65.2421940  72.6571099
  21.0601151  64.9519294  73.4497766  21.0595378  64.5836895  72.1289011
  21.2148450  65.1021648  72.6960008  20.1917803  57.3295256  74.9226801
  19.9031052  56.7032727  75.4572528  21.0601151  57.2715543  74.9891481
  20.2778055  57.2282800  75.0117755  30.9795701  52.4730039  75.2408783
  30.6360467  51.7520375  75.5916032  31.0788743  52.2643891  74.3987141
  30.9437744  52.3354243  75.1680463  23.4468812  66.6151329  71.4401791
  24.0992870  66.0827772  71.6692818  22.7494420  66.2619982  71.8269665
  23.4399530  66.4840852  71.5313959  20.3950076  58.9690507  70.8469166
  21.1496044  59.3503546  71.0604628  19.8020689  59.4201651  71.3015862
  20.4186790  59.0919334  70.9452044  31.4408730  58.9355744  70.7832771
  32.0066763  59.5948953  70.6991314  30.7936633  59.2805442  71.2549173
  31.4287486  59.0837685  70.8405527  22.8556743  50.9253347  85.9726378
  22.0456519  51.2311127  85.8616220  23.3331430  51.6458930  86.0878962
  22.8060222  51.0767949  85.9733449  21.7148303  60.1399068  76.2209281
  21.1929057  60.2799360  76.9061146  22.1022323  59.3809733  76.4111399
  21.6952004  60.0484592  76.3510358  18.7039487  50.1904877  70.2904236
  18.4164283  49.8206148  69.5536183  19.3909955  50.6599733  70.0287941
  18.7628384  50.2051847  70.1419312  27.9115308  61.8794528  70.2069850
  27.6701984  61.1462388  69.7996915  28.0916641  62.4281385  69.5536183
  27.9022932  61.8516919  70.0500073  23.1414629  57.1703087  71.6190772
  22.9457411  57.7777822  71.0251075  23.3648974  56.4771031  71.1382446
  23.1449270  57.1580613  71.4606853  21.5393159  54.0557825  71.7371641
  22.2615811  54.2198984  71.2775447  21.0601151  54.7767490  71.6310980
  21.5756889  54.1856055  71.6537255  29.4986666  50.3921624  77.1168325
  28.6597767  50.4182903  76.8806589  29.5691034  51.0392360  77.6973672
  29.3855060  50.4917750  77.1677442  19.1900775  56.4615898  80.8425780
  19.7021872  56.7400151  80.1934540  18.9037118  57.2005192  81.2088593
  19.2235638  56.6118251  80.8015658  27.9455945  47.2907001  71.8495941
  28.6482297  47.0914750  71.3715900  27.6800133  46.5182944  72.1564785
  28.0102577  47.1469967  71.8241383  33.3744190  55.5989611  74.4029567
  33.2878165  55.7545037  75.2564346  32.9194670  56.2427686  74.0288972
  33.2947447  55.7165366  74.4736674  16.2767682  50.9686090  71.1389517
  16.3783818  51.7712251  71.4670492  17.0723568  50.7673426  70.8412597
  16.4095587  51.0571988  71.1424872  22.7084501  48.5542286  80.9026822
  22.5167698  48.5697421  81.7526246  23.5583097  48.7505961  80.8793477
  22.8060223  48.5856638  81.0250117  17.0931414  51.0833268  78.8810638
  16.9516906  50.2317209  79.0055146  17.3771977  51.1261929  78.0572844
  17.1139260  50.9633018  78.7778263  27.2470006  52.9200358  73.0255127
  27.0004720  52.8396109  73.8591916  27.5755129  52.1353826  72.8317654
  27.2591250  52.7926623  73.1202650  31.1418055  59.6283717  76.8141908
  31.0032414  60.3264763  77.3190650  30.3618053  59.4732374  76.4578090
  31.0061282  59.7083884  76.8368182  29.4796140  55.9280093  83.0664290
  29.4744179  55.0559909  83.0706716  30.1857134  56.1268262  82.5933745
  29.5841144  55.8283967  82.9971325  23.2067033  55.6557077  82.4378110
  23.3510409  56.2358285  81.8021220  23.5542682  56.0333373  83.1427964
  23.2794495  55.7977781  82.4477105  25.3786951  54.8547245  80.2203241
  24.6310265  55.0478259  79.8151519  25.5328476  54.0292465  79.9827363
  25.2909378  54.7612356  80.1248647  22.2794788  63.8459848  79.3039137
  22.4284352  63.2862764  78.6512541  23.0594790  63.9251850  79.6871655
  22.4168882  63.7745414  79.2636086  32.6371428  58.9861971  67.5758407
  32.2578237  58.1999109  67.5687697  31.9737673  59.5348828  67.4330051
  32.4829903  58.9506795  67.5539204  24.8048089  64.0174491  80.5823627
  24.7291760  63.3483302  81.1374416  24.7337948  64.7192280  81.0964294
  24.7828696  64.0219399  80.7400476  25.6188728  48.7497796  81.1098645
  26.0761342  49.4821770  81.2371437  25.6945057  48.3264261  81.8685901
  25.6979698  48.7955034  81.2399722  17.8621719  48.9963615  82.1988089
  17.3263908  48.3843974  82.5148856  17.9239484  49.5711751  82.8521755
  17.7917352  48.9910543  82.3423516  30.0916054  41.9287671  74.9792488
  30.2099622  42.3864134  74.2459791  29.9178229  41.1232932  74.6928706
  30.0835225  41.8781443  74.8293422  25.4618336  62.5375490  71.4147233
  26.2268227  62.2685134  71.0929898  25.3596426  62.0525501  72.1317296
  25.5599831  62.4265055  71.4727061  23.4971106  50.7399900  77.9540469
  22.7067180  50.5591360  78.2757805  23.8931729  49.9626852  77.9370764
  23.4387982  50.5987361  77.9993018  27.9836996  59.5687674  63.3947183
  28.7509982  59.6287799  62.9853035  27.5368305  58.9968115  62.9103501
  28.0310424  59.4924250  63.2624893  28.8814792  58.3742330  75.6799915
  28.2059794  58.1427562  76.1813302  28.8907168  57.7663513  75.0542020
  28.7833297  58.2501255  75.6616067  26.0108936  53.2160159  82.4363968
  25.9468077  54.0770115  82.3084105  26.1506124  52.8992152  81.6359519
  26.0224406  53.2960325  82.2992181  30.8831527  61.2307462  67.9110093
  30.9651364  62.0374448  67.5871544  31.3681269  61.2503421  68.6350867
  30.9668684  61.3528125  67.9696992  24.6928030  55.9092298  76.5780171
  24.2690279  56.1096797  75.8419189  24.5172885  55.0621146  76.6904471
  24.6038910  55.8141080  76.4853861  24.1939723  67.4242811  79.0401628
  24.6835654  66.7253600  78.8577293  23.6223956  67.1266681  79.6277686
  24.1824253  67.2769035  79.1002669  19.9810475  56.4044350  72.0108144
  20.1375094  56.3391152  72.8664136  20.3211068  57.1792902  71.7986823
  20.0543710  56.5093548  72.1062738  26.5189619  55.7802233  70.8801507
  27.0605165  55.2772614  71.3440127  26.8336178  55.7267428  70.0690992
  26.6454017  55.6981654  70.8285319  30.3906727  59.9904880  87.9928419
  31.2041592  59.7190029  88.1533551  30.2301693  59.6912420  87.1888615
  30.4876675  59.9059807  87.8973825  24.6876069  61.1719585  68.1641535
  24.7568889  60.3134123  68.3034535  25.4664524  61.3891466  67.8360559
  24.8128919  61.0772449  68.1358692  27.6678889  50.6738538  80.9323807
  27.8820858  50.0349452  80.3787161  27.0512788  51.1184362  80.5031669
  27.6084218  50.6448681  80.7874238  29.0783557  63.5957286  72.3778028
  28.6863348  63.2924001  71.6600894  29.2336629  64.4326376  72.1882982
  29.0437147  63.6741123  72.2434525  16.5544736  53.5879300  72.3268911
  16.9343701  54.0063845  71.6629178  15.9800101  54.1692756  72.6337754
  16.5256061  53.7357159  72.2745652  29.8317977  52.2827603  81.8707114
  29.0194659  51.9753493  81.9520287  30.2907911  51.8026603  82.4349826
  29.7798362  52.1664095  81.9661708  29.2423232  60.1607275  72.3184059
  28.8837886  60.3321918  73.0948091  28.7561942  60.6220480  71.7612057
  29.1181928  60.2546246  72.3509328  27.0593617  43.7838473  75.9211150
  26.1887175  43.7577194  75.8744459  27.3133959  43.6115665  75.1036996
  26.9687178  43.7548617  75.7931287  24.0311597  55.8406440  64.8584293
  24.3204122  56.6171323  65.1327867  24.1183396  55.3295172  65.5598792
  24.0865853  55.8798359  65.0026791  26.9271484  53.6887674  86.6535817
  27.3971116  54.3129791  87.0403691  26.9733365  53.0204650  87.2129031
  27.0039360  53.6822355  86.7935888  24.0842758  45.7944702  77.3784620
  23.5681247  45.1024893  77.5036199  23.5236687  46.4615479  77.3247219
  23.9249271  45.7907959  77.3890686  26.1534991  46.3337662  79.2077473
  25.7666745  46.3586693  79.9891003  25.6667929  45.7679340  78.7551990
  26.0247500  46.2533413  79.2565377  30.4027971  61.0511171  83.2651259
  31.0407691  60.5571366  82.9313716  29.7602062  60.9788571  82.6803486
  30.4022197  60.9670179  83.1293614  32.1284971  52.9000317  77.8317175
  31.7012579  52.8126665  77.0765275  31.4911024  53.0078092  78.4172019
  31.9714578  52.9032977  77.8062617  25.8192133  43.2204647  81.4987733
  26.4485251  43.7564947  81.2208803  25.9877996  43.1282006  82.3501299
  25.9369928  43.2866010  81.5836261  25.6206048  48.0075842  83.7714144
  26.4479477  47.7360991  83.8272759  25.6413894  48.8036684  84.1277963
  25.7458898  48.0855596  83.8329327  30.4582227  61.7430979  79.9056616
  31.2474606  61.3920044  80.0258698  30.6325825  62.5567367  79.6433250
  30.6002509  61.8116836  79.8844484  20.1975538  55.1539705  76.9584405
  19.3563544  55.0543579  77.1663299  20.4065546  55.9235185  77.3098726
  20.1040230  55.2531748  77.0411720  17.6751105  52.7759242  74.7869156
  17.2807803  52.8502254  74.0119265  17.1191222  53.1617188  75.3377518
  17.5353917  52.8441016  74.7536816  29.3116052  45.7540536  74.4673035
  29.5165645  45.6862844  75.3130032  28.9842476  46.5599357  74.3994212
  29.2931300  45.8626476  74.5832690  24.0092203  53.0821104  76.2082003
  23.7055340  52.5277092  76.8092410  23.3071624  53.2613314  75.7210037
  23.8608413  53.0265886  76.2251708  23.0658300  50.3921624  70.7726704
  23.3418034  49.6740536  70.3604272  23.6656969  50.9906544  70.5647811
  23.1951564  50.3741995  70.6807466  22.0710554  60.2970825  80.9154100
  21.9630909  60.3072887  81.7816158  22.2806335  61.1225605  80.7259054
  22.0860665  60.4211899  81.0158192  32.5649739  46.3072300  73.9475800
  31.9524053  46.7942702  74.3329532  32.6613914  45.6315791  74.4913451
  32.4887637  46.2790609  74.0854658  26.5668820  48.0635141  69.0473299
  27.0212567  48.2345702  69.7721144  27.0408866  47.4503252  68.6471075
  26.7037140  47.9986026  69.0947061  20.0884346  57.5483467  78.3776038
  19.4972279  58.1892965  78.3479053  20.8505369  57.9721084  78.3507337
  20.1132606  57.7059306  78.3691185  20.4844969  48.7085465  79.0444056
  20.9446450  48.7824394  79.7819179  20.5301075  49.5066719  78.6943877
  20.5595524  48.8379612  79.1016812  22.1328318  49.3752160  83.6116083
  21.7413883  48.7285507  84.0471860  22.3014181  49.9663595  84.2310338
  22.0999229  49.3666428  83.7678789  36.2074767  57.3789237  79.3753316
  36.2657891  57.8275886  80.1213293  35.5741235  57.7888050  78.9383396
  36.1226062  57.5062971  79.4205865  29.8473862  62.9992779  75.8108062
  29.6493551  63.4883593  75.1164274  29.2261573  63.2034020  76.3892196
  29.7261426  63.1009317  75.7931286  23.9081840  54.7677676  70.1518307
  24.6523885  55.1551952  70.3901257  24.0542537  53.9235101  70.3158795
  24.0392425  54.7008148  70.2112276  25.8261416  46.5627934  75.1850168
  24.9797461  46.7350742  75.0591518  25.8232548  45.7577278  75.5215996
  25.7008566  46.4688963  75.2161295  26.8959716  50.3403149  76.0512226
  26.4219670  49.8144911  76.5617537  27.2677852  49.7932622  75.4827088
  26.8809605  50.1819145  76.0427373  17.2732746  52.3374656  81.4195772
  18.1358359  52.2370365  81.3333102  16.9424529  51.7569365  80.8581344
  17.3517943  52.2366282  81.3241178  33.1596447  55.4005524  77.4619007
  32.9194670  54.5611940  77.4661433  33.6388454  55.4805691  78.1859780
  33.1948630  55.2886924  77.5693809  28.8243216  51.2339703  69.1137980
  28.2966234  51.3168447  68.4243689  29.2838924  51.9757575  69.1102625
  28.8145066  51.3560366  69.0112675  35.1601634  52.1806982  75.4148266
  34.9211404  52.1402816  74.5769050  35.3235535  53.0278134  75.5413987
  35.1491937  52.2999067  75.3101748  31.7647664  56.5656931  81.3453311
  32.4881863  56.1129457  81.1664331  31.4997626  56.8461597  80.5625639
  31.8328937  56.5407899  81.2032026  20.6334532  51.1617105  78.0806190
  20.0087602  51.1735497  77.4732143  20.2980127  51.6377280  78.7297430
  20.4920024  51.2335622  78.0862759  20.8176281  49.5042223  64.1378875
  20.4689085  50.1561948  64.6010424  20.3372727  49.4899336  63.4102746
  20.6946525  49.5985277  64.0989966  17.3460208  59.2217565  79.5209954
  16.8160132  58.5310004  79.5704929  17.6185301  59.2127750  78.6922663
  17.3084930  59.1184696  79.4057370  28.3780298  59.8043267  68.2447637
  29.1014497  60.2701380  68.1012210  27.9380889  59.8716877  67.4945234
  28.4195991  59.8827104  68.1132418  27.5466453  56.6640809  79.4948326
  26.9323447  56.1198860  79.7896961  28.0633738  56.1505046  79.0154142
  27.5322116  56.5077218  79.4672554  26.7862751  57.7345079  77.2292625
  26.3590359  57.1094798  76.7958060  26.7787695  57.4520001  78.0551632
  26.7221892  57.5997860  77.2872452  19.9025278  52.7710252  80.2981059
  20.0618764  52.0153576  80.7032780  19.7218171  53.3201192  80.9521796
  19.8990637  52.7404066  80.4543764  27.8445581  44.9371488  80.8531848
  27.3486142  45.1335162  80.1623415  28.6014643  45.3364156  80.6820650
  27.8832405  45.0249222  80.7251985  25.1148460  48.6113834  77.4435159
  25.1390947  48.0773946  76.7547939  25.3659934  48.1031143  78.1060749
  25.1558379  48.4574738  77.4399803  12.6256050  55.8945329  76.8778303
  12.5199499  55.8492173  76.0130387  11.8756270  56.2399109  77.1592587
  12.4991653  55.9386237  76.7915632  21.3949782  47.3384652  76.8240903
  21.4348154  47.8393859  77.5375610  20.5699447  47.4295046  76.5546826
  21.2789308  47.4266468  76.8891441  23.5779395  56.9045392  84.9261197
  22.7275026  57.0417106  85.0618842  23.7407523  56.1709170  85.3708899
  23.4763259  56.8159493  85.0116797  22.8164146  53.8545162  79.1214802
  21.9856076  54.0218980  78.9150050  22.7615663  53.4781113  79.9063687
  22.6853561  53.8234893  79.2063330  20.6247929  47.3454055  84.7571213
  21.2500633  46.8016188  85.0300645  20.1698409  46.8648972  84.1879003
  20.6496190  47.1943536  84.7132806  21.1900190  52.1300753  69.6504920
  21.3303151  52.6273218  70.3533561  21.6882723  51.4287048  69.7919133
  21.2841271  52.1002732  69.7756499  21.2200412  52.9967864  66.9797496
  21.8545492  53.5928289  66.9146958  21.3026023  52.6971322  67.7943367
  21.3256963  53.0408773  67.0900583  34.1982978  55.5283342  79.8483861
  34.7900818  56.1680593  79.8802059  34.6341972  54.8306379  80.1375927
  34.3501409  55.5201692  79.8964693  22.7979395  48.9281840  66.9542938
  23.1195236  48.4484922  66.3002201  23.0606339  49.7381486  66.7633750
  22.8845420  48.9771738  66.8298430  26.0276368  59.9500714  80.4741754
  25.5201459  60.5036561  80.9182385  25.7303014  60.0109004  79.6560529
  25.9081253  60.0407025  80.4190211  28.1938550  48.3154034  79.3166417
  28.6193622  47.8626560  78.7049944  27.5795543  47.7614105  79.5931205
  28.1667195  48.1668010  79.2671443  17.7253400  55.1935705  70.2487042
  18.2345629  55.7900213  70.6298348  18.1987672  54.9261679  69.5663462
  17.8696776  55.2421521  70.2041565  28.6384148  63.8663972  68.4045698
  27.9213458  63.6924834  67.9392935  29.2890886  63.6316544  67.8721184
  28.6285999  63.8059764  68.2574916  26.6332773  44.7869134  72.7256994
  25.9901091  44.6366780  73.2942133  26.2932180  44.5411479  71.9606099
  26.4877850  44.7281256  72.6960010  31.2232119  52.7428560  72.1487003
  30.5523309  53.2858263  72.0200069  31.9171870  53.2123416  71.9068698
  31.2260987  52.8926832  72.0942531  25.2718853  64.8825272  77.3798761
  25.0484507  64.1244102  77.7482788  24.7828696  64.9123294  76.6579201
  25.1662302  64.7747497  77.3275502  31.3860247  49.1984444  75.0577376
  31.7387857  48.7714167  75.7323175  30.5275048  49.1135288  75.1878453
  31.3109691  49.1229185  75.1772387  20.0843932  51.8291964  73.1160223
  19.3655921  52.2456096  73.3833086  20.4556294  52.3946203  72.5651861
  20.0335864  51.9741245  73.0743030  29.3843513  52.4619813  79.0062219
  29.3641440  52.2803108  79.8596997  29.4322713  53.3331831  78.9821802
  29.3878154  52.5636351  79.1285513  27.3289842  59.0507005  84.9310695
  27.2885697  58.4056682  84.3455851  28.1413161  58.9943622  85.2436107
  27.4432996  58.9465972  84.8907644  23.9197310  65.1025731  74.8335846
  23.5057709  64.4399861  74.4439688  24.6044684  65.2503589  74.3131540
  23.9595682  65.0266389  74.6992343  27.2862604  64.2615816  75.5859463
  26.8878887  64.3718086  74.8180283  26.6713824  64.4697882  76.1686022
  27.1361493  64.3089384  75.5590762  25.8590506  50.8689964  68.4533602
  25.2655345  51.1906960  67.9018169  25.8965784  50.0231059  68.2454708
  25.7764895  50.7914292  68.3416374  32.8184307  44.3202856  75.9861689
  32.3115171  43.6131995  75.9182866  33.6151741  43.9896045  76.1162765
  32.8611546  44.1676007  75.9960684  28.7348323  50.8269468  71.8835353
  28.5062016  50.8502170  71.0413711  28.9946399  50.0026935  72.0030363
  28.7394511  50.7085548  71.7760550  23.0167551  52.6803941  81.4860453
  22.5046454  52.0725124  81.8445484  22.8447047  53.3960534  81.9534428
  22.9157188  52.6967240  81.6076676  17.8633266  51.1241517  84.1362815
  17.6935856  51.7842891  83.5911021  17.4199216  51.3348078  84.8575304
  17.7732599  51.2527499  84.1624444  21.7893085  49.3646014  73.1789548
  22.2650451  49.7263094  72.5439729  21.2881685  50.0202482  73.4589691
  21.7858444  49.5140203  73.1266289  35.0204447  58.8367783  68.9702553
  35.4038053  59.5859139  69.2000650  34.2248560  59.0833602  68.7114542
  34.9598229  58.9837476  68.9660127  26.8936621  50.6028186  83.9262708
  27.4508052  50.3741995  83.2941174  26.5697686  51.3633851  83.6497921
  26.9283032  50.6812023  83.7919205  14.7635330  54.0288382  79.3951304
  14.2162050  53.3589028  79.5132173  15.5527709  53.6618230  79.4594772
  14.7987514  53.8753368  79.4220005  24.6119739  53.6895839  84.8914715
  25.3631066  54.0047516  85.2054270  24.8042315  53.4875010  84.0648637
  24.7511153  53.7063221  84.8158111  23.8319738  51.5087214  66.5462932
  24.2118703  51.5266843  65.7614047  23.0912334  51.9541203  66.4253779
  23.7788576  51.5768989  66.4126500  31.4605029  49.8169405  72.1338511
  31.4599255  49.6618062  72.9922787  31.2561209  50.6632393  72.0779896
  31.4304807  49.9190026  72.2526450  13.5222300  53.2409190  76.5497327
  13.3444061  52.7885799  77.2752243  13.2341322  54.0435351  76.7335805
  13.4535253  53.2931748  76.6840830  29.1845881  54.4966907  75.7874718
  29.6799546  53.7789902  75.7478738  28.3745657  54.1937705  75.6729205
  29.1389774  54.3464554  75.7648444  24.6304492  58.3464720  67.9371722
  23.8215815  58.0231394  67.8905032  25.1379401  57.6397943  67.8699971
  24.5854159  58.1946037  67.9202017  15.2594770  55.7736914  73.6619086
  14.3940289  55.7622604  73.5501858  15.3593586  55.5867137  74.5090226
  15.1468937  55.7442975  73.7708031  31.2497700  57.2470595  78.4751846
  31.6752771  56.7245017  77.9222272  30.8854620  57.8451432  77.9540469
  31.2584302  57.2580822  78.3160856  20.8851780  65.5434812  77.2349192
  21.1998339  66.3571201  77.2426974  21.2945193  65.1585031  77.9031351
  20.9919878  65.6063515  77.3353284  27.8376299  60.9604859  74.8053004
  28.3087477  61.6745122  74.9742989  28.1736478  60.3603609  75.3412873
  27.9571414  60.9776323  74.9085380  29.9253284  62.5706172  86.9845076
  30.0350249  61.7814733  87.3401823  30.2544180  62.4812109  86.1819414
  29.9905690  62.4412025  86.9187467  24.7545794  45.7332330  81.7611099
  24.8873700  44.9363323  82.0892074  25.1390947  46.2598733  82.3409374
  24.8302123  45.6932246  81.8954602  28.4750246  60.7522793  81.5680697
  27.9271192  60.1280677  81.3000762  28.9363274  60.9417065  80.8524776
  28.4617455  60.6881843  81.4231128  27.8278149  42.6562656  78.3592192
  27.0224113  42.5460385  78.6760030  27.6984885  42.7575111  77.5022058
  27.6898282  42.6546326  78.2800232  31.2844110  48.8208148  78.9531889
  30.7007099  49.3217354  78.5409456  31.6048404  48.3137704  78.3196212
  31.2457285  48.8199983  78.7990396  23.8238909  47.7348742  69.2290564
  24.6454603  47.9047055  68.9872259  23.3608560  47.8896003  68.5056861
  23.8770071  47.7830475  69.0862208  22.4134241  45.7291505  80.0088992
  22.9578654  45.3882631  80.5993334  22.4671177  46.5876966  80.1510277
  22.5023360  45.8046764  80.1170866  18.2264800  59.4907921  76.8827800
  18.8309657  59.4503755  76.2541621  18.0192112  60.3379073  76.9131856
  18.2853697  59.6095923  76.7943917  28.0408572  61.7573866  78.0990038
  28.8606946  61.6136832  78.3606333  27.7602650  62.3820065  78.6406476
  28.1205315  61.8284218  78.2177977  13.4616082  58.4742538  76.7526724
  13.3640360  57.6638810  77.0616780  14.2444952  58.4534332  76.3672992
  13.5632218  58.3509628  76.7413586  44.5122222  69.4138718  71.0632914
  44.4816227  70.2683354  71.2351184  45.1103571  69.1134010  71.6219058
  44.5959380  69.4955214  71.1707716  37.7121907  68.5014369  75.8185845
  36.8559803  68.6622867  75.8694961  37.7589561  67.6306433  75.8390906
  37.5921019  68.3965170  75.8291911  32.0963047  78.0377086  71.5823076
  31.3445946  77.6592625  71.3539121  32.5449058  78.0695520  70.8341886
  32.0512714  77.9862694  71.4380578  41.0215624  74.7700894  85.4246301
  41.7282391  74.2752925  85.5533235  41.2103559  75.2109976  84.6948959
  41.1543529  74.7619245  85.3355346  37.5488007  78.4602456  67.0108623
  37.2139375  79.1379378  66.5752845  38.0614877  78.0707767  66.4225495
  37.5753588  78.5027034  66.8595415  37.0892298  80.4116725  72.9519735
  37.4731677  80.9803623  72.4124510  37.0251439  79.6866235  72.4725551
  37.1365725  80.3892188  72.8013597  40.5573728  70.5606412  78.4617496
  41.1029688  71.2391499  78.5211466  40.4990604  70.4193873  77.6019078
  40.6289642  70.6398414  78.3429557  33.6747803  78.0495479  73.8485849
  33.7758166  77.2395833  74.1582976  33.0789548  77.9552425  73.2185527
  33.6020342  77.9160507  73.8012087  42.3338797  71.9891020  69.3351224
  42.2178323  72.7398706  69.7643362  43.1294683  71.7314973  69.5847311
  42.4343386  72.0625867  69.4355316  33.5148543  82.9673068  75.2500705
  34.1585998  83.4086232  75.6396863  33.8404798  82.1626494  75.1630963
  33.6580371  82.9138262  75.2946182  26.8712847  74.0715765  73.4738182
  26.6363032  73.2383418  73.3670451  27.0098488  74.3520431  72.6599383
  26.8568510  73.9899269  73.3380537  29.1702935  66.2401496  76.3722490
  28.5507966  65.6494143  76.2032505  29.0686798  66.8312931  75.7386813
  29.0640610  66.2405578  76.2527480  34.2169122  75.9785043  70.6220566
  34.5384963  76.5190250  70.0181874  34.8641219  75.4081814  70.7542856
  34.3595177  75.9744218  70.5527602  36.2670830  67.9801038  70.7054953
  36.9650995  68.1589165  71.1976416  36.5823163  67.4571377  70.0825342
  36.4166168  67.9294810  70.6856963  28.8972068  69.7853777  78.6166059
  28.7730765  70.3716223  79.2515878  29.5490352  69.2913973  78.9178334
  28.9745717  69.7992582  78.7551988  36.4558766  74.3671483  70.6934745
  36.8952401  73.7588583  71.1389517  36.3063429  73.9878856  69.9220210
  36.4980231  74.2209954  70.6453912  33.9230409  72.9615494  77.8953570
  34.5679411  72.4687938  77.5764519  34.1632186  73.1040281  78.7219648
  34.0540994  72.9092937  77.9703103  36.4616500  75.8070400  77.5460463
  36.7439743  75.0121806  77.3247218  37.1902660  76.2850988  77.5665524
  36.6106064  75.7604997  77.5163478  34.4397694  63.3493434  74.7876228
  34.1101024  63.8004578  74.1179926  33.7642696  63.2709598  75.3349234
  34.2908130  63.4044569  74.7699451  40.0568102  72.7198664  67.6465514
  39.9719397  73.5759631  67.7915083  40.5452486  72.4442988  68.3147673
  40.1157000  72.8055985  67.7667595  41.6474102  59.3378957  73.0325838
  41.3327543  60.0282436  73.4646261  41.1301043  59.2823739  72.3311339
  41.5238572  59.4313846  72.9922787  40.9886535  69.3383458  69.1463249
  40.4598007  69.5543092  69.8060555  41.5111555  70.0319597  69.0664218
  40.9874988  69.4726595  69.2318848  46.4434588  74.9129762  74.5196293
  45.6132292  75.1240406  74.6829710  46.3943841  74.0866817  74.2438577
  46.3141324  74.8219369  74.5033659  32.8786143  73.2346675  67.9470717
  32.2943359  73.7396706  68.3536581  32.4756238  73.0089062  67.2067309
  32.7325447  73.2754923  67.8975742  28.4330172  78.9501436  74.7494388
  27.9497750  79.6751926  74.7253972  29.2453490  79.2477566  74.8604546
  28.4820920  79.1003790  74.7621668  34.5044326  77.7433617  77.3544203
  33.9871268  77.3841032  76.7505511  35.2018717  77.2195791  77.3650269
  34.5309907  77.6131305  77.2674462  38.1607918  78.1928431  83.3160376
  38.2491264  78.0054571  84.1638586  38.5897631  77.5465860  82.9165223
  38.2370020  78.0691438  83.3832127  35.7278378  77.4759591  82.2978038
  35.1649213  77.0632200  82.8217699  36.4899401  77.4012496  82.7171181
  35.7572826  77.4036991  82.4371038  37.3363358  69.4812327  66.4239638
  37.5759361  69.6890311  65.6114981  37.6579199  68.6769836  66.5328582
  37.4200516  69.3926428  66.3200191  32.6453648  61.4105723  70.2699175
  33.3999616  61.7784040  70.0316226  32.4681183  61.7845277  71.0378355
  32.7308126  61.5203911  70.3484064  31.2874369  79.4657612  74.9014668
  31.9894948  78.9509601  74.9587425  31.2071852  79.7931763  75.7061543
  31.3798130  79.4371838  75.0287460  45.9388547  67.5600163  78.3146715
  45.1016968  67.6302350  78.5494309  45.9076778  67.5624658  77.4421017
  45.8106829  67.5710390  78.2206263  32.3353276  69.7033199  84.0295083
  32.5073779  69.5939093  84.8780365  32.8722633  70.3487604  83.7926276
  32.4398280  69.7825200  84.1200180  31.0010713  63.8176042  66.9677288
  30.8186286  64.0347922  66.1418281  31.8636326  63.9315054  67.0235903
  31.1015302  63.8665940  66.8531775  30.6125145  75.6563964  74.4100276
  31.4514044  75.8886897  74.4574038  30.6436914  74.7868275  74.3407312
  30.7406862  75.5620910  74.4064921  31.2377848  76.0764839  78.7113582
  31.7776073  75.9335970  79.3816954  30.5547794  76.4761590  79.0797608
  31.2170002  76.1144510  78.8648004  36.6810432  60.8202452  70.0026312
  37.4096592  60.6418407  69.5564469  36.7705325  61.6620532  70.2133490
  36.8017094  60.9186331  69.9679830  40.6618733  71.7555840  73.9058606
  41.4176248  72.1887354  73.9447515  40.7681057  71.1060609  74.4793242
  40.7888903  71.7233324  73.9956632  43.6998904  75.5829117  74.6561009
  43.2634136  75.5865859  75.4119981  43.3661819  76.2634616  74.2240587
  43.5861524  75.6841573  74.7041842  38.2727977  77.6237450  85.9804160
  39.0568394  77.7368298  86.3459902  38.0724572  76.7978587  86.1762845
  38.3594003  77.5184169  86.0638546  26.6414993  72.2965130  78.8648003
  26.3753408  71.4804247  79.0238994  26.6553557  72.3418285  77.9943519
  26.6039715  72.1822035  78.7601485  43.6196387  62.6242945  76.8990437
  44.2622295  62.6941049  77.4852352  43.8719407  61.9572168  76.3969979
  43.7518519  62.5369293  76.9117716  30.5472740  67.0950214  65.4799761
  29.8330917  66.8088394  65.8922194  31.0316708  67.4346840  66.1206149
  30.5132103  67.1031864  65.6355396  31.3913599  65.8343508  81.5115011
  30.6985396  65.3640488  81.7575743  32.0073926  65.6081813  82.0856718
  31.3798129  65.7310640  81.6324164  38.4298371  79.5347552  79.6270615
  37.6313616  79.2947052  79.8844484  38.8784382  79.5861945  80.3737663
  38.3772982  79.5069943  79.7755539  46.8343250  72.3010037  73.5480646
  47.4959684  71.7400705  73.4476555  46.1934662  71.8062068  73.8733338
  46.8372117  72.1446446  73.5812987  37.7220058  75.5980168  65.8561570
  38.1371206  75.2665192  65.1646065  36.8911987  75.3649070  65.7281706
  37.6608066  75.5151424  65.7352417  27.0508406  73.0823909  76.1459748
  26.8683980  73.0570795  75.2932040  27.7858075  73.5522847  76.1848656
  27.1322470  73.1485271  76.0257666  43.1208081  73.3175419  73.2892635
  43.3563670  73.4620618  72.4619486  43.2697644  74.0817827  73.6824149
  43.1773884  73.4514474  73.2256239  30.1154158  69.8008912  82.6541856
  30.8394130  69.7861943  83.1406751  30.2170295  70.5104267  82.1563825
  30.2372367  69.9033615  82.6520643  44.9498537  72.1577085  71.1262239
  45.2806754  72.6904725  70.5202334  45.5231625  72.2115973  71.7824190
  45.0832216  72.2446654  71.1340021  37.4899107  73.2807997  87.5190803
  36.6972088  73.5951509  87.7043423  37.6048035  73.4959465  86.6811588
  37.3894518  73.3591833  87.4229138  40.1630426  70.0041988  71.8085819
  40.2577281  70.7431282  72.2625445  39.5389270  69.5759463  72.2420384
  40.0839457  70.0503308  71.9393967  38.4182900  73.1828200  82.4576100
  38.9921762  72.5455445  82.6124664  38.3397704  73.1832283  81.5885758
  38.4916135  73.0893312  82.3522511  27.0179317  69.9617410  76.2958814
  27.5952819  69.8253861  76.9351060  26.3193378  69.5053194  76.5504399
  27.0000338  69.8739676  76.4281104  40.4153448  71.8490728  65.0422771
  40.3333610  71.9192915  65.9077758  41.0533168  72.4120472  64.8506512
  40.4973285  71.9429699  65.1412721  33.7746619  71.6151466  74.5097297
  33.5165863  70.7823200  74.4828597  33.8295102  71.8409079  73.6689798
  33.7446397  71.5249237  74.3817434  38.8547669  63.7179916  74.6101390
  38.1503996  63.2289102  74.7685309  38.9032643  63.7302391  73.7389835
  38.7577721  63.6469564  74.5040730  32.7481331  69.1689228  74.9962192
  32.1730922  69.3281396  75.6326153  32.3717007  68.5324637  74.5330643
  32.6084143  69.0987041  75.0216751  36.4154620  67.6412577  79.8554571
  36.0269052  67.2166795  79.2006762  35.7509318  67.8894727  80.3631597
  36.2601547  67.6151298  79.8342439  46.0577889  67.3987582  72.6302401
  45.8014454  66.5867524  72.4400283  46.9007203  67.4065149  72.4032588
  46.1443914  67.2799579  72.5687218  22.4938150  68.8129303  73.0106633
  22.5798402  68.4361171  73.7920163  23.1213947  68.4389748  72.5326591
  22.5994701  68.7014785  73.0552110  40.2380981  61.3387206  77.3678555
  40.6191493  60.6565377  77.7546429  39.4344265  61.0496808  77.1854219
  40.1757443  61.1954255  77.3982611  37.5193558  71.8711182  68.0531378
  38.3334197  72.1626075  67.9414149  37.4552699  71.2171044  67.4789671
  37.6296297  71.8176377  67.9520215  43.7403048  74.5537178  82.4660953
  43.5041685  73.7225243  82.3473014  44.3846277  74.5022785  83.0515797
  43.7997719  74.4234866  82.5346847  33.3901466  75.3432699  73.1803690
  34.0275413  75.1044447  73.7255483  33.8156538  75.5469858  72.4456850
  33.5477632  75.3383710  73.1520847  28.0814109  77.5821036  77.0637993
  28.1218254  77.8535887  76.2357773  28.6408633  78.1062944  77.4795781
  28.1697454  77.6996791  77.0029882  34.0304281  70.5634989  67.5178579
  34.4149434  70.3442696  68.2695124  33.7815902  71.3897935  67.6479655
  34.0506354  70.6533135  67.6479655  34.1972822  63.8441404  87.2341163
  33.8826263  64.6140967  86.9710726  33.8762754  63.2811660  86.6493390
  34.1031741  63.8751673  87.1082513  44.7639469  74.3381627  78.5289248
  44.4585286  75.0709684  78.8902563  44.0445684  73.9319556  78.2482034
  44.6126811  74.3863360  78.5402385  35.7722938  75.8205122  74.8597476
  35.8461946  75.6580294  75.7139326  36.5892444  76.0095312  74.6157958
  35.9039297  75.8241864  74.9495502  50.4641261  70.9774628  77.8557592
  50.3965761  70.9970587  76.9860179  50.4496923  71.8204955  78.0813263
  50.4520017  71.1048362  77.7610069  29.5328695  76.1662985  71.8891919
  28.7066812  76.4124722  71.7626198  29.5940686  76.0875066  72.7553978
  29.4202862  76.1907934  71.9980864  31.7504719  62.2331926  72.8487360
  30.8827144  62.3054525  72.9144969  32.0379923  63.0354005  73.0375335
  31.6644467  62.3626073  72.8862126  40.8737607  62.3809785  81.1798681
  41.6191199  62.1919596  80.7662107  40.4574912  62.9068023  80.6212538
  40.9222582  62.4311931  81.0363255  34.3127524  78.7839865  69.5910949
  34.6025822  78.3928846  68.8670176  35.0431005  78.9656570  70.0316225
  34.4634408  78.7533679  69.5493756  48.2499878  69.7519014  76.1304186
  48.8007800  69.1187083  76.3701278  48.2343994  70.2834406  76.8219691
  48.3285075  69.7367962  76.2683045  34.9022269  73.5857611  80.6764080
  34.4033963  74.2973379  80.7548968  35.7122493  73.9058278  80.6382242
  34.9478376  73.7384460  80.6820648  32.2533439  80.7607247  72.6571099
  32.0333735  80.4704602  73.4497766  32.0327961  80.1022203  72.1289011
  32.1881034  80.6206956  72.6960008  31.1650387  72.8480564  74.9226801
  30.8763635  72.2218035  75.4572528  32.0333735  72.7900851  74.9891481
  31.2510639  72.7468108  75.0117755  41.9528284  67.9915347  75.2408783
  41.6093050  67.2705683  75.5916032  42.0521327  67.7829199  74.3987141
  41.9170327  67.8539551  75.1680463  34.4201395  82.1336637  71.4401791
  35.0725453  81.6013080  71.6692818  33.7227004  81.7805290  71.8269665
  34.4132113  82.0026160  71.5313959  31.3682660  74.4875815  70.8469166
  32.1228628  74.8688854  71.0604628  30.7753273  74.9386959  71.3015862
  31.3919374  74.6104642  70.9452044  42.4141313  74.4541051  70.7832771
  42.9799346  75.1134261  70.6991314  41.7669217  74.7990750  71.2549173
  42.4020070  74.6022993  70.8405527  33.8289327  66.4438655  85.9726378
  33.0189103  66.7496435  85.8616220  34.3064014  67.1644238  86.0878962
  33.7792806  66.5953257  85.9733449  32.6880887  75.6584376  76.2209281
  32.1661640  75.7984668  76.9061146  33.0754907  74.8995041  76.4111399
  32.6684588  75.5669900  76.3510358  29.6772071  65.7090185  70.2904236
  29.3896866  65.3391456  69.5536183  30.3642539  66.1785040  70.0287941
  29.7360968  65.7237154  70.1419312  38.8847892  77.3979836  70.2069850
  38.6434567  76.6647696  69.7996915  39.0649224  77.9466693  69.5536183
  38.8755516  77.3702227  70.0500073  34.1147212  72.6888395  71.6190772
  33.9189995  73.2963130  71.0251075  34.3381558  71.9956339  71.1382446
  34.1181853  72.6765921  71.4606853  32.5125742  69.5743133  71.7371641
  33.2348394  69.7384291  71.2775447  32.0333735  70.2952798  71.6310980
  32.5489473  69.7041363  71.6537255  40.4719250  65.9106932  77.1168325
  39.6330350  65.9368211  76.8806589  40.5423617  66.5577668  77.6973672
  40.3587643  66.0103058  77.1677442  30.1633359  71.9801206  80.8425780
  30.6754456  72.2585459  80.1934540  29.8769702  72.7190500  81.2088593
  30.1968222  72.1303559  80.8015658  38.9188528  62.8092309  71.8495941
  39.6214881  62.6100057  71.3715900  38.6532717  62.0368252  72.1564785
  38.9835160  62.6655275  71.8241383  44.3476774  71.1174919  74.4029567
  44.2610748  71.2730345  75.2564346  43.8927254  71.7612994  74.0288972
  44.2680030  71.2350674  74.4736674  27.2500265  66.4871398  71.1389517
  27.3516402  67.2897559  71.4670492  28.0456152  66.2858733  70.8412597
  27.3828171  66.5757296  71.1424872  33.6817084  64.0727594  80.9026822
  33.4900281  64.0882729  81.7526246  34.5315680  64.2691269  80.8793477
  33.7792806  64.1041946  81.0250117  28.0663997  66.6018576  78.8810638
  27.9249489  65.7502516  79.0055146  28.3504561  66.6447236  78.0572844
  28.0871843  66.4818326  78.7778263  38.2202590  68.4385666  73.0255127
  37.9737304  68.3581417  73.8591916  38.5487713  67.6539134  72.8317654
  38.2323833  68.3111931  73.1202650  42.1150639  75.1469025  76.8141908
  41.9764998  75.8450071  77.3190650  41.3350636  74.9917682  76.4578090
  41.9793865  75.2269192  76.8368182  40.4528724  71.4465401  83.0664290
  40.4476762  70.5745217  83.0706716  41.1589718  71.6453570  82.5933745
  40.5573728  71.3469275  82.9971325  34.1799617  71.1742385  82.4378110
  34.3242993  71.7543593  81.8021220  34.5275266  71.5518681  83.1427964
  34.2527078  71.3163089  82.4477105  36.3519534  70.3732553  80.2203241
  35.6042848  70.5663567  79.8151519  36.5061060  69.5477773  79.9827363
  36.2641962  70.2797664  80.1248647  33.2527372  79.3645156  79.3039137
  33.4016936  78.8048072  78.6512541  34.0327374  79.4437158  79.6871655
  33.3901466  79.2930722  79.2636086  43.6104011  74.5047279  67.5758407
  43.2310820  73.7184417  67.5687697  42.9470257  75.0534136  67.4330051
  43.4562486  74.4692103  67.5539204  35.7780673  79.5359799  80.5823627
  35.7024344  78.8668610  81.1374416  35.7070532  80.2377587  81.0964294
  35.7561280  79.5404707  80.7400476  36.5921311  64.2683104  81.1098645
  37.0493925  65.0007078  81.2371437  36.6677640  63.8449569  81.8685901
  36.6712281  64.3140342  81.2399722  28.8354303  64.5148923  82.1988089
  28.2996492  63.9029282  82.5148856  28.8972067  65.0897059  82.8521755
  28.7649935  64.5095851  82.3423516  41.0648637  57.4472979  74.9792488
  41.1832205  57.9049442  74.2459791  40.8910813  56.6418240  74.6928706
  41.0567808  57.3966751  74.8293422  36.4350920  78.0560798  71.4147233
  37.2000811  77.7870442  71.0929898  36.3329010  77.5710809  72.1317296
  36.5332415  77.9450363  71.4727061  34.4703689  66.2585208  77.9540469
  33.6799764  66.0776668  78.2757805  34.8664312  65.4812160  77.9370764
  34.4120565  66.1172669  77.9993018  38.9569580  75.0872982  63.3947183
  39.7242565  75.1473107  62.9853035  38.5100889  74.5153423  62.9103501
  39.0043007  75.0109558  63.2624893  39.8547376  73.8927638  75.6799915
  39.1792377  73.6612870  76.1813302  39.8639752  73.2848821  75.0542020
  39.7565880  73.7686563  75.6616067  36.9841520  68.7345467  82.4363968
  36.9200661  69.5955423  82.3084105  37.1238707  68.4177460  81.6359519
  36.9956990  68.8145633  82.2992181  41.8564110  76.7492770  67.9110093
  41.9383948  77.5559756  67.5871544  42.3413852  76.7688729  68.6350867
  41.9401268  76.8713433  67.9696992  35.6660613  71.4277606  76.5780171
  35.2422863  71.6282105  75.8419189  35.4905469  70.5806454  76.6904471
  35.5771494  71.3326388  76.4853861  35.1672307  82.9428119  79.0401628
  35.6568237  82.2438908  78.8577293  34.5956539  82.6451989  79.6277686
  35.1556837  82.7954343  79.1002669  30.9543058  71.9229658  72.0108144
  31.1107678  71.8576460  72.8664136  31.2943652  72.6978210  71.7986823
  31.0276293  72.0278856  72.1062738  37.4922203  71.2987541  70.8801507
  38.0337749  70.7957922  71.3440127  37.8068762  71.2452736  70.0690992
  37.6186600  71.2166962  70.8285319  41.3639310  75.5090188  87.9928419
  42.1774176  75.2375337  88.1533551  41.2034277  75.2097728  87.1888615
  41.4609259  75.4245114  87.8973825  35.6608653  76.6904893  68.1641535
  35.7301473  75.8319431  68.3034535  36.4397108  76.9076774  67.8360559
  35.7861503  76.5957757  68.1358692  38.6411472  66.1923846  80.9323807
  38.8553442  65.5534760  80.3787161  38.0245372  66.6369669  80.5031669
  38.5816802  66.1633989  80.7874238  40.0516140  79.1142594  72.3778028
  39.6595932  78.8109309  71.6600894  40.2069213  79.9511684  72.1882982
  40.0169730  79.1926431  72.2434525  27.5277320  69.1064608  72.3268911
  27.9076285  69.5249153  71.6629178  26.9532685  69.6878064  72.6337754
  27.4988645  69.2542467  72.2745652  40.8050560  67.8012911  81.8707114
  39.9927242  67.4938801  81.9520287  41.2640495  67.3211911  82.4349826
  40.7530945  67.6849403  81.9661708  40.2155815  75.6792583  72.3184059
  39.8570470  75.8507226  73.0948091  39.7294526  76.1405788  71.7612057
  40.0914512  75.7731554  72.3509328  38.0326201  59.3023781  75.9211150
  37.1619759  59.2762502  75.8744459  38.2866542  59.1300973  75.1036996
  37.9419761  59.2733925  75.7931287  35.0044180  71.3591748  64.8584293
  35.2936705  72.1356631  65.1327867  35.0915979  70.8480480  65.5598792
  35.0598437  71.3983667  65.0026791  37.9004068  69.2072982  86.6535817
  38.3703699  69.8315099  87.0403691  37.9465948  68.5389958  87.2129031
  37.9771944  69.2007663  86.7935888  35.0575342  61.3130010  77.3784620
  34.5413830  60.6210201  77.5036199  34.4969270  61.9800787  77.3247219
  34.8981855  61.3093267  77.3890686  37.1267575  61.8522970  79.2077473
  36.7399328  61.8772001  79.9891003  36.6400512  61.2864648  78.7551990
  36.9980084  61.7718721  79.2565377  41.3760554  76.5696479  83.2651259
  42.0140275  76.0756674  82.9313716  40.7334646  76.4973879  82.6803486
  41.3754781  76.4855487  83.1293614  43.1017555  68.4185625  77.8317175
  42.6745163  68.3311973  77.0765275  42.4643607  68.5263400  78.4172019
  42.9447162  68.4218285  77.8062617  36.7924717  58.7389955  81.4987733
  37.4217835  59.2750255  81.2208803  36.9610579  58.6467314  82.3501299
  36.9102511  58.8051317  81.5836261  36.5938632  63.5261150  83.7714144
  37.4212061  63.2546299  83.8272759  36.6146478  64.3221992  84.1277963
  36.7191482  63.6040904  83.8329327  41.4314811  77.2616287  79.9056616
  42.2207189  76.9105352  80.0258698  41.6058409  78.0752675  79.6433250
  41.5735093  77.3302144  79.8844484  31.1708121  70.6725013  76.9584405
  30.3296128  70.5728887  77.1663299  31.3798129  71.4420493  77.3098726
  31.0772814  70.7717056  77.0411720  28.6483688  68.2944550  74.7869156
  28.2540386  68.3687561  74.0119265  28.0923805  68.6802496  75.3377518
  28.5086501  68.3626324  74.7536816  40.2848635  61.2725844  74.4673035
  40.4898229  61.2048152  75.3130032  39.9575059  62.0784665  74.3994212
  40.2663883  61.3811784  74.5832690  34.9824786  68.6006412  76.2082003
  34.6787924  68.0462400  76.8092410  34.2804207  68.7798622  75.7210037
  34.8340996  68.5451194  76.2251708  34.0390883  65.9106932  70.7726704
  34.3150618  65.1925844  70.3604272  34.6389553  66.5091852  70.5647811
  34.1684148  65.8927302  70.6807466  33.0443137  75.8156133  80.9154100
  32.9363492  75.8258195  81.7816158  33.2538919  76.6410913  80.7259054
  33.0593248  75.9397207  81.0158192  43.5382323  61.8257608  73.9475800
  42.9256637  62.3128010  74.3329532  43.6346498  61.1501099  74.4913451
  43.4620221  61.7975917  74.0854658  37.5401404  63.5820449  69.0473299
  37.9945150  63.7531009  69.7721144  38.0141450  62.9688560  68.6471075
  37.6769724  63.5171334  69.0947061  31.0616929  73.0668775  78.3776038
  30.4704863  73.7078273  78.3479053  31.8237953  73.4906392  78.3507337
  31.0865190  73.2244613  78.3691185  31.4577552  64.2270773  79.0444056
  31.9179034  64.3009702  79.7819179  31.5033659  65.0252027  78.6943877
  31.5328107  64.3564920  79.1016812  33.1060902  64.8937468  83.6116083
  32.7146467  64.2470815  84.0471860  33.2746765  65.4848903  84.2310338
  33.0731812  64.8851736  83.7678789  47.1807351  72.8974545  79.3753316
  47.2390475  73.3461193  80.1213293  46.5473818  73.3073358  78.9383396
  47.0958646  73.0248279  79.4205865  40.8206446  78.5178087  75.8108062
  40.6226134  79.0068901  75.1164274  40.1994157  78.7219328  76.3892196
  40.6994010  78.6194625  75.7931286  34.8814424  70.2862983  70.1518307
  35.6256469  70.6737260  70.3901257  35.0275120  69.4420409  70.3158795
  35.0125009  70.2193456  70.2112276  36.7993999  62.0813242  75.1850168
  35.9530044  62.2536050  75.0591518  36.7965132  61.2762586  75.5215996
  36.6741149  61.9874271  75.2161295  37.8692300  65.8588457  76.0512226
  37.3952254  65.3330219  76.5617537  38.2410436  65.3117930  75.4827088
  37.8542189  65.7004453  76.0427373  28.2465330  67.8559963  81.4195772
  29.1090943  67.7555673  81.3333102  27.9157113  67.2754673  80.8581344
  28.3250526  67.7551590  81.3241178  44.1329030  70.9190832  77.4619007
  43.8927253  70.0797248  77.4661433  44.6121038  70.9990999  78.1859780
  44.1681214  70.8072232  77.5693809  39.7975799  66.7525011  69.1137980
  39.2698818  66.8353755  68.4243689  40.2571508  67.4942883  69.1102625
  39.7877650  66.8745674  69.0112675  46.1334217  67.6992290  75.4148266
  45.8943987  67.6588124  74.5769050  46.2968119  68.5463442  75.5413987
  46.1224521  67.8184375  75.3101748  42.7380247  72.0842239  81.3453311
  43.4614446  71.6314765  81.1664331  42.4730210  72.3646905  80.5625639
  42.8061521  72.0593207  81.2032026  31.6067116  66.6802412  78.0806190
  30.9820186  66.6920804  77.4732143  31.2712711  67.1562588  78.7297430
  31.4652608  66.7520929  78.0862759  31.7908865  65.0227531  64.1378875
  31.4421669  65.6747256  64.6010424  31.3105310  65.0084644  63.4102746
  31.6679109  65.1170584  64.0989966  28.3192791  74.7402873  79.5209954
  27.7892716  74.0495311  79.5704929  28.5917885  74.7313058  78.6922663
  28.2817514  74.6370004  79.4057370  39.3512882  75.3228575  68.2447637
  40.0747081  75.7886688  68.1012210  38.9113473  75.3902185  67.4945234
  39.3928574  75.4012412  68.1132418  38.5199037  72.1826117  79.4948326
  37.9056030  71.6384167  79.7896961  39.0366322  71.6690354  79.0154142
  38.5054699  72.0262526  79.4672554  37.7595334  73.2530387  77.2292625
  37.3322942  72.6280106  76.7958060  37.7520279  72.9705309  78.0551632
  37.6954475  73.1183168  77.2872452  30.8757861  68.2895560  80.2981059
  31.0351348  67.5338884  80.7032780  30.6950755  68.8386500  80.9521796
  30.8723220  68.2589374  80.4543764  38.8178164  60.4556796  80.8531848
  38.3218726  60.6520470  80.1623415  39.5747226  60.8549464  80.6820650
  38.8564989  60.5434530  80.7251985  36.0881044  64.1299142  77.4435159
  36.1123531  63.5959254  76.7547939  36.3392517  63.6216451  78.1060749
  36.1290963  63.9760046  77.4399803  23.5988634  71.4130637  76.8778303
  23.4932083  71.3677481  76.0130387  22.8488854  71.7584417  77.1592587
  23.4724237  71.4571545  76.7915632  32.3682366  62.8569960  76.8240903
  32.4080738  63.3579167  77.5375610  31.5432031  62.9480354  76.5546826
  32.2521892  62.9451776  76.8891441  34.5511979  72.4230700  84.9261197
  33.7007610  72.5602414  85.0618842  34.7140107  71.6894478  85.3708899
  34.4495843  72.3344801  85.0116797  33.7896729  69.3730470  79.1214802
  32.9588659  69.5404288  78.9150050  33.7348247  68.9966421  79.9063687
  33.6586144  69.3420201  79.2063330  31.5980513  62.8639363  84.7571213
  32.2233216  62.3201496  85.0300645  31.1430993  62.3834280  84.1879003
  31.6228773  62.7128844  84.7132806  32.1632773  67.6486061  69.6504920
  32.3035734  68.1458526  70.3533561  32.6615306  66.9472356  69.7919133
  32.2573854  67.6188040  69.7756499  32.1932996  68.5153172  66.9797496
  32.8278075  69.1113597  66.9146958  32.2758606  68.2156630  67.7943367
  32.2989547  68.5594081  67.0900583  45.1715561  71.0468650  79.8483861
  45.7633402  71.6865900  79.8802059  45.6074556  70.3491686  80.1375927
  45.3233993  71.0387000  79.8964693  33.7711979  64.4467148  66.9542938
  34.0927820  63.9670230  66.3002201  34.0338922  65.2566794  66.7633750
  33.8578004  64.4957046  66.8298430  37.0008951  75.4686022  80.4741754
  36.4934042  76.0221869  80.9182385  36.7035598  75.5294312  79.6560529
  36.8813836  75.5592333  80.4190211  39.1671134  63.8339342  79.3166417
  39.5926205  63.3811868  78.7049944  38.5528127  63.2799412  79.5931205
  39.1399779  63.6853318  79.2671443  28.6985984  70.7121013  70.2487042
  29.2078213  71.3085521  70.6298348  29.1720256  70.4446987  69.5663462
  28.8429359  70.7606829  70.2041565  39.6116732  79.3849280  68.4045698
  38.8946041  79.2110142  67.9392935  40.2623469  79.1501852  67.8721184
  39.6018582  79.3245072  68.2574916  37.6065356  60.3054442  72.7256994
  36.9633674  60.1552088  73.2942133  37.2664763  60.0596787  71.9606099
  37.4610434  60.2466564  72.6960010  42.1964703  68.2613868  72.1487003
  41.5255893  68.8043571  72.0200069  42.8904453  68.7308724  71.9068698
  42.1993570  68.4112140  72.0942531  36.2451437  80.4010580  77.3798761
  36.0217091  79.6429410  77.7482788  35.7561280  80.4308602  76.6579201
  36.1394886  80.2932805  77.3275502  42.3592830  64.7169752  75.0577376
  42.7120440  64.2899475  75.7323175  41.5007632  64.6320596  75.1878453
  42.2842275  64.6414493  75.1772387  31.0576515  67.3477272  73.1160223
  30.3388504  67.7641404  73.3833086  31.4288878  67.9131510  72.5651861
  31.0068447  67.4926553  73.0743030  40.3576096  67.9805121  79.0062219
  40.3374023  67.7988416  79.8596997  40.4055297  68.8517139  78.9821802
  40.3610737  68.0821659  79.1285513  38.3022426  74.5692313  84.9310695
  38.2618281  73.9241990  84.3455851  39.1145744  74.5128930  85.2436107
  38.4165580  74.4651279  84.8907644  34.8929894  80.6211038  74.8335846
  34.4790292  79.9585169  74.4439688  35.5777268  80.7688897  74.3131540
  34.9328265  80.5451697  74.6992343  38.2595188  79.7801124  75.5859463
  37.8611471  79.8903394  74.8180283  37.6446407  79.9883190  76.1686022
  38.1094077  79.8274692  75.5590762  36.8323090  66.3875272  68.4533602
  36.2387929  66.7092268  67.9018169  36.8698367  65.5416367  68.2454708
  36.7497479  66.3099600  68.3416374  43.7916890  59.8388164  75.9861689
  43.2847755  59.1317303  75.9182866  44.5884324  59.5081353  76.1162765
  43.8344130  59.6861315  75.9960684  39.7080906  66.3454776  71.8835353
  39.4794599  66.3687478  71.0413711  39.9678982  65.5212243  72.0030363
  39.7127094  66.2270856  71.7760550  33.9900135  68.1989249  81.4860453
  33.4779038  67.5910432  81.8445484  33.8179631  68.9145842  81.9534428
  33.8889772  68.2152548  81.6076676  28.8365849  66.6426824  84.1362815
  28.6668440  67.3028199  83.5911021  28.3931799  66.8533386  84.8575304
  28.7465183  66.7712807  84.1624444  32.7625669  64.8831322  73.1789548
  33.2383035  65.2448402  72.5439729  32.2614268  65.5387790  73.4589691
  32.7591028  65.0325511  73.1266289  45.9937030  74.3553090  68.9702553
  46.3770636  75.1044447  69.2000650  45.1981144  74.6018910  68.7114542
  45.9330813  74.5022784  68.9660127  37.8669205  66.1213494  83.9262708
  38.4240635  65.8927303  83.2941174  37.5430270  66.8819159  83.6497921
  37.9015615  66.1997330  83.7919205  25.7367914  69.5473690  79.3951304
  25.1894633  68.8774336  79.5132173  26.5260292  69.1803538  79.4594772
  25.7720098  69.3938676  79.4220005  35.5852322  69.2081147  84.8914715
  36.3363649  69.5232824  85.2054270  35.7774899  69.0060318  84.0648637
  35.7243736  69.2248529  84.8158111  34.8052322  67.0272522  66.5462932
  35.1851287  67.0452151  65.7614047  34.0644918  67.4726511  66.4253779
  34.7521160  67.0954297  66.4126500  42.4337612  65.3354713  72.1338511
  42.4331839  65.1803370  72.9922787  42.2293793  66.1817700  72.0779896
  42.4037390  65.4375334  72.2526450  24.4954883  68.7594498  76.5497327
  24.3176644  68.3071107  77.2752243  24.2073906  69.5620659  76.7335805
  24.4267837  68.8117056  76.6840830  40.1578464  70.0152215  75.7874718
  40.6532130  69.2975210  75.7478738  39.3478240  69.7123013  75.6729205
  40.1122358  69.8649861  75.7648444  35.6037076  73.8650028  67.9371722
  34.7948399  73.5416702  67.8905032  36.1111985  73.1583251  67.8699971
  35.5586743  73.7131345  67.9202017  26.2327353  71.2922222  73.6619086
  25.3672873  71.2807912  73.5501858  26.3326169  71.1052444  74.5090226
  26.1201520  71.2628283  73.7708031  42.2230283  72.7655903  78.4751846
  42.6485355  72.2430325  77.9222272  41.8587203  73.3636740  77.9540469
  42.2316886  72.7766130  78.3160856  31.8584363  81.0620120  77.2349192
  32.1730922  81.8756509  77.2426974  32.2677777  80.6770339  77.9031351
  31.9652461  81.1248823  77.3353284  38.8108883  76.4790167  74.8053004
  39.2820061  77.1930430  74.9742989  39.1469061  75.8788917  75.3412873
  38.9303998  76.4961631  74.9085380  40.8985867  78.0891480  86.9845076
  41.0082833  77.3000041  87.3401823  41.2276764  77.9997417  86.1819414
  40.9638273  77.9597333  86.9187467  35.7278378  61.2517638  81.7611099
  35.8606283  60.4548631  82.0892074  36.1123531  61.7784041  82.3409374
  35.8034707  61.2117554  81.8954602  39.4482829  76.2708101  81.5680697
  38.9003775  75.6465985  81.3000762  39.9095858  76.4602373  80.8524776
  39.4350039  76.2067151  81.4231128  38.8010733  58.1747964  78.3592192
  37.9956697  58.0645693  78.6760030  38.6717468  58.2760419  77.5022058
  38.6630866  58.1731634  78.2800232  42.2576693  64.3393456  78.9531889
  41.6739682  64.8402662  78.5409456  42.5780988  63.8323012  78.3196212
  42.2189869  64.3385291  78.7990396  34.7971493  63.2534050  69.2290564
  35.6187187  63.4232363  68.9872259  34.3341144  63.4081311  68.5056861
  34.8502655  63.3015783  69.0862208  33.3866825  61.2476813  80.0088992
  33.9311238  60.9067939  80.5993334  33.4403760  62.1062274  80.1510277
  33.4755944  61.3232072  80.1170866  29.1997383  75.0093229  76.8827800
  29.8042241  74.9689063  76.2541621  28.9924696  75.8564381  76.9131856
  29.2586281  75.1281231  76.7943917  39.0141155  77.2759174  78.0990038
  39.8339529  77.1322140  78.3606333  38.7335233  77.9005373  78.6406476
  39.0937899  77.3469526  78.2177977  24.4348666  73.9927846  76.7526724
  24.3372944  73.1824118  77.0616780  25.2177535  73.9719640  76.3672992
  24.5364802  73.8694936  76.7413586  55.4854806  84.9324025  71.0632914
  55.4548810  85.7868662  71.2351184  56.0836155  84.6319318  71.6219058
  55.5691964  85.0140522  71.1707716  48.6854491  84.0199676  75.8185845
  47.8292386  84.1808175  75.8694961  48.7322144  83.1491740  75.8390906
  48.5653602  83.9150478  75.8291911  43.0695630  93.5562394  71.5823076
  42.3178530  93.1777933  71.3539121  43.5181642  93.5880828  70.8341886
  43.0245297  93.5048002  71.4380578  51.9948207  90.2886202  85.4246301
  52.7014974  89.7938233  85.5533235  52.1836143  90.7295284  84.6948959
  52.1276113  90.2804552  85.3355346  48.5220590  93.9787764  67.0108623
  48.1871959  94.6564685  66.5752845  49.0347461  93.5893075  66.4225495
  48.5486171  94.0212342  66.8595415  48.0624882  95.9302033  72.9519735
  48.4464261  96.4988931  72.4124510  47.9984023  95.2051543  72.4725551
  48.1098309  95.9077496  72.8013597  51.5306312  86.0791720  78.4617496
  52.0762272  86.7576807  78.5211466  51.4723188  85.9379181  77.6019078
  51.6022226  86.1583722  78.3429557  44.6480387  93.5680787  73.8485849
  44.7490749  92.7581140  74.1582976  44.0522132  93.4737733  73.2185527
  44.5752925  93.4345815  73.8012087  53.3071380  87.5076327  69.3351224
  53.1910906  88.2584014  69.7643362  54.1027267  87.2500281  69.5847311
  53.4075970  87.5811174  69.4355316  44.4881126  98.4858376  75.2500705
  45.1318582  98.9271540  75.6396863  44.8137382  97.6811802  75.1630963
  44.6312955  98.4323570  75.2946182  37.8445431  89.5901073  73.4738182
  37.6095615  88.7568725  73.3670451  37.9831072  89.8705739  72.6599383
  37.8301093  89.5084576  73.3380537  40.1435518  81.7586804  76.3722490
  39.5240550  81.1679451  76.2032505  40.0419382  82.3498239  75.7386813
  40.0373194  81.7590886  76.2527480  45.1901706  91.4970351  70.6220566
  45.5117547  92.0375558  70.0181874  45.8373802  90.9267122  70.7542856
  45.3327761  91.4929526  70.5527602  47.2403414  83.4986345  70.7054953
  47.9383579  83.6774473  71.1976416  47.5555746  82.9756685  70.0825342
  47.3898751  83.4480118  70.6856963  39.8704651  85.3039085  78.6166059
  39.7463348  85.8901531  79.2515878  40.5222936  84.8099281  78.9178334
  39.9478301  85.3177890  78.7551988  47.4291349  89.8856791  70.6934745
  47.8684985  89.2773891  71.1389517  47.2796012  89.5064164  69.9220210
  47.4712815  89.7395262  70.6453912  44.8962992  88.4800802  77.8953570
  45.5411995  87.9873245  77.5764519  45.1364769  88.6225589  78.7219648
  45.0273577  88.4278245  77.9703103  47.4349084  91.3255708  77.5460463
  47.7172327  90.5307114  77.3247218  48.1635244  91.8036296  77.5665524
  47.5838647  91.2790305  77.5163478  45.4130278  78.8678742  74.7876228
  45.0833608  79.3189886  74.1179926  44.7375279  78.7894905  75.3349234
  45.2640714  78.9229877  74.7699451  51.0300686  88.2383972  67.6465514
  50.9451981  89.0944938  67.7915083  51.5185069  87.9628296  68.3147673
  51.0889583  88.3241293  67.7667595  52.6206685  74.8564265  73.0325838
  52.3060126  75.5467744  73.4646261  52.1033627  74.8009047  72.3311339
  52.4971156  74.9499154  72.9922787  51.9619119  84.8568766  69.1463249
  51.4330591  85.0728399  69.8060555  52.4844139  85.5504904  69.0664218
  51.9607572  84.9911903  69.2318848  57.4167172  90.4315070  74.5196293
  56.5864875  90.6425714  74.6829710  57.3676424  89.6052125  74.2438577
  57.2873907  90.3404677  74.5033659  43.8518727  88.7531983  67.9470717
  43.2675942  89.2582014  68.3536581  43.4488822  88.5274370  67.2067309
  43.7058031  88.7940231  67.8975742  39.4062755  94.4686744  74.7494388
  38.9230334  95.1937234  74.7253972  40.2186074  94.7662874  74.8604546
  39.4553503  94.6189098  74.7621668  45.4776910  93.2618925  77.3544203
  44.9603851  92.9026340  76.7505511  46.1751301  92.7381099  77.3650269
  45.5042491  93.1316613  77.2674462  49.1340502  93.7113739  83.3160376
  49.2223847  93.5239879  84.1638586  49.5630214  93.0651168  82.9165223
  49.2102604  93.5876746  83.3832127  46.7010961  92.9944899  82.2978038
  46.1381796  92.5817508  82.8217699  47.4631985  92.9197804  82.7171181
  46.7305410  92.9222299  82.4371038  48.3095941  84.9997635  66.4239638
  48.5491945  85.2075619  65.6114981  48.6311782  84.1955144  66.5328582
  48.3933099  84.9111736  66.3200191  43.6186232  76.9291031  70.2699175
  44.3732200  77.2969348  70.0316226  43.4413766  77.3030585  71.0378355
  43.7040710  77.0389218  70.3484064  42.2606953  94.9842920  74.9014668
  42.9627532  94.4694909  74.9587425  42.1804436  95.3117071  75.7061543
  42.3530713  94.9557146  75.0287460  56.9121130  83.0785471  78.3146715
  56.0749551  83.1487658  78.5494309  56.8809361  83.0809966  77.4421017
  56.7839413  83.0895698  78.2206263  43.3085859  85.2218507  84.0295083
  43.4806363  85.1124401  84.8780365  43.8455217  85.8672912  83.7926276
  43.4130863  85.3010508  84.1200180  41.9743296  79.3361350  66.9677288
  41.7918869  79.5533230  66.1418281  42.8368909  79.4500362  67.0235903
  42.0747886  79.3851247  66.8531775  41.5857728  91.1749272  74.4100276
  42.4246628  91.4072205  74.4574038  41.6169497  90.3053583  74.3407312
  41.7139446  91.0806218  74.4064921  42.2110431  91.5950147  78.7113582
  42.7508656  91.4521278  79.3816954  41.5280377  91.9946898  79.0797608
  42.1902585  91.6329818  78.8648004  47.6543015  76.3387760  70.0026312
  48.3829176  76.1603715  69.5564469  47.7437908  77.1805840  70.2133490
  47.7749677  76.4371639  69.9679830  51.6351316  87.2741148  73.9058606
  52.3908831  87.7072662  73.9447515  51.7413641  86.6245917  74.4793242
  51.7621487  87.2418631  73.9956632  54.6731487  91.1014425  74.6561009
  54.2366719  91.1051167  75.4119981  54.3394403  91.7819924  74.2240587
  54.5594107  91.2026881  74.7041842  49.2460561  93.1422758  85.9804160
  50.0300977  93.2553605  86.3459902  49.0457155  92.3163895  86.1762845
  49.3326586  93.0369477  86.0638546  37.6147576  87.8150438  78.8648003
  37.3485992  86.9989554  79.0238994  37.6286140  87.8603593  77.9943519
  37.5772299  87.7007343  78.7601485  54.5928970  78.1428253  76.8990437
  55.2354879  78.2126357  77.4852352  54.8451991  77.4757476  76.3969979
  54.7251102  78.0554601  76.9117716  41.5205323  82.6135522  65.4799761
  40.8063500  82.3273702  65.8922194  42.0049292  82.9532148  66.1206149
  41.4864687  82.6217172  65.6355396  42.3646183  81.3528816  81.5115011
  41.6717979  80.8825796  81.7575743  42.9806510  81.1267121  82.0856718
  42.3530713  81.2495948  81.6324164  49.4030954  95.0532860  79.6270615
  48.6046200  94.8132360  79.8844484  49.8516966  95.1047253  80.3737663
  49.3505565  95.0255251  79.7755539  57.8075833  87.8195345  73.5480646
  58.4692268  87.2586013  73.4476555  57.1667245  87.3247375  73.8733338
  57.8104701  87.6631754  73.5812987  48.6952641  91.1165476  65.8561570
  49.1103790  90.7850500  65.1646065  47.8644571  90.8834378  65.7281706
  48.6340650  91.0336732  65.7352417  38.0240990  88.6009217  76.1459748
  37.8416563  88.5756103  75.2932040  38.7590659  89.0708155  76.1848656
  38.1055054  88.6670579  76.0257666  54.0940664  88.8360727  73.2892635
  54.3296253  88.9805926  72.4619486  54.2430228  89.6003135  73.6824149
  54.1506467  88.9699782  73.2256239  41.0886742  85.3194220  82.6541856
  41.8126714  85.3047251  83.1406751  41.1902878  86.0289575  82.1563825
  41.2104951  85.4218923  82.6520643  55.9231121  87.6762393  71.1262239
  56.2539338  88.2090033  70.5202334  56.4964209  87.7301281  71.7824190
  56.0564800  87.7631962  71.1340021  48.4631691  88.7993305  87.5190803
  47.6704672  89.1136816  87.7043423  48.5780618  89.0144773  86.6811588
  48.3627102  88.8777141  87.4229138  51.1363010  85.5227296  71.8085819
  51.2309864  86.2616590  72.2625445  50.5121854  85.0944771  72.2420384
  51.0572040  85.5688616  71.9393967  49.3915484  88.7013508  82.4576100
  49.9654345  88.0640753  82.6124664  49.3130288  88.7017591  81.5885758
  49.4648719  88.6078620  82.3522511  37.9911900  85.4802718  76.2958814
  38.5685403  85.3439169  76.9351060  37.2925962  85.0238502  76.5504399
  37.9732922  85.3924984  76.4281104  51.3886031  87.3676036  65.0422771
  51.3066194  87.4378223  65.9077758  52.0265752  87.9305779  64.8506512
  51.4705869  87.4615007  65.1412721  44.7479202  87.1336774  74.5097297
  44.4898447  86.3008508  74.4828597  44.8027685  87.3594386  73.6689798
  44.7178980  87.0434545  74.3817434  49.8280253  79.2365224  74.6101390
  49.1236579  78.7474410  74.7685309  49.8765227  79.2487699  73.7389835
  49.7310304  79.1654872  74.5040730  43.7213915  84.6874536  74.9962192
  43.1463506  84.8466704  75.6326153  43.3449591  84.0509945  74.5330643
  43.5816727  84.6172349  75.0216751  47.3887203  83.1597885  79.8554571
  47.0001636  82.7352103  79.2006762  46.7241902  83.4080035  80.3631597
  47.2334131  83.1336606  79.8342439  57.0310472  82.9172890  72.6302401
  56.7747037  82.1052831  72.4400283  57.8739786  82.9250457  72.4032588
  57.1176498  82.7984887  72.5687218  33.4670733  84.3314611  73.0106633
  33.5530985  83.9546479  73.7920163  34.0946531  83.9575056  72.5326591
  33.5727284  84.2200093  73.0552110  51.2113565  76.8572514  77.3678555
  51.5924077  76.1750685  77.7546429  50.4076849  76.5682116  77.1854219
  51.1490026  76.7139563  77.3982611  48.4926141  87.3896490  68.0531378
  49.3066780  87.6811383  67.9414149  48.4285283  86.7356352  67.4789671
  48.6028881  87.3361685  67.9520215  54.7135632  90.0722486  82.4660953
  54.4774269  89.2410551  82.3473014  55.3578861  90.0208093  83.0515797
  54.7730302  89.9420174  82.5346847  44.3634050  90.8618007  73.1803690
  45.0007997  90.6229755  73.7255483  44.7889121  91.0655166  72.4456850
  44.5210216  90.8569018  73.1520847  39.0546692  93.1006344  77.0637993
  39.0950837  93.3721195  76.2357773  39.6141216  93.6248252  77.4795781
  39.1430038  93.2182099  77.0029882  45.0036865  86.0820297  67.5178579
  45.3882018  85.8628004  68.2695124  44.7548485  86.9083242  67.6479655
  45.0238937  86.1718443  67.6479655  45.1705405  79.3626712  87.2341163
  44.8558846  80.1326275  86.9710726  44.8495338  78.7996968  86.6493390
  45.0764324  79.3936981  87.1082513  55.7372052  89.8566935  78.5289248
  55.4317869  90.5894992  78.8902563  55.0178268  89.4504864  78.2482034
  55.5859395  89.9048668  78.5402385  46.7455522  91.3390430  74.8597476
  46.8194530  91.1765602  75.7139326  47.5625028  91.5280619  74.6157958
  46.8771880  91.3427172  74.9495502  61.4373844  86.4959935  77.8557592
  61.3698345  86.5155895  76.9860179  61.4229507  87.3390263  78.0813263
  61.4252601  86.6233670  77.7610069  40.5061278  91.6848293  71.8891919
  39.6799396  91.9310030  71.7626198  40.5673270  91.6060374  72.7553978
  40.3935445  91.7093242  71.9980864  42.7237302  77.7517234  72.8487360
  41.8559728  77.8239833  72.9144969  43.0112506  78.5539313  73.0375335
  42.6377050  77.8811381  72.8862126  51.8470191  77.8995093  81.1798681
  52.5923783  77.7104904  80.7662107  51.4307496  78.4253331  80.6212538
  51.8955165  77.9497239  81.0363255  45.2860107  94.3025173  69.5910949
  45.5758406  93.9114154  68.8670176  46.0163588  94.4841878  70.0316225
  45.4366992  94.2718987  69.5493756  59.2232462  85.2704322  76.1304186
  59.7740383  84.6372391  76.3701278  59.2076577  85.8019714  76.8219691
  59.3017658  85.2553270  76.2683045  45.8754853  89.1042919  80.6764080
  45.3766546  89.8158687  80.7548968  46.6855077  89.4243585  80.6382242
  45.9210959  89.2569768  80.6820648  43.2266023  96.2792555  72.6571099
  43.0066318  95.9889910  73.4497766  43.0060545  95.6207510  72.1289011
  43.1613617  96.1392264  72.6960008  42.1382970  88.3665872  74.9226801
  41.8496219  87.7403343  75.4572528  43.0066318  88.3086159  74.9891481
  42.2243222  88.2653416  75.0117755  52.9260868  83.5100655  75.2408783
  52.5825634  82.7890991  75.5916032  53.0253911  83.3014506  74.3987141
  52.8902911  83.3724859  75.1680463  45.3933979  97.6521945  71.4401791
  46.0458037  97.1198388  71.6692818  44.6959587  97.2990598  71.8269665
  45.3864697  97.5211468  71.5313959  42.3415244  90.0061123  70.8469166
  43.0961212  90.3874162  71.0604628  41.7485856  90.4572267  71.3015862
  42.3651957  90.1289950  70.9452044  53.3873897  89.9726359  70.7832771
  53.9531930  90.6319569  70.6991314  52.7401801  90.3176057  71.2549173
  53.3752654  90.1208301  70.8405527  44.8021911  81.9623963  85.9726378
  43.9921686  82.2681743  85.8616220  45.2796597  82.6829546  86.0878962
  44.7525389  82.1138564  85.9733449  43.6613470  91.1769684  76.2209281
  43.1394224  91.3169976  76.9061146  44.0487490  90.4180349  76.4111399
  43.6417171  91.0855208  76.3510358  40.6504654  81.2275493  70.2904236
  40.3629450  80.8576763  69.5536183  41.3375122  81.6970348  70.0287941
  40.7093552  81.2422462  70.1419312  49.8580475  92.9165144  70.2069850
  49.6167151  92.1833004  69.7996915  50.0381808  93.4652001  69.5536183
  49.8488099  92.8887535  70.0500073  45.0879796  88.2073703  71.6190772
  44.8922578  88.8148438  71.0251075  45.3114141  87.5141647  71.1382446
  45.0914437  88.1951229  71.4606853  43.4858326  85.0928441  71.7371641
  44.2080978  85.2569599  71.2775447  43.0066319  85.8138106  71.6310980
  43.5222056  85.2226671  71.6537255  51.4451833  81.4292240  77.1168325
  50.6062934  81.4553519  76.8806589  51.5156201  82.0762975  77.6973672
  51.3320227  81.5288366  77.1677442  41.1365942  87.4986514  80.8425780
  41.6487039  87.7770767  80.1934540  40.8502285  88.2375808  81.2088593
  41.1700806  87.6488867  80.8015658  49.8921112  78.3277617  71.8495941
  50.5947464  78.1285365  71.3715900  49.6265300  77.5553559  72.1564785
  49.9567744  78.1840583  71.8241383  55.3209357  86.6360227  74.4029567
  55.2343332  86.7915653  75.2564346  54.8659837  87.2798302  74.0288972
  55.2412614  86.7535982  74.4736674  38.2232849  82.0056706  71.1389517
  38.3248985  82.8082867  71.4670492  39.0188736  81.8044041  70.8412597
  38.3560754  82.0942604  71.1424872  44.6549668  79.5912902  80.9026822
  44.4632865  79.6068037  81.7526246  45.5048264  79.7876577  80.8793477
  44.7525390  79.6227253  81.0250117  39.0396581  82.1203884  78.8810638
  38.8982073  81.2687824  79.0055146  39.3237144  82.1632544  78.0572844
  39.0604427  82.0003634  78.7778263  49.1935173  83.9570974  73.0255127
  48.9469888  83.8766725  73.8591916  49.5220296  83.1724442  72.8317654
  49.2056417  83.8297239  73.1202650  53.0883222  90.6654333  76.8141908
  52.9497581  91.3635379  77.3190650  52.3083220  90.5102990  76.4578090
  52.9526449  90.7454500  76.8368182  51.4261307  86.9650709  83.0664290
  51.4209346  86.0930525  83.0706716  52.1322301  87.1638878  82.5933745
  51.5306311  86.8654583  82.9971325  45.1532201  86.6927692  82.4378110
  45.2975576  87.2728901  81.8021220  45.5007849  87.0703989  83.1427964
  45.2259662  86.8348397  82.4477105  47.3252118  85.8917861  80.2203241
  46.5775432  86.0848875  79.8151519  47.4793643  85.0663080  79.9827363
  47.2374546  85.7982972  80.1248647  44.2259956  94.8830464  79.3039137
  44.3749519  94.3233380  78.6512541  45.0059958  94.9622466  79.6871655
  44.3634049  94.8116030  79.2636086  54.5836595  90.0232587  67.5758407
  54.2043404  89.2369725  67.5687697  53.9202840  90.5719444  67.4330051
  54.4295070  89.9877411  67.5539204  46.7513256  95.0545107  80.5823627
  46.6756927  94.3853918  81.1374416  46.6803115  95.7562895  81.0964294
  46.7293863  95.0590015  80.7400476  47.5653895  79.7868412  81.1098645
  48.0226509  80.5192386  81.2371437  47.6410224  79.3634877  81.8685901
  47.6444865  79.8325650  81.2399722  39.8086886  80.0334231  82.1988089
  39.2729076  79.4214589  82.5148856  39.8704651  80.6082367  82.8521755
  39.7382519  80.0281159  82.3423516  52.0381221  72.9658287  74.9792488
  52.1564789  73.4234750  74.2459791  51.8643397  72.1603548  74.6928706
  52.0300392  72.9152059  74.8293422  47.4083503  93.5746106  71.4147233
  48.1733394  93.3055750  71.0929898  47.3061593  93.0896116  72.1317296
  47.5064999  93.4635671  71.4727061  45.4436273  81.7770516  77.9540469
  44.6532348  81.5961976  78.2757805  45.8396896  80.9997468  77.9370764
  45.3853149  81.6357976  77.9993018  49.9302164  90.6058290  63.3947183
  50.6975149  90.6658415  62.9853035  49.4833473  90.0338731  62.9103501
  49.9775591  90.5294866  63.2624893  50.8279959  89.4112946  75.6799915
  50.1524961  89.1798178  76.1813302  50.8372335  88.8034129  75.0542020
  50.7298464  89.2871871  75.6616067  47.9574103  84.2530775  82.4363968
  47.8933244  85.1140731  82.3084105  48.0971291  83.9362768  81.6359519
  47.9689573  84.3330941  82.2992181  52.8296694  92.2678078  67.9110093
  52.9116531  93.0745064  67.5871544  53.3146436  92.2874037  68.6350867
  52.9133852  92.3898740  67.9696992  46.6393197  86.9462914  76.5780171
  46.2155446  87.1467413  75.8419189  46.4638052  86.0991762  76.6904471
  46.5504078  86.8511695  76.4853861  46.1404890  98.4613427  79.0401628
  46.6300821  97.7624216  78.8577293  45.5689123  98.1637297  79.6277686
  46.1289420  98.3139651  79.1002669  41.9275642  87.4414965  72.0108144
  42.0840261  87.3761768  72.8664136  42.2676235  88.2163518  71.7986823
  42.0008877  87.5464164  72.1062738  48.4654787  86.8172849  70.8801507
  49.0070332  86.3143230  71.3440127  48.7801346  86.7638044  70.0690992
  48.5919184  86.7352270  70.8285319  52.3371894  91.0275496  87.9928419
  53.1506759  90.7560645  88.1533551  52.1766860  90.7283036  87.1888615
  52.4341842  90.9430422  87.8973825  46.6341236  92.2090201  68.1641535
  46.7034057  91.3504739  68.3034535  47.4129691  92.4262081  67.8360559
  46.7594086  92.1143065  68.1358692  49.6144056  81.7109154  80.9323807
  49.8286026  81.0720068  80.3787161  48.9977955  82.1554977  80.5031669
  49.5549385  81.6819297  80.7874238  51.0248724  94.6327902  72.3778028
  50.6328516  94.3294617  71.6600894  51.1801796  95.4696992  72.1882982
  50.9902314  94.7111739  72.2434525  38.5009904  84.6249916  72.3268911
  38.8808868  85.0434461  71.6629178  37.9265268  85.2063372  72.6337754
  38.4721228  84.7727775  72.2745652  51.7783144  83.3198219  81.8707114
  50.9659826  83.0124109  81.9520287  52.2373079  82.8397219  82.4349826
  51.7263529  83.2034711  81.9661708  51.1888399  91.1977891  72.3184059
  50.8303053  91.3692534  73.0948091  50.7027109  91.6591096  71.7612057
  51.0647096  91.2916862  72.3509328  49.0058785  74.8209089  75.9211150
  48.1352343  74.7947810  75.8744459  49.2599126  74.6486281  75.1036996
  48.9152345  74.7919233  75.7931287  45.9776764  86.8777056  64.8584293
  46.2669289  87.6541939  65.1327867  46.0648563  86.3665788  65.5598792
  46.0331020  86.9168974  65.0026791  48.8736652  84.7258290  86.6535817
  49.3436283  85.3500407  87.0403691  48.9198532  84.0575266  87.2129031
  48.9504527  84.7192970  86.7935888  46.0307925  76.8315318  77.3784620
  45.5146414  76.1395509  77.5036199  45.4701854  77.4986095  77.3247219
  45.8714438  76.8278575  77.3890686  48.1000159  77.3708278  79.2077473
  47.7131912  77.3957309  79.9891003  47.6133096  76.8049956  78.7551990
  47.9712668  77.2904029  79.2565377  52.3493138  92.0881787  83.2651259
  52.9872859  91.5941982  82.9313716  51.7067230  92.0159187  82.6803486
  52.3487365  92.0040795  83.1293614  54.0750138  83.9370933  77.8317175
  53.6477746  83.8497281  77.0765275  53.4376191  84.0448708  78.4172019
  53.9179745  83.9403592  77.8062617  47.7657300  74.2575263  81.4987733
  48.3950418  74.7935563  81.2208803  47.9343163  74.1652622  82.3501299
  47.8835095  74.3236625  81.5836261  47.5671215  79.0446458  83.7714144
  48.3944645  78.7731607  83.8272759  47.5879061  79.8407300  84.1277963
  47.6924065  79.1226212  83.8329327  52.4047395  92.7801595  79.9056616
  53.1939773  92.4290660  80.0258698  52.5790992  93.5937983  79.6433250
  52.5467676  92.8487452  79.8844484  42.1440705  86.1910321  76.9584405
  41.3028712  86.0914195  77.1663299  42.3530713  86.9605801  77.3098726
  42.0505398  86.2902364  77.0411720  39.6216272  83.8129858  74.7869156
  39.2272970  83.8872869  74.0119265  39.0656389  84.1987804  75.3377518
  39.4819084  83.8811632  74.7536816  51.2581219  76.7911152  74.4673035
  51.4630812  76.7233459  75.3130032  50.9307643  77.5969973  74.3994212
  51.2396467  76.8997092  74.5832690  45.9557370  84.1191720  76.2082003
  45.6520507  83.5647708  76.8092410  45.2536791  84.2983930  75.7210037
  45.8073580  84.0636502  76.2251708  45.0123467  81.4292240  70.7726704
  45.2883201  80.7111152  70.3604272  45.6122136  82.0277160  70.5647811
  45.1416732  81.4112610  70.6807466  44.0175721  91.3341441  80.9154100
  43.9096076  91.3443503  81.7816158  44.2271502  92.1596221  80.7259054
  44.0325832  91.4582515  81.0158192  54.5114907  77.3442916  73.9475800
  53.8989220  77.8313318  74.3329532  54.6079081  76.6686407  74.4913451
  54.4352804  77.3161225  74.0854658  48.5133988  79.1005757  69.0473299
  48.9677734  79.2716317  69.7721144  48.9874033  78.4873868  68.6471075
  48.6502308  79.0356642  69.0947061  42.0349513  88.5854083  78.3776038
  41.4437446  89.2263581  78.3479053  42.7970536  89.0091700  78.3507337
  42.0597774  88.7429921  78.3691185  42.4310136  79.7456081  79.0444056
  42.8911617  79.8195010  79.7819179  42.4766242  80.5437335  78.6943877
  42.5060691  79.8750228  79.1016812  44.0793485  80.4122776  83.6116083
  43.6879051  79.7656123  84.0471860  44.2479348  81.0034211  84.2310338
  44.0464396  80.4037043  83.7678789  58.1539934  88.4159853  79.3753316
  58.2123058  88.8646501  80.1213293  57.5206402  88.8258665  78.9383396
  58.0691230  88.5433587  79.4205865  51.7939029  94.0363395  75.8108062
  51.5958718  94.5254209  75.1164274  51.1726740  94.2404636  76.3892196
  51.6726594  94.1379933  75.7931286  45.8547008  85.8048291  70.1518307
  46.5989052  86.1922568  70.3901257  46.0007704  84.9605717  70.3158795
  45.9857593  85.7378764  70.2112276  47.7726583  77.5998550  75.1850168
  46.9262628  77.7721358  75.0591518  47.7697715  76.7947894  75.5215996
  47.6473733  77.5059579  75.2161295  48.8424883  81.3773765  76.0512226
  48.3684838  80.8515527  76.5617537  49.2143019  80.8303238  75.4827088
  48.8274772  81.2189761  76.0427373  39.2197913  83.3745271  81.4195772
  40.0823527  83.2740981  81.3333102  38.8889697  82.7939981  80.8581344
  39.2983110  83.2736898  81.3241178  55.1061614  86.4376140  77.4619007
  54.8659837  85.5982555  77.4661433  55.5853621  86.5176307  78.1859780
  55.1413798  86.3257540  77.5693809  50.7708383  82.2710319  69.1137980
  50.2431402  82.3539063  68.4243689  51.2304091  83.0128191  69.1102625
  50.7610233  82.3930982  69.0112675  57.1066801  83.2177598  75.4148266
  56.8676571  83.1773432  74.5769050  57.2700702  84.0648750  75.5413987
  57.0957104  83.3369683  75.3101748  53.7112831  87.6027547  81.3453311
  54.4347030  87.1500073  81.1664331  53.4462793  87.8832213  80.5625639
  53.7794104  87.5778515  81.2032026  42.5799699  82.1987720  78.0806190
  41.9552770  82.2106112  77.4732143  42.2445294  82.6747896  78.7297430
  42.4385191  82.2706237  78.0862759  42.7641448  80.5412839  64.1378875
  42.4154252  81.1932564  64.6010424  42.2837894  80.5269952  63.4102746
  42.6411692  80.6355892  64.0989966  39.2925375  90.2588180  79.5209954
  38.7625300  89.5680619  79.5704929  39.5650468  90.2498366  78.6922663
  39.2550097  90.1555312  79.4057370  50.3245466  90.8413883  68.2447637
  51.0479664  91.3071996  68.1012210  49.8846057  90.9087492  67.4945234
  50.3661158  90.9197720  68.1132418  49.4931621  87.7011425  79.4948326
  48.8788614  87.1569475  79.7896961  50.0098906  87.1875662  79.0154142
  49.4787283  87.5447834  79.4672554  48.7327918  88.7715695  77.2292625
  48.3055526  88.1465414  76.7958060  48.7252862  88.4890617  78.0551632
  48.6687059  88.6368476  77.2872452  41.8490445  83.8080868  80.2981059
  42.0083932  83.0524192  80.7032780  41.6683338  84.3571808  80.9521796
  41.8455804  83.7774682  80.4543764  49.7910748  75.9742104  80.8531848
  49.2951309  76.1705778  80.1623415  50.5479810  76.3734772  80.6820650
  49.8297573  76.0619838  80.7251985  47.0613627  79.6484450  77.4435159
  47.0856115  79.1144562  76.7547939  47.3125101  79.1401758  78.1060749
  47.1023546  79.4945354  77.4399803  34.5721217  86.9315945  76.8778303
  34.4664666  86.8862789  76.0130387  33.8221437  87.2769725  77.1592587
  34.4456820  86.9756853  76.7915632  43.3414950  78.3755268  76.8240903
  43.3813321  78.8764474  77.5375610  42.5164614  78.4665662  76.5546826
  43.2254476  78.4637084  76.8891441  45.5244563  87.9416008  84.9261197
  44.6740193  88.0787722  85.0618842  45.6872690  87.2079786  85.3708899
  45.4228426  87.8530109  85.0116797  44.7629313  84.8915778  79.1214802
  43.9321243  85.0589596  78.9150050  44.7080830  84.5151729  79.9063687
  44.6318728  84.8605509  79.2063330  42.5713096  78.3824671  84.7571213
  43.1965800  77.8386803  85.0300645  42.1163576  77.9019588  84.1879003
  42.5961357  78.2314152  84.7132806  43.1365357  83.1671369  69.6504920
  43.2768318  83.6643834  70.3533561  43.6347890  82.4657664  69.7919133
  43.2306438  83.1373348  69.7756499  43.1665579  84.0338480  66.9797496
  43.8010659  84.6298905  66.9146958  43.2491190  83.7341938  67.7943367
  43.2722130  84.0779388  67.0900583  56.1448145  86.5653958  79.8483861
  56.7365985  87.2051208  79.8802059  56.5807140  85.8676994  80.1375927
  56.2966576  86.5572308  79.8964693  44.7444562  79.9652456  66.9542938
  45.0660403  79.4855538  66.3002201  45.0071506  80.7752102  66.7633750
  44.8310588  80.0142354  66.8298430  47.9741535  90.9871330  80.4741754
  47.4666626  91.5407177  80.9182385  47.6768181  91.0479620  79.6560529
  47.8546420  91.0777641  80.4190211  50.1403717  79.3524650  79.3166417
  50.5658789  78.8997176  78.7049944  49.5260710  78.7984720  79.5931205
  50.1132362  79.2038626  79.2671443  39.6718567  86.2306321  70.2487042
  40.1810797  86.8270829  70.6298348  40.1452839  85.9632295  69.5663462
  39.8161943  86.2792136  70.2041565  50.5849315  94.9034588  68.4045698
  49.8678625  94.7295450  67.9392935  51.2356053  94.6687160  67.8721184
  50.5751166  94.8430380  68.2574916  48.5797940  75.8239749  72.7256994
  47.9366258  75.6737396  73.2942133  48.2397347  75.5782095  71.9606099
  48.4343017  75.7651872  72.6960010  53.1697286  83.7799176  72.1487003
  52.4988476  84.3228879  72.0200069  53.8637037  84.2494032  71.9068698
  53.1726154  83.9297448  72.0942531  47.2184020  95.9195888  77.3798761
  46.9949675  95.1614718  77.7482788  46.7293863  95.9493909  76.6579201
  47.1127469  95.8118113  77.3275502  53.3325414  80.2355060  75.0577376
  53.6853024  79.8084783  75.7323175  52.4740215  80.1505903  75.1878453
  53.2574859  80.1599801  75.1772387  42.0309099  82.8662580  73.1160223
  41.3121088  83.2826712  73.3833086  42.4021461  83.4316818  72.5651861
  41.9801031  83.0111861  73.0743030  51.3308680  83.4990429  79.0062219
  51.3106607  83.3173724  79.8596997  51.3787880  84.3702447  78.9821802
  51.3343321  83.6006967  79.1285513  49.2755010  90.0877621  84.9310695
  49.2350864  89.4427297  84.3455851  50.0878328  90.0314238  85.2436107
  49.3898163  89.9836587  84.8907644  45.8662477  96.1396346  74.8335846
  45.4522876  95.4770477  74.4439688  46.5509851  96.2874205  74.3131540
  45.9060849  96.0637005  74.6992343  49.2327771  95.2986432  75.5859463
  48.8344054  95.4088702  74.8180283  48.6178991  95.5068498  76.1686022
  49.0826661  95.3460000  75.5590762  47.8055673  81.9060580  68.4533602
  47.2120513  82.2277576  67.9018169  47.8430951  81.0601675  68.2454708
  47.7230062  81.8284908  68.3416374  54.7649474  75.3573472  75.9861689
  54.2580339  74.6502611  75.9182866  55.5616908  75.0266661  76.1162765
  54.8076713  75.2046623  75.9960684  50.6813490  81.8640084  71.8835353
  50.4527183  81.8872785  71.0413711  50.9411566  81.0397551  72.0030363
  50.6859678  81.7456164  71.7760550  44.9632718  83.7174557  81.4860453
  44.4511621  83.1095740  81.8445484  44.7912214  84.4331150  81.9534428
  44.8622355  83.7337856  81.6076676  39.8098433  82.1612132  84.1362815
  39.6401023  82.8213507  83.5911021  39.3664383  82.3718694  84.8575304
  39.7197767  82.2898114  84.1624444  43.7358252  80.4016630  73.1789548
  44.2115619  80.7633710  72.5439729  43.2346852  81.0573098  73.4589691
  43.7323611  80.5510819  73.1266289  56.9669614  89.8738398  68.9702553
  57.3503220  90.6229755  69.2000650  56.1713727  90.1204218  68.7114542
  56.9063396  90.0208092  68.9660127  48.8401789  81.6398802  83.9262708
  49.3973219  81.4112611  83.2941174  48.5162854  82.4004467  83.6497921
  48.8748199  81.7182638  83.7919205  36.7100497  85.0658998  79.3951304
  36.1627217  84.3959643  79.5132173  37.4992876  84.6988846  79.4594772
  36.7452681  84.9123984  79.4220005  46.5584906  84.7266455  84.8914715
  47.3096233  85.0418132  85.2054270  46.7507482  84.5245626  84.0648637
  46.6976320  84.7433837  84.8158111  45.7784905  82.5457830  66.5462932
  46.1583870  82.5637459  65.7614047  45.0377502  82.9911819  66.4253779
  45.7253743  82.6139605  66.4126500  53.4070196  80.8540021  72.1338511
  53.4064422  80.6988678  72.9922787  53.2026376  81.7003008  72.0779896
  53.3769974  80.9560642  72.2526450  35.4687467  84.2779806  76.5497327
  35.2909228  83.8256415  77.2752243  35.1806489  85.0805967  76.7335805
  35.4000420  84.3302364  76.6840830  51.1311048  85.5337523  75.7874718
  51.6264713  84.8160518  75.7478738  50.3210824  85.2308321  75.6729205
  51.0854941  85.3835169  75.7648444  46.5769660  89.3835336  67.9371722
  45.7680982  89.0602010  67.8905032  47.0844568  88.6768558  67.8699971
  46.5319326  89.2316653  67.9202017  37.2059937  86.8107529  73.6619086
  36.3405456  86.7993220  73.5501858  37.3058753  86.6237752  74.5090226
  37.0934104  86.7813591  73.7708031  53.1962867  88.2841211  78.4751846
  53.6217938  87.7615632  77.9222272  52.8319787  88.8822048  77.9540469
  53.2049469  88.2951438  78.3160856  42.8316947  96.5805428  77.2349192
  43.1463506  97.3941817  77.2426974  43.2410360  96.1955647  77.9031351
  42.9385045  96.6434130  77.3353284  49.7841466  91.9975475  74.8053004
  50.2552645  92.7115737  74.9742989  50.1201645  91.3974225  75.3412873
  49.9036581  92.0146939  74.9085380  51.8718451  93.6076788  86.9845076
  51.9815416  92.8185349  87.3401823  52.2009348  93.5182724  86.1819414
  51.9370857  93.4782641  86.9187467  46.7010961  76.7702945  81.7611099
  46.8338867  75.9733939  82.0892074  47.0856114  77.2969348  82.3409374
  46.7767290  76.7302862  81.8954602  50.4215413  91.7893409  81.5680697
  49.8736359  91.1651293  81.3000762  50.8828441  91.9787681  80.8524776
  50.4082622  91.7252459  81.4231128  49.7743316  73.6933272  78.3592192
  48.9689280  73.5831001  78.6760030  49.6450052  73.7945727  77.5022058
  49.6363449  73.6916942  78.2800232  53.2309277  79.8578763  78.9531889
  52.6472266  80.3587970  78.5409456  53.5513571  79.3508320  78.3196212
  53.1922452  79.8570598  78.7990396  45.7704076  78.7719358  69.2290564
  46.5919771  78.9417671  68.9872259  45.3073727  78.9266619  68.5056861
  45.8235238  78.8201091  69.0862208  44.3599408  76.7662121  80.0088992
  44.9043821  76.4253247  80.5993334  44.4136344  77.6247582  80.1510277
  44.4488528  76.8417380  80.1170866  40.1729967  90.5278537  76.8827800
  40.7774824  90.4874371  76.2541621  39.9657279  91.3749689  76.9131856
  40.2318864  90.6466539  76.7943917  49.9873739  92.7944482  78.0990038
  50.8072113  92.6507448  78.3606333  49.7067817  93.4190681  78.6406476
  50.0670482  92.8654834  78.2177977  35.4081249  89.5113154  76.7526724
  35.3105527  88.7009426  77.0616780  36.1910119  89.4904947  76.3672992
  35.5097386  89.3880244  76.7413586  66.4587389 100.4509333  71.0632914
  66.4281394 101.3053970  71.2351184  67.0568738 100.1504626  71.6219058
  66.5424547 100.5325830  71.1707716  59.6587074  99.5384984  75.8185845
  58.8024970  99.6993483  75.8694961  59.7054728  98.6677048  75.8390906
  59.5386186  99.4335786  75.8291911  54.0428214 109.0747702  71.5823076
  53.2911113 108.6963241  71.3539121  54.4914226 109.1066136  70.8341886
  53.9977881 109.0233309  71.4380578  62.9680791 105.8071510  85.4246301
  63.6747558 105.3123541  85.5533235  63.1568726 106.2480592  84.6948959
  63.1008696 105.7989860  85.3355346  59.4953174 109.4973072  67.0108623
  59.1604542 110.1749993  66.5752845  60.0080044 109.1078383  66.4225495
  59.5218755 109.5397650  66.8595415  59.0357465 111.4487340  72.9519735
  59.4196844 112.0174239  72.4124510  58.9716606 110.7236851  72.4725551
  59.0830892 111.4262804  72.8013597  62.5038895 101.5977028  78.4617496
  63.0494855 102.2762115  78.5211466  62.4455772 101.4564489  77.6019078
  62.5754810 101.6769030  78.3429557  55.6212970 109.0866094  73.8485849
  55.7223333 108.2766448  74.1582976  55.0254715 108.9923041  73.2185527
  55.5485509 108.9531123  73.8012087  64.2803964 103.0261635  69.3351224
  64.1643490 103.7769322  69.7643362  65.0759851 102.7685589  69.5847311
  64.3808553 103.0996482  69.4355316  55.4613710 114.0043684  75.2500705
  56.1051165 114.4456848  75.6396863  55.7869965 113.1997110  75.1630963
  55.6045538 113.9508878  75.2946182  48.8178014 105.1086381  73.4738182
  48.5828199 104.2754033  73.3670451  48.9563655 105.3891047  72.6599383
  48.8033677 105.0269884  73.3380537  51.1168102  97.2772112  76.3722490
  50.4973133  96.6864759  76.2032505  51.0151965  97.8683547  75.7386813
  51.0105777  97.2776194  76.2527480  56.1634289 107.0155658  70.6220566
  56.4850130 107.5560866  70.0181874  56.8106386 106.4452430  70.7542856
  56.3060345 107.0114834  70.5527602  58.2135997  99.0171653  70.7054953
  58.9116162  99.1959781  71.1976416  58.5288330  98.4941993  70.0825342
  58.3631335  98.9665426  70.6856963  50.8437235 100.8224393  78.6166059
  50.7195932 101.4086839  79.2515878  51.4955519 100.3284589  78.9178334
  50.9210884 100.8363198  78.7551988  58.4023933 105.4042098  70.6934745
  58.8417568 104.7959199  71.1389517  58.2528596 105.0249472  69.9220210
  58.4445399 105.2580570  70.6453912  55.8695576 103.9986110  77.8953570
  56.5144578 103.5058553  77.5764519  56.1097353 104.1410897  78.7219648
  56.0006161 103.9463552  77.9703103  58.4081667 106.8441016  77.5460463
  58.6904910 106.0492422  77.3247218  59.1367828 107.3221604  77.5665524
  58.5571231 106.7975613  77.5163478  56.3862861  94.3864050  74.7876228
  56.0566191  94.8375194  74.1179926  55.7107863  94.3080213  75.3349234
  56.2373297  94.4415185  74.7699451  62.0033269 103.7569280  67.6465514
  61.9184565 104.6130246  67.7915083  62.4917653 103.4813604  68.3147673
  62.0622167 103.8426601  67.7667595  63.5939269  90.3749573  73.0325838
  63.2792710  91.0653052  73.4646261  63.0766211  90.3194355  72.3311339
  63.4703739  90.4684462  72.9922787  62.9351703 100.3754074  69.1463249
  62.4063174 100.5913707  69.8060555  63.4576723 101.0690212  69.0664218
  62.9340156 100.5097211  69.2318848  68.3899756 105.9500378  74.5196293
  67.5597459 106.1611022  74.6829710  68.3409008 105.1237433  74.2438577
  68.2606491 105.8589985  74.5033659  54.8251310 104.2717291  67.9470717
  54.2408526 104.7767322  68.3536581  54.4221406 104.0459678  67.2067309
  54.6790614 104.3125539  67.8975742  50.3795339 109.9872052  74.7494388
  49.8962917 110.7122541  74.7253972  51.1918657 110.2848182  74.8604546
  50.4286087 110.1374406  74.7621668  56.4509493 108.7804233  77.3544203
  55.9336435 108.4211648  76.7505511  57.1483884 108.2566407  77.3650269
  56.4775074 108.6501920  77.2674462  60.1073085 109.2299047  83.3160376
  60.1956431 109.0425187  84.1638586  60.5362798 108.5836476  82.9165223
  60.1835187 109.1062054  83.3832127  57.6743545 108.5130207  82.2978038
  57.1114380 108.1002816  82.8217699  58.4364568 108.4383112  82.7171181
  57.7037993 108.4407607  82.4371038  59.2828525 100.5182943  66.4239638
  59.5224529 100.7260926  65.6114981  59.6044366  99.7140451  66.5328582
  59.3665683 100.4297044  66.3200191  54.5918815  92.4476338  70.2699175
  55.3464783  92.8154656  70.0316226  54.4146350  92.8215893  71.0378355
  54.6773294  92.5574526  70.3484064  53.2339536 110.5028228  74.9014668
  53.9360116 109.9880217  74.9587425  53.1537019 110.8302379  75.7061543
  53.3263297 110.4742454  75.0287460  67.8853714  98.5970779  78.3146715
  67.0482135  98.6672966  78.5494309  67.8541945  98.5995274  77.4421017
  67.7571996  98.6081006  78.2206263  54.2818443 100.7403815  84.0295083
  54.4538947 100.6309709  84.8780365  54.8187800 101.3858220  83.7926276
  54.3863447 100.8195816  84.1200180  52.9475880  94.8546657  66.9677288
  52.7651453  95.0718538  66.1418281  53.8101493  94.9685670  67.0235903
  53.0480469  94.9036555  66.8531775  52.5590312 106.6934580  74.4100276
  53.3979211 106.9257512  74.4574038  52.5902081 105.8238891  74.3407312
  52.6872029 106.5991526  74.4064921  53.1843015 107.1135455  78.7113582
  53.7241240 106.9706586  79.3816954  52.5012961 107.5132206  79.0797608
  53.1635169 107.1515126  78.8648004  58.6275599  91.8573068  70.0026312
  59.3561759  91.6789023  69.5564469  58.7170492  92.6991148  70.2133490
  58.7482261  91.9556947  69.9679830  62.6083900 102.7926456  73.9058606
  63.3641415 103.2257970  73.9447515  62.7146224 102.1431225  74.4793242
  62.7354070 102.7603939  73.9956632  65.6464071 106.6199733  74.6561009
  65.2099303 106.6236475  75.4119981  65.3126986 107.3005232  74.2240587
  65.5326691 106.7212189  74.7041842  60.2193144 108.6608066  85.9804160
  61.0033561 108.7738913  86.3459902  60.0189739 107.8349203  86.1762845
  60.3059170 108.5554785  86.0638546  48.5880160 103.3335746  78.8648003
  48.3218575 102.5174862  79.0238994  48.6018724 103.3788901  77.9943519
  48.5504882 103.2192650  78.7601485  65.5661554  93.6613561  76.8990437
  66.2087462  93.7311665  77.4852352  65.8184574  92.9942783  76.3969979
  65.6983686  93.5739909  76.9117716  52.4937907  98.1320830  65.4799761
  51.7796084  97.8459010  65.8922194  52.9781876  98.4717456  66.1206149
  52.4597270  98.1402480  65.6355396  53.3378766  96.8714124  81.5115011
  52.6450563  96.4011104  81.7575743  53.9539094  96.6452428  82.0856718
  53.3263296  96.7681256  81.6324164  60.3763538 110.5718168  79.6270615
  59.5778783 110.3317668  79.8844484  60.8249549 110.6232561  80.3737663
  60.3238149 110.5440559  79.7755539  68.7808417 103.3380653  73.5480646
  69.4424851 102.7771321  73.4476555  68.1399829 102.8432683  73.8733338
  68.7837284 103.1817062  73.5812987  59.6685225 106.6350784  65.8561570
  60.0836373 106.3035808  65.1646065  58.8377154 106.4019686  65.7281706
  59.6073233 106.5522040  65.7352417  48.9973573 104.1194525  76.1459748
  48.8149147 104.0941411  75.2932040  49.7323242 104.5893463  76.1848656
  49.0787637 104.1855887  76.0257666  65.0673248 104.3546035  73.2892635
  65.3028837 104.4991234  72.4619486  65.2162811 105.1188443  73.6824149
  65.1239051 104.4885089  73.2256239  52.0619325 100.8379528  82.6541856
  52.7859298 100.8232559  83.1406751  52.1635462 101.5474883  82.1563825
  52.1837534 100.9404231  82.6520643  66.8963704 103.1947701  71.1262239
  67.2271922 103.7275341  70.5202334  67.4696793 103.2486589  71.7824190
  67.0297384 103.2817270  71.1340021  59.4364275 104.3178613  87.5190803
  58.6437255 104.6322124  87.7043423  59.5513202 104.5330081  86.6811588
  59.3359685 104.3962449  87.4229138  62.1095594 101.0412604  71.8085819
  62.2042448 101.7801898  72.2625445  61.4854437 100.6130079  72.2420384
  62.0304624 101.0873924  71.9393967  60.3648067 104.2198816  82.4576100
  60.9386929 103.5826061  82.6124664  60.2862871 104.2202899  81.5885758
  60.4381302 104.1263928  82.3522511  48.9644484 100.9988026  76.2958814
  49.5417986 100.8624477  76.9351060  48.2658546 100.5423810  76.5504399
  48.9465505 100.9110292  76.4281104  62.3618615 102.8861344  65.0422771
  62.2798777 102.9563531  65.9077758  62.9998335 103.4491087  64.8506512
  62.4438452 102.9800315  65.1412721  55.7211786 102.6522081  74.5097297
  55.4631030 101.8193816  74.4828597  55.7760269 102.8779694  73.6689798
  55.6911564 102.5619853  74.3817434  60.8012836  94.7550532  74.6101390
  60.0969163  94.2659718  74.7685309  60.8497810  94.7673007  73.7389835
  60.7042888  94.6840180  74.5040730  54.6946498 100.2059844  74.9962192
  54.1196089 100.3652012  75.6326153  54.3182174  99.5695253  74.5330643
  54.5549311 100.1357657  75.0216751  58.3619787  98.6783193  79.8554571
  57.9734220  98.2537411  79.2006762  57.6974485  98.9265343  80.3631597
  58.2066715  98.6521914  79.8342439  68.0043056  98.4358198  72.6302401
  67.7479621  97.6238139  72.4400283  68.8472370  98.4435765  72.4032588
  68.0909081  98.3170195  72.5687218  44.4403317  99.8499919  73.0106633
  44.5263569  99.4731787  73.7920163  45.0679115  99.4760364  72.5326591
  44.5459868  99.7385401  73.0552110  62.1846148  92.3757822  77.3678555
  62.5656660  91.6935993  77.7546429  61.3809433  92.0867424  77.1854219
  62.1222610  92.2324870  77.3982611  59.4658725 102.9081798  68.0531378
  60.2799364 103.1996691  67.9414149  59.4017866 102.2541660  67.4789671
  59.5761464 102.8546993  67.9520215  65.6868215 105.5907794  82.4660953
  65.4506853 104.7595859  82.3473014  66.3311444 105.5393401  83.0515797
  65.7462886 105.4605482  82.5346847  55.3366633 106.3803315  73.1803690
  55.9740580 106.1415063  73.7255483  55.7621705 106.5840474  72.4456850
  55.4942800 106.3754325  73.1520847  50.0279276 108.6191652  77.0637993
  50.0683421 108.8906503  76.2357773  50.5873800 109.1433560  77.4795781
  50.1162622 108.7367407  77.0029882  55.9769448 101.6005605  67.5178579
  56.3614601 101.3813312  68.2695124  55.7281069 102.4268550  67.6479655
  55.9971521 101.6903751  67.6479655  56.1437989  94.8812020  87.2341163
  55.8291430  95.6511583  86.9710726  55.8227921  94.3182276  86.6493390
  56.0496908  94.9122289  87.1082513  66.7104636 105.3752243  78.5289248
  66.4050453 106.1080300  78.8902563  65.9910852 104.9690172  78.2482034
  66.5591978 105.4233976  78.5402385  57.7188105 106.8575738  74.8597476
  57.7927114 106.6950910  75.7139326  58.5357612 107.0465927  74.6157958
  57.8504464 106.8612480  74.9495502  72.4106428 102.0145243  77.8557592
  72.3430928 102.0341202  76.9860179  72.3962090 102.8575571  78.0813263
  72.3985184 102.1418978  77.7610069  51.4793862 107.2033601  71.8891919
  50.6531980 107.4495338  71.7626198  51.5405853 107.1245682  72.7553978
  51.3668029 107.2278550  71.9980864  53.6969886  93.2702542  72.8487360
  52.8292311  93.3425141  72.9144969  53.9845090  94.0724621  73.0375335
  53.6109634  93.3996689  72.8862126  62.8202774  93.4180401  81.1798681
  63.5656366  93.2290211  80.7662107  62.4040079  93.9438639  80.6212538
  62.8687749  93.4682546  81.0363255  56.2592691 109.8210481  69.5910949
  56.5490989 109.4299462  68.8670176  56.9896172 110.0027186  70.0316225
  56.4099575 109.7904295  69.5493756  70.1965045 100.7889630  76.1304186
  70.7472967 100.1557699  76.3701278  70.1809161 101.3205022  76.8219691
  70.2750242 100.7738578  76.2683045  56.8487436 104.6228227  80.6764080
  56.3499130 105.3343995  80.7548968  57.6587660 104.9428893  80.6382242
  56.8943543 104.7755075  80.6820648  54.1998607 111.7977863  72.6571099
  53.9798902 111.5075218  73.4497766  53.9793129 111.1392818  72.1289011
  54.1346201 111.6577572  72.6960008  53.1115554 103.8851180  74.9226801
  52.8228802 103.2588651  75.4572528  53.9798902 103.8271467  74.9891481
  53.1975806 103.7838724  75.0117755  63.8993452  99.0285963  75.2408783
  63.5558217  98.3076298  75.5916032  63.9986494  98.8199814  74.3987141
  63.8635494  98.8910166  75.1680463  56.3666562 113.1707253  71.4401791
  57.0190620 112.6383696  71.6692818  55.6692171 112.8175906  71.8269665
  56.3597280 113.0396776  71.5313959  53.3147827 105.5246431  70.8469166
  54.0693795 105.9059470  71.0604628  52.7218440 105.9757575  71.3015862
  53.3384541 105.6475258  70.9452044  64.3606481 105.4911667  70.7832771
  64.9264513 106.1504877  70.6991314  63.7134384 105.8361365  71.2549173
  64.3485237 105.6393609  70.8405527  55.7754494  97.4809271  85.9726378
  54.9654270  97.7867051  85.8616220  56.2529181  98.2014854  86.0878962
  55.7257973  97.6323872  85.9733449  54.6346054 106.6954992  76.2209281
  54.1126807 106.8355284  76.9061146  55.0220074 105.9365657  76.4111399
  54.6149755 106.6040516  76.3510358  51.6237238  96.7460801  70.2904236
  51.3362034  96.3762071  69.5536183  52.3107706  97.2155656  70.0287941
  51.6826135  96.7607770  70.1419312  60.8313059 108.4350451  70.2069850
  60.5899735 107.7018312  69.7996915  61.0114392 108.9837308  69.5536183
  60.8220683 108.4072843  70.0500073  56.0612379 103.7259011  71.6190772
  55.8655162 104.3333746  71.0251075  56.2846725 103.0326955  71.1382446
  56.0647020 103.7136537  71.4606853  54.4590909 100.6113749  71.7371641
  55.1813561 100.7754907  71.2775447  53.9798902 101.3323414  71.6310980
  54.4954640 100.7411979  71.6537255  62.4184417  96.9477548  77.1168325
  61.5795518  96.9738827  76.8806589  62.4888784  97.5948283  77.6973672
  62.3052810  97.0473674  77.1677442  52.1098526 103.0171822  80.8425780
  52.6219623 103.2956075  80.1934540  51.8234869 103.7561116  81.2088593
  52.1433389 103.1674175  80.8015658  60.8653695  93.8462925  71.8495941
  61.5680048  93.6470673  71.3715900  60.5997884  93.0738867  72.1564785
  60.9300328  93.7025891  71.8241383  66.2941941 102.1545535  74.4029567
  66.2075915 102.3100961  75.2564346  65.8392421 102.7983610  74.0288972
  66.2145197 102.2721290  74.4736674  49.1965432  97.5242013  71.1389517
  49.2981569  98.3268175  71.4670492  49.9921319  97.3229349  70.8412597
  49.3293338  97.6127912  71.1424872  55.6282251  95.1098210  80.9026822
  55.4365448  95.1253345  81.7526246  56.4780847  95.3061884  80.8793477
  55.7257973  95.1412561  81.0250117  50.0129164  97.6389192  78.8810638
  49.8714656  96.7873132  79.0055146  50.2969728  97.6817852  78.0572844
  50.0337011  97.5188942  78.7778263  60.1667757  99.4756282  73.0255127
  59.9202471  99.3952033  73.8591916  60.4952880  98.6909750  72.8317654
  60.1789000  99.3482547  73.1202650  64.0615806 106.1839641  76.8141908
  63.9230165 106.8820687  77.3190650  63.2815804 106.0288298  76.4578090
  63.9259033 106.2639808  76.8368182  62.3993891 102.4836017  83.0664290
  62.3941929 101.6115833  83.0706716  63.1054885 102.6824186  82.5933745
  62.5038895 102.3839891  82.9971325  56.1264784 102.2113000  82.4378110
  56.2708160 102.7914209  81.8021220  56.4740433 102.5889297  83.1427964
  56.1992245 102.3533704  82.4477105  58.2984701 101.4103169  80.2203241
  57.5508016 101.6034183  79.8151519  58.4526227 100.5848388  79.9827363
  58.2107129 101.3168280  80.1248647  55.1992539 110.4015772  79.3039137
  55.3482103 109.8418688  78.6512541  55.9792541 110.4807774  79.6871655
  55.3366633 110.3301338  79.2636086  65.5569179 105.5417895  67.5758407
  65.1775987 104.7555033  67.5687697  64.8935424 106.0904752  67.4330051
  65.4027653 105.5062719  67.5539204  57.7245840 110.5730415  80.5823627
  57.6489511 109.9039226  81.1374416  57.6535699 111.2748203  81.0964294
  57.7026447 110.5775322  80.7400476  58.5386479  95.3053720  81.1098645
  58.9959093  96.0377694  81.2371437  58.6142807  94.8820185  81.8685901
  58.6177448  95.3510958  81.2399722  50.7819470  95.5519539  82.1988089
  50.2461659  94.9399897  82.5148856  50.8437234  96.1267675  82.8521755
  50.7115102  95.5466467  82.3423516  63.0113804  88.4843595  74.9792488
  63.1297373  88.9420058  74.2459791  62.8375980  87.6788856  74.6928706
  63.0032975  88.4337367  74.8293422  58.3816087 109.0931414  71.4147233
  59.1465978 108.8241058  71.0929898  58.2794177 108.6081424  72.1317296
  58.4797582 108.9820979  71.4727061  56.4168856  97.2955823  77.9540469
  55.6264931  97.1147284  78.2757805  56.8129479  96.5182776  77.9370764
  56.3585733  97.1543284  77.9993018  60.9034747 106.1243598  63.3947183
  61.6707732 106.1843723  62.9853035  60.4566056 105.5524039  62.9103501
  60.9508174 106.0480173  63.2624893  61.8012543 104.9298254  75.6799915
  61.1257545 104.6983486  76.1813302  61.8104919 104.3219437  75.0542020
  61.7031047 104.8057179  75.6616067  58.9306687  99.7716083  82.4363968
  58.8665828 100.6326039  82.3084105  59.0703874  99.4548076  81.6359519
  58.9422157  99.8516249  82.2992181  63.8029277 107.7863386  67.9110093
  63.8849115 108.5930372  67.5871544  64.2879020 107.8059345  68.6350867
  63.8866435 107.9084048  67.9696992  57.6125781 102.4648222  76.5780171
  57.1888030 102.6652721  75.8419189  57.4370636 101.6177070  76.6904471
  57.5236661 102.3697003  76.4853861  57.1137474 113.9798735  79.0401628
  57.6033404 113.2809524  78.8577293  56.5421706 113.6822605  79.6277686
  57.1022004 113.8324959  79.1002669  52.9008226 102.9600273  72.0108144
  53.0572845 102.8947076  72.8664136  53.2408819 103.7348826  71.7986823
  52.9741460 103.0649471  72.1062738  59.4387370 102.3358157  70.8801507
  59.9802916 101.8328538  71.3440127  59.7533929 102.2823352  70.0690992
  59.5651767 102.2537578  70.8285319  63.3104478 106.5460804  87.9928419
  64.1239343 106.2745953  88.1533551  63.1499444 106.2468344  87.1888615
  63.4074426 106.4615730  87.8973825  57.6073820 107.7275508  68.1641535
  57.6766640 106.8690047  68.3034535  58.3862275 107.9447389  67.8360559
  57.7326670 107.6328372  68.1358692  60.5876640  97.2294461  80.9323807
  60.8018609  96.5905376  80.3787161  59.9710539  97.6740285  80.5031669
  60.5281969  97.2004605  80.7874238  61.9981307 110.1513210  72.3778028
  61.6061099 109.8479925  71.6600894  62.1534380 110.9882300  72.1882982
  61.9634897 110.2297046  72.2434525  49.4742487 100.1435224  72.3268911
  49.8541452 100.5619769  71.6629178  48.8997852 100.7248680  72.6337754
  49.4453812 100.2913083  72.2745652  62.7515728  98.8383527  81.8707114
  61.9392409  98.5309417  81.9520287  63.2105662  98.3582527  82.4349826
  62.6996112  98.7220019  81.9661708  62.1620982 106.7163199  72.3184059
  61.8035637 106.8877841  73.0948091  61.6759693 107.1776404  71.7612057
  62.0379679 106.8102170  72.3509328  59.9791368  90.3394397  75.9211150
  59.1084926  90.3133118  75.8744459  60.2331709  90.1671589  75.1036996
  59.8884928  90.3104541  75.7931287  56.9509348 102.3962364  64.8584293
  57.2401872 103.1727247  65.1327867  57.0381146 101.8851095  65.5598792
  57.0063604 102.4354282  65.0026791  59.8469235 100.2443598  86.6535817
  60.3168866 100.8685714  87.0403691  59.8931115  99.5760574  87.2129031
  59.9237111 100.2378278  86.7935888  57.0040509  92.3500626  77.3784620
  56.4878997  91.6580817  77.5036199  56.4434438  93.0171403  77.3247219
  56.8447022  92.3463883  77.3890686  59.0732742  92.8893586  79.2077473
  58.6864495  92.9142617  79.9891003  58.5865679  92.3235264  78.7551990
  58.9445251  92.8089336  79.2565377  63.3225722 107.6067095  83.2651259
  63.9605442 107.1127290  82.9313716  62.6799813 107.5344495  82.6803486
  63.3219948 107.5226103  83.1293614  65.0482722  99.4556241  77.8317175
  64.6210330  99.3682589  77.0765275  64.4108775  99.5634016  78.4172019
  64.8912329  99.4588900  77.8062617  58.7389884  89.7760571  81.4987733
  59.3683002  90.3120871  81.2208803  58.9075747  89.6837930  82.3501299
  58.8567678  89.8421933  81.5836261  58.5403799  94.5631766  83.7714144
  59.3677228  94.2916915  83.8272759  58.5611645  95.3592607  84.1277963
  58.6656649  94.6411520  83.8329327  63.3779978 108.2986903  79.9056616
  64.1672356 107.9475968  80.0258698  63.5523576 109.1123291  79.6433250
  63.5200260 108.3672760  79.8844484  53.1173289 101.7095629  76.9584405
  52.2761295 101.6099503  77.1663299  53.3263297 102.4791109  77.3098726
  53.0237981 101.8087672  77.0411720  50.5948856  99.3315166  74.7869156
  50.2005553  99.4058177  74.0119265  50.0388972  99.7173112  75.3377518
  50.4551668  99.3996940  74.7536816  62.2313802  92.3096460  74.4673035
  62.4363396  92.2418767  75.3130032  61.9040226  93.1155281  74.3994212
  62.2129050  92.4182400  74.5832690  56.9289953  99.6377028  76.2082003
  56.6253091  99.0833016  76.8092410  56.2269374  99.8169238  75.7210037
  56.7806163  99.5821810  76.2251708  55.9856051  96.9477548  70.7726704
  56.2615785  96.2296460  70.3604272  56.5854720  97.5462467  70.5647811
  56.1149315  96.9297918  70.6807466  54.9908304 106.8526748  80.9154100
  54.8828659 106.8628811  81.7816158  55.2004086 107.6781529  80.7259054
  55.0058416 106.9767823  81.0158192  65.4847490  92.8628224  73.9475800
  64.8721804  93.3498626  74.3329532  65.5811665  92.1871715  74.4913451
  65.4085388  92.8346533  74.0854658  59.4866571  94.6191065  69.0473299
  59.9410318  94.7901625  69.7721144  59.9606617  94.0059176  68.6471075
  59.6234891  94.5541950  69.0947061  53.0082096 104.1039391  78.3776038
  52.4170030 104.7448889  78.3479053  53.7703120 104.5277008  78.3507337
  53.0330357 104.2615229  78.3691185  53.4042719  95.2641389  79.0444056
  53.8644201  95.3380318  79.7819179  53.4498826  96.0622643  78.6943877
  53.4793275  95.3935536  79.1016812  55.0526069  95.9308084  83.6116083
  54.6611634  95.2841431  84.0471860  55.2211932  96.5219519  84.2310338
  55.0196979  95.9222351  83.7678789  69.1272518 103.9345161  79.3753316
  69.1855642 104.3831809  80.1213293  68.4938986 104.3443973  78.9383396
  69.0423813 104.0618895  79.4205865  62.7671613 109.5548702  75.8108062
  62.5691301 110.0439517  75.1164274  62.1459324 109.7589944  76.3892196
  62.6459177 109.6565241  75.7931286  56.8279591 101.3233599  70.1518307
  57.5721636 101.7107876  70.3901257  56.9740287 100.4791025  70.3158795
  56.9590176 101.2564072  70.2112276  58.7459167  93.1183858  75.1850168
  57.8995212  93.2906666  75.0591518  58.7430299  92.3133202  75.5215996
  58.6206316  93.0244887  75.2161295  59.8157467  96.8959073  76.0512226
  59.3417421  96.3700835  76.5617537  60.1875603  96.3488545  75.4827088
  59.8007356  96.7375069  76.0427373  50.1930497  98.8930579  81.4195772
  51.0556110  98.7926289  81.3333102  49.8622280  98.3125289  80.8581344
  50.2715693  98.7922206  81.3241178  66.0794198 101.9561448  77.4619007
  65.8392420 101.1167863  77.4661433  66.5586205 102.0361615  78.1859780
  66.1146381 101.8442848  77.5693809  61.7440967  97.7895627  69.1137980
  61.2163985  97.8724371  68.4243689  62.2036675  98.5313499  69.1102625
  61.7342817  97.9116290  69.0112675  68.0799385  98.7362905  75.4148266
  67.8409155  98.6958740  74.5769050  68.2433286  99.5834058  75.5413987
  68.0689688  98.8554990  75.3101748  64.6845415 103.1212855  81.3453311
  65.4079614 102.6685381  81.1664331  64.4195377 103.4017520  80.5625639
  64.7526688 103.0963823  81.2032026  53.5532283  97.7173028  78.0806190
  52.9285353  97.7291420  77.4732143  53.2177878  98.1933203  78.7297430
  53.4117775  97.7891545  78.0862759  53.7374032  96.0598147  64.1378875
  53.3886836  96.7117872  64.6010424  53.2570478  96.0455260  63.4102746
  53.6144276  96.1541200  64.0989966  50.2657959 105.7773488  79.5209954
  49.7357883 105.0865927  79.5704929  50.5383052 105.7683674  78.6922663
  50.2282681 105.6740620  79.4057370  61.2978049 106.3599191  68.2447637
  62.0212248 106.8257304  68.1012210  60.8578640 106.4272800  67.4945234
  61.3393741 106.4383027  68.1132418  60.4664204 103.2196733  79.4948326
  59.8521197 102.6754783  79.7896961  60.9831489 102.7060969  79.0154142
  60.4519867 103.0633142  79.4672554  59.7060501 104.2901003  77.2292625
  59.2788109 103.6650722  76.7958060  59.6985446 104.0075925  78.0551632
  59.6419643 104.1553784  77.2872452  52.8223028  99.3266176  80.2981059
  52.9816515  98.5709500  80.7032780  52.6415922  99.8757116  80.9521796
  52.8188387  99.2959990  80.4543764  60.7643331  91.4927412  80.8531848
  60.2683893  91.6891086  80.1623415  61.5212393  91.8920080  80.6820650
  60.8030156  91.5805145  80.7251985  58.0346211  95.1669758  77.4435159
  58.0588698  94.6329870  76.7547939  58.2857685  94.6587066  78.1060749
  58.0756130  95.0130662  77.4399803  45.5453801 102.4501253  76.8778303
  45.4397250 102.4048097  76.0130387  44.7954021 102.7955033  77.1592587
  45.4189404 102.4942161  76.7915632  54.3147533  93.8940576  76.8240903
  54.3545905  94.3949782  77.5375610  53.4897198  93.9850970  76.5546826
  54.1987059  93.9822392  76.8891441  56.4977146 103.4601316  84.9261197
  55.6472777 103.5973030  85.0618842  56.6605274 102.7265094  85.3708899
  56.3961010 103.3715417  85.0116797  55.7361897 100.4101086  79.1214802
  54.9053826 100.5774904  78.9150050  55.6813414 100.0337036  79.9063687
  55.6051312 100.3790817  79.2063330  53.5445680  93.9009979  84.7571213
  54.1698383  93.3572111  85.0300645  53.0896160  93.4204896  84.1879003
  53.5693941  93.7499460  84.7132806  54.1097940  98.6856677  69.6504920
  54.2500902  99.1829141  70.3533561  54.6080473  97.9842972  69.7919133
  54.2039021  98.6558656  69.7756499  54.1398163  99.5523788  66.9797496
  54.7743242 100.1484213  66.9146958  54.2223774  99.2527246  67.7943367
  54.2454714  99.5964696  67.0900583  67.1180729 102.0839266  79.8483861
  67.7098569 102.7236516  79.8802059  67.5539723 101.3862302  80.1375927
  67.2699160 102.0757616  79.8964693  55.7177146  95.4837764  66.9542938
  56.0392987  95.0040846  66.3002201  55.9804089  96.2937410  66.7633750
  55.8043171  95.5327662  66.8298430  58.9474118 106.5056638  80.4741754
  58.4399210 107.0592485  80.9182385  58.6500765 106.5664928  79.6560529
  58.8279003 106.5962949  80.4190211  61.1136301  94.8709958  79.3166417
  61.5391372  94.4182484  78.7049944  60.4993294  94.3170028  79.5931205
  61.0864946  94.7223934  79.2671443  50.6451151 101.7491629  70.2487042
  51.1543380 102.3456137  70.6298348  51.1185423 101.4817603  69.5663462
  50.7894526 101.7977444  70.2041565  61.5581899 110.4219896  68.4045698
  60.8411208 110.2480758  67.9392935  62.2088636 110.1872468  67.8721184
  61.5483749 110.3615688  68.2574916  59.5530524  91.3425057  72.7256994
  58.9098841  91.1922704  73.2942133  59.2129931  91.0967403  71.9606099
  59.4075601  91.2837180  72.6960010  64.1429870  99.2984484  72.1487003
  63.4721060  99.8414186  72.0200069  64.8369620  99.7679340  71.9068698
  64.1458738  99.4482755  72.0942531  58.1916604 111.4381196  77.3798761
  57.9682258 110.6800025  77.7482788  57.7026447 111.4679217  76.6579201
  58.0860053 111.3303421  77.3275502  64.3057997  95.7540368  75.0577376
  64.6585608  95.3270091  75.7323175  63.4472799  95.6691211  75.1878453
  64.2307442  95.6785109  75.1772387  53.0041682  98.3847888  73.1160223
  52.2853672  98.8012020  73.3833086  53.3754045  98.9502126  72.5651861
  52.9533614  98.5297169  73.0743030  62.3041263  99.0175736  79.0062219
  62.2839191  98.8359032  79.8596997  62.3520464  99.8887755  78.9821802
  62.3075904  99.1192275  79.1285513  60.2487593 105.6062928  84.9310695
  60.2083448 104.9612605  84.3455851  61.0610911 105.5499546  85.2436107
  60.3630747 105.5021895  84.8907644  56.8395061 111.6581654  74.8335846
  56.4255459 110.9955785  74.4439688  57.5242435 111.8059513  74.3131540
  56.8793432 111.5822313  74.6992343  60.2060355 110.8171740  75.5859463
  59.8076638 110.9274010  74.8180283  59.5911574 111.0253806  76.1686022
  60.0559244 110.8645308  75.5590762  58.7788257  97.4245887  68.4533602
  58.1853096  97.7462884  67.9018169  58.8163535  96.5786983  68.2454708
  58.6962646  97.3470216  68.3416374  65.7382058  90.8758780  75.9861689
  65.2312922  90.1687919  75.9182866  66.5349491  90.5451969  76.1162765
  65.7809297  90.7231931  75.9960684  61.6546073  97.3825392  71.8835353
  61.4259766  97.4058093  71.0413711  61.9144150  96.5582859  72.0030363
  61.6592261  97.2641472  71.7760550  55.9365302  99.2359865  81.4860453
  55.4244205  98.6281048  81.8445484  55.7644798  99.9516458  81.9534428
  55.8354939  99.2523164  81.6076676  50.7831017  97.6797440  84.1362815
  50.6133607  98.3398815  83.5911021  50.3396966  97.8904002  84.8575304
  50.6930350  97.8083422  84.1624444  54.7090836  95.9201938  73.1789548
  55.1848202  96.2819018  72.5439729  54.2079436  96.5758406  73.4589691
  54.7056195  96.0696127  73.1266289  67.9402198 105.3923706  68.9702553
  68.3235803 106.1415062  69.2000650  67.1446311 105.6389526  68.7114542
  67.8795980 105.5393400  68.9660127  59.8134372  97.1584110  83.9262708
  60.3705802  96.9297919  83.2941174  59.4895437  97.9189775  83.6497921
  59.8480782  97.2367946  83.7919205  47.6833081 100.5844306  79.3951304
  47.1359801  99.9144951  79.5132173  48.4725459 100.2174154  79.4594772
  47.7185265 100.4309292  79.4220005  57.5317489 100.2451763  84.8914715
  58.2828816 100.5603440  85.2054270  57.7240066 100.0430934  84.0648637
  57.6708904 100.2619145  84.8158111  56.7517489  98.0643138  66.5462932
  57.1316454  98.0822767  65.7614047  56.0110085  98.5097127  66.4253779
  56.6986327  98.1324913  66.4126500  64.3802780  96.3725329  72.1338511
  64.3797006  96.2173986  72.9922787  64.1758960  97.2188316  72.0779896
  64.3502557  96.4745950  72.2526450  46.4420051  99.7965114  76.5497327
  46.2641812  99.3441723  77.2752243  46.1539073 100.5991275  76.7335805
  46.3733004  99.8487671  76.6840830  62.1043632 101.0522831  75.7874718
  62.5997297 100.3345826  75.7478738  61.2943407 100.7493629  75.6729205
  62.0587525 100.9020477  75.7648444  57.5502243 104.9020644  67.9371722
  56.7413566 104.5787318  67.8905032  58.0577152 104.1953866  67.8699971
  57.5051910 104.7501961  67.9202017  48.1792520 102.3292837  73.6619086
  47.3138040 102.3178528  73.5501858  48.2791336 102.1423060  74.5090226
  48.0666687 102.2998899  73.7708031  64.1695451 103.8026519  78.4751846
  64.5950522 103.2800940  77.9222272  63.8052370 104.4007356  77.9540469
  64.1782053 103.8136746  78.3160856  53.8049530 112.0990736  77.2349192
  54.1196089 112.9127124  77.2426974  54.2142944 111.7140955  77.9031351
  53.9117628 112.1619438  77.3353284  60.7574050 107.5160783  74.8053004
  61.2285228 108.2301045  74.9742989  61.0934228 106.9159533  75.3412873
  60.8769165 107.5332247  74.9085380  62.8451035 109.1262096  86.9845076
  62.9548000 108.3370657  87.3401823  63.1741931 109.0368032  86.1819414
  62.9103440 108.9967949  86.9187467  57.6743545  92.2888253  81.7611099
  57.8071451  91.4919247  82.0892074  58.0588698  92.8154656  82.3409374
  57.7499874  92.2488170  81.8954602  61.3947996 107.3078717  81.5680697
  60.8468942 106.6836601  81.3000762  61.8561025 107.4972989  80.8524776
  61.3815206 107.2437767  81.4231128  60.7475900  89.2118580  78.3592192
  59.9421864  89.1016309  78.6760030  60.6182636  89.3131035  77.5022058
  60.6096033  89.2102250  78.2800232  64.2041861  95.3764071  78.9531889
  63.6204849  95.8773278  78.5409456  64.5246155  94.8693628  78.3196212
  64.1655036  95.3755906  78.7990396  56.7436660  94.2904666  69.2290564
  57.5652354  94.4602979  68.9872259  56.2806311  94.4451927  68.5056861
  56.7967822  94.3386399  69.0862208  55.3331992  92.2847428  80.0088992
  55.8776405  91.9438555  80.5993334  55.3868927  93.1432890  80.1510277
  55.4221111  92.3602688  80.1170866  51.1462550 106.0463844  76.8827800
  51.7507408 106.0059679  76.2541621  50.9389863 106.8934996  76.9131856
  51.2051448 106.1651847  76.7943917  60.9606323 108.3129790  78.0990038
  61.7804696 108.1692756  78.3606333  60.6800400 108.9375989  78.6406476
  61.0403066 108.3840142  78.2177977  46.3813833 105.0298462  76.7526724
  46.2838111 104.2194733  77.0616780  47.1642702 105.0090255  76.3672992
  46.4829969 104.9065552  76.7413586  77.4319973 115.9694641  71.0632914
  77.4013977 116.8239278  71.2351184  78.0301322 115.6689934  71.6219058
  77.5157131 116.0511138  71.1707716  70.6319658 115.0570292  75.8185845
  69.7757553 115.2178791  75.8694961  70.6787312 114.1862356  75.8390906
  70.5118769 114.9521094  75.8291911  65.0160798 124.5933010  71.5823076
  64.2643697 124.2148549  71.3539121  65.4646809 124.6251444  70.8341886
  64.9710464 124.5418617  71.4380578  73.9413374 121.3256818  85.4246301
  74.6480142 120.8308849  85.5533235  74.1301310 121.7665899  84.6948959
  74.0741280 121.3175168  85.3355346  70.4685757 125.0158380  67.0108623
  70.1337126 125.6935301  66.5752845  70.9812628 124.6263691  66.4225495
  70.4951339 125.0582958  66.8595415  70.0090049 126.9672648  72.9519735
  70.3929428 127.5359547  72.4124510  69.9449190 126.2422159  72.4725551
  70.0563476 126.9448112  72.8013597  73.4771479 117.1162336  78.4617496
  74.0227439 117.7947423  78.5211466  73.4188355 116.9749797  77.6019078
  73.5487393 117.1954338  78.3429557  66.5945554 124.6051402  73.8485849
  66.6955917 123.7951756  74.1582976  65.9987299 124.5108349  73.2185527
  66.5218092 124.4716430  73.8012087  75.2536547 118.5446943  69.3351224
  75.1376073 119.2954629  69.7643362  76.0492434 118.2870897  69.5847311
  75.3541137 118.6181790  69.4355316  66.4346293 129.5228992  75.2500705
  67.0783749 129.9642156  75.6396863  66.7602549 128.7182418  75.1630963
  66.5778122 129.4694186  75.2946182  59.7910598 120.6271689  73.4738182
  59.5560782 119.7939341  73.3670451  59.9296239 120.9076355  72.6599383
  59.7766260 120.5455192  73.3380537  62.0900685 112.7957420  76.3722490
  61.4705717 112.2050067  76.2032505  61.9884549 113.3868855  75.7386813
  61.9838361 112.7961502  76.2527480  67.1366873 122.5340966  70.6220566
  67.4582714 123.0746174  70.0181874  67.7838970 121.9637738  70.7542856
  67.2792928 122.5300142  70.5527602  69.1868581 114.5356961  70.7054953
  69.8848746 114.7145089  71.1976416  69.5020914 114.0127301  70.0825342
  69.3363918 114.4850733  70.6856963  61.8169818 116.3409701  78.6166059
  61.6928515 116.9272147  79.2515878  62.4688103 115.8469897  78.9178334
  61.8943468 116.3548506  78.7551988  69.3756516 120.9227406  70.6934745
  69.8150152 120.3144507  71.1389517  69.2261179 120.5434780  69.9220210
  69.4177982 120.7765877  70.6453912  66.8428159 119.5171418  77.8953570
  67.4877162 119.0243861  77.5764519  67.0829936 119.6596205  78.7219648
  66.9738745 119.4648860  77.9703103  69.3814251 122.3626324  77.5460463
  69.6637494 121.5677730  77.3247218  70.1100411 122.8406912  77.5665524
  69.5303815 122.3160921  77.5163478  67.3595445 109.9049358  74.7876228
  67.0298775 110.3560502  74.1179926  66.6840446 109.8265521  75.3349234
  67.2105881 109.9600493  74.7699451  72.9765853 119.2754588  67.6465514
  72.8917148 120.1315554  67.7915083  73.4650236 118.9998912  68.3147673
  73.0354750 119.3611909  67.7667595  74.5671852 105.8934881  73.0325838
  74.2525293 106.5838359  73.4646261  74.0498794 105.8379663  72.3311339
  74.4436323 105.9869769  72.9922787  73.9084286 115.8939382  69.1463249
  73.3795758 116.1099015  69.8060555  74.4309306 116.5875520  69.0664218
  73.9072739 116.0282519  69.2318848  79.3632339 121.4685686  74.5196293
  78.5330042 121.6796330  74.6829710  79.3141591 120.6422741  74.2438577
  79.2339075 121.3775293  74.5033659  65.7983894 119.7902599  67.9470717
  65.2141109 120.2952630  68.3536581  65.3953989 119.5644986  67.2067309
  65.6523198 119.8310847  67.8975742  61.3527923 125.5057360  74.7494388
  60.8695501 126.2307849  74.7253972  62.1651241 125.8033490  74.8604546
  61.4018670 125.6559713  74.7621668  67.4242077 124.2989540  77.3544203
  66.9069018 123.9396955  76.7505511  68.1216468 123.7751715  77.3650269
  67.4507658 124.1687228  77.2674462  71.0805669 124.7484355  83.3160376
  71.1689015 124.5610495  84.1638586  71.5095381 124.1021784  82.9165223
  71.1567771 124.6247362  83.3832127  68.6476128 124.0315514  82.2978038
  68.0846963 123.6188124  82.8217699  69.4097152 123.9568420  82.7171181
  68.6770577 123.9592915  82.4371038  70.2561108 116.0368251  66.4239638
  70.4957112 116.2446234  65.6114981  70.5776949 115.2325759  66.5328582
  70.3398266 115.9482352  66.3200191  65.5651399 107.9661646  70.2699175
  66.3197367 108.3339963  70.0316226  65.3878933 108.3401201  71.0378355
  65.6505877 108.0759834  70.3484064  64.2072120 126.0213536  74.9014668
  64.9092699 125.5065525  74.9587425  64.1269603 126.3487687  75.7061543
  64.2995880 125.9927762  75.0287460  78.8586297 114.1156087  78.3146715
  78.0214719 114.1858274  78.5494309  78.8274528 114.1180582  77.4421017
  78.7304580 114.1266314  78.2206263  65.2551026 116.2589123  84.0295083
  65.4271530 116.1495017  84.8780365  65.7920384 116.9043528  83.7926276
  65.3596030 116.3381124  84.1200180  63.9208463 110.3731965  66.9677288
  63.7384037 110.5903846  66.1418281  64.7834076 110.4870978  67.0235903
  64.0213053 110.4221863  66.8531775  63.5322895 122.2119888  74.4100276
  64.3711795 122.4442820  74.4574038  63.5634664 121.3424199  74.3407312
  63.6604613 122.1176834  74.4064921  64.1575598 122.6320763  78.7113582
  64.6973823 122.4891894  79.3816954  63.4745545 123.0317514  79.0797608
  64.1367752 122.6700434  78.8648004  69.6008183 107.3758376  70.0026312
  70.3294343 107.1974331  69.5564469  69.6903075 108.2176456  70.2133490
  69.7214845 107.4742254  69.9679830  73.5816483 118.3111763  73.9058606
  74.3373998 118.7443278  73.9447515  73.6878808 117.6616533  74.4793242
  73.7086654 118.2789247  73.9956632  76.6196654 122.1385041  74.6561009
  76.1831886 122.1421783  75.4119981  76.2859570 122.8190540  74.2240587
  76.5059274 122.2397496  74.7041842  71.1925728 124.1793374  85.9804160
  71.9766145 124.2924221  86.3459902  70.9922323 123.3534511  86.1762845
  71.2791753 124.0740093  86.0638546  59.5612743 118.8521054  78.8648003
  59.2951159 118.0360170  79.0238994  59.5751308 118.8974209  77.9943519
  59.5237466 118.7377958  78.7601485  76.5394137 109.1798869  76.8990437
  77.1820046 109.2496973  77.4852352  76.7917158 108.5128091  76.3969979
  76.6716269 109.0925217  76.9117716  63.4670490 113.6506138  65.4799761
  62.7528668 113.3644318  65.8922194  63.9514459 113.9902764  66.1206149
  63.4329854 113.6587788  65.6355396  64.3111350 112.3899432  81.5115011
  63.6183147 111.9196412  81.7575743  64.9271677 112.1637736  82.0856718
  64.2995880 112.2866564  81.6324164  71.3496121 126.0903476  79.6270615
  70.5511367 125.8502976  79.8844484  71.7982133 126.1417868  80.3737663
  71.2970733 126.0625867  79.7755539  79.7541001 118.8565961  73.5480646
  80.4157435 118.2956629  73.4476555  79.1132413 118.3617991  73.8733338
  79.7569868 118.7002370  73.5812987  70.6417808 122.1536092  65.8561570
  71.0568957 121.8221116  65.1646065  69.8109738 121.9204994  65.7281706
  70.5805817 122.0707348  65.7352417  59.9706157 119.6379833  76.1459748
  59.7881730 119.6126719  75.2932040  60.7055826 120.1078771  76.1848656
  60.0520221 119.7041195  76.0257666  76.0405831 119.8731343  73.2892635
  76.2761420 120.0176542  72.4619486  76.1895395 120.6373751  73.6824149
  76.0971635 120.0070397  73.2256239  63.0351909 116.3564836  82.6541856
  63.7591881 116.3417867  83.1406751  63.1368045 117.0660191  82.1563825
  63.1570118 116.4589539  82.6520643  77.8696288 118.7133009  71.1262239
  78.2004505 119.2460649  70.5202334  78.4429376 118.7671897  71.7824190
  78.0029967 118.8002578  71.1340021  70.4096858 119.8363920  87.5190803
  69.6169839 120.1507432  87.7043423  70.5245785 120.0515389  86.6811588
  70.3092269 119.9147757  87.4229138  73.0828177 116.5597912  71.8085819
  73.1775032 117.2987206  72.2625445  72.4587021 116.1315387  72.2420384
  73.0037207 116.6059232  71.9393967  71.3380651 119.7384124  82.4576100
  71.9119513 119.1011368  82.6124664  71.2595455 119.7388207  81.5885758
  71.4113886 119.6449236  82.3522511  59.9377067 116.5173334  76.2958814
  60.5150570 116.3809784  76.9351060  59.2391129 116.0609118  76.5504399
  59.9198089 116.4295600  76.4281104  73.3351198 118.4046651  65.0422771
  73.2531361 118.4748839  65.9077758  73.9730919 118.9676395  64.8506512
  73.4171036 118.4985623  65.1412721  66.6944370 118.1707389  74.5097297
  66.4363614 117.3379124  74.4828597  66.7492852 118.3965002  73.6689798
  66.6644147 118.0805161  74.3817434  71.7745420 110.2735840  74.6101390
  71.0701746 109.7845026  74.7685309  71.8230394 110.2858314  73.7389835
  71.6775471 110.2025488  74.5040730  65.6679082 115.7245152  74.9962192
  65.0928673 115.8837320  75.6326153  65.2914758 115.0880561  74.5330643
  65.5281894 115.6542965  75.0216751  69.3352370 114.1968501  79.8554571
  68.9466803 113.7722719  79.2006762  68.6707069 114.4450651  80.3631597
  69.1799298 114.1707222  79.8342439  78.9775640 113.9543506  72.6302401
  78.7212204 113.1423447  72.4400283  79.8204953 113.9621073  72.4032588
  79.0641665 113.8355503  72.5687218  55.4135901 115.3685227  73.0106633
  55.4996152 114.9917095  73.7920163  56.0411698 114.9945672  72.5326591
  55.5192452 115.2570709  73.0552110  73.1578732 107.8943130  77.3678555
  73.5389244 107.2121301  77.7546429  72.3542016 107.6052732  77.1854219
  73.0955194 107.7510178  77.3982611  70.4391309 118.4267106  68.0531378
  71.2531947 118.7181998  67.9414149  70.3750450 117.7726968  67.4789671
  70.5494048 118.3732300  67.9520215  76.6600799 121.1093102  82.4660953
  76.4239436 120.2781167  82.3473014  77.3044028 121.0578709  83.0515797
  76.7195470 120.9790790  82.5346847  66.3099217 121.8988623  73.1803690
  66.9473164 121.6600371  73.7255483  66.7354288 122.1025782  72.4456850
  66.4675383 121.8939633  73.1520847  61.0011859 124.1376960  77.0637993
  61.0416005 124.4091811  76.2357773  61.5606383 124.6618868  77.4795781
  61.0895205 124.2552715  77.0029882  66.9502032 117.1190913  67.5178579
  67.3347185 116.8998620  68.2695124  66.7013652 117.9453858  67.6479655
  66.9704105 117.2089059  67.6479655  67.1170572 110.3997328  87.2341163
  66.8024013 111.1696891  86.9710726  66.7960505 109.8367584  86.6493390
  67.0229491 110.4307597  87.1082513  77.6837219 120.8937551  78.5289248
  77.3783036 121.6265607  78.8902563  76.9643435 120.4875480  78.2482034
  77.5324562 120.9419284  78.5402385  68.6920689 122.3761046  74.8597476
  68.7659697 122.2136218  75.7139326  69.5090195 122.5651235  74.6157958
  68.8237047 122.3797788  74.9495502  83.3839012 117.5330551  77.8557592
  83.3163512 117.5526510  76.9860179  83.3694674 118.3760879  78.0813263
  83.3717768 117.6604286  77.7610069  62.4526446 122.7218909  71.8891919
  61.6264563 122.9680646  71.7626198  62.5138437 122.6430989  72.7553978
  62.3400613 122.7463858  71.9980864  64.6702469 108.7887850  72.8487360
  63.8024895 108.8610449  72.9144969  64.9577674 109.5909929  73.0375335
  64.5842217 108.9181997  72.8862126  73.7935358 108.9365709  81.1798681
  74.5388950 108.7475519  80.7662107  73.3772663 109.4623947  80.6212538
  73.8420332 108.9867854  81.0363255  67.2325275 125.3395789  69.5910949
  67.5223573 124.9484770  68.8670176  67.9628755 125.5212494  70.0316225
  67.3832159 125.3089603  69.5493756  81.1697629 116.3074937  76.1304186
  81.7205550 115.6743007  76.3701278  81.1541744 116.8390330  76.8219691
  81.2482825 116.2923886  76.2683045  67.8220020 120.1413535  80.6764080
  67.3231713 120.8529302  80.7548968  68.6320244 120.4614201  80.6382242
  67.8676126 120.2940383  80.6820648  65.1731190 127.3163171  72.6571099
  64.9531486 127.0260526  73.4497766  64.9525712 126.6578126  72.1289011
  65.1078784 127.1762880  72.6960008  64.0848137 119.4036488  74.9226801
  63.7961386 118.7773959  75.4572528  64.9531485 119.3456775  74.9891481
  64.1708389 119.3024032  75.0117755  74.8726035 114.5471271  75.2408783
  74.5290801 113.8261606  75.5916032  74.9719078 114.3385122  74.3987141
  74.8368078 114.4095474  75.1680463  67.3399146 128.6892561  71.4401791
  67.9923204 128.1569004  71.6692818  66.6424755 128.3361214  71.8269665
  67.3329864 128.5582084  71.5313959  64.2880411 121.0431739  70.8469166
  65.0426379 121.4244778  71.0604628  63.6951023 121.4942882  71.3015862
  64.3117124 121.1660566  70.9452044  75.3339064 121.0096975  70.7832771
  75.8997097 121.6690185  70.6991314  74.6866968 121.3546673  71.2549173
  75.3217821 121.1578917  70.8405527  66.7487078 112.9994579  85.9726378
  65.9386853 113.3052359  85.8616220  67.2261764 113.7200162  86.0878962
  66.6990557 113.1509180  85.9733449  65.6078637 122.2140300  76.2209281
  65.0859391 122.3540592  76.9061146  65.9952658 121.4550964  76.4111399
  65.5882338 122.1225824  76.3510358  62.5969821 112.2646109  70.2904236
  62.3094617 111.8947379  69.5536183  63.2840290 112.7340964  70.0287941
  62.6558719 112.2793078  70.1419312  71.8045642 123.9535759  70.2069850
  71.5632318 123.2203620  69.7996915  71.9846975 124.5022616  69.5536183
  71.7953266 123.9258151  70.0500073  67.0344963 119.2444319  71.6190772
  66.8387746 119.8519054  71.0251075  67.2579309 118.5512263  71.1382446
  67.0379604 119.2321845  71.4606853  65.4323493 116.1299057  71.7371641
  66.1546145 116.2940215  71.2775447  64.9531486 116.8508722  71.6310980
  65.4687224 116.2597287  71.6537255  73.3917001 112.4662856  77.1168325
  72.5528101 112.4924135  76.8806589  73.4621368 113.1133591  77.6973672
  73.2785394 112.5658982  77.1677442  63.0831110 118.5357130  80.8425780
  63.5952207 118.8141383  80.1934540  62.7967452 119.2746424  81.2088593
  63.1165973 118.6859483  80.8015658  71.8386279 109.3648233  71.8495941
  72.5412632 109.1655981  71.3715900  71.5730468 108.5924175  72.1564785
  71.9032911 109.2211199  71.8241383  77.2674524 117.6730843  74.4029567
  77.1808499 117.8286269  75.2564346  76.8125004 118.3168918  74.0288972
  77.1877781 117.7906598  74.4736674  60.1698016 113.0427321  71.1389517
  60.2714152 113.8453483  71.4670492  60.9653903 112.8414657  70.8412597
  60.3025922 113.1313220  71.1424872  66.6014835 110.6283518  80.9026822
  66.4098032 110.6438653  81.7526246  67.4513431 110.8247192  80.8793477
  66.6990557 110.6597869  81.0250117  60.9861748 113.1574500  78.8810638
  60.8447240 112.3058440  79.0055146  61.2702311 113.2003160  78.0572844
  61.0069594 113.0374250  78.7778263  71.1400340 114.9941590  73.0255127
  70.8935055 114.9137341  73.8591916  71.4685463 114.2095058  72.8317654
  71.1521584 114.8667855  73.1202650  75.0348389 121.7024949  76.8141908
  74.8962749 122.4005995  77.3190650  74.2548387 121.5473606  76.4578090
  74.8991616 121.7825116  76.8368182  73.3726474 118.0021324  83.0664290
  73.3674513 117.1301141  83.0706716  74.0787468 118.2009494  82.5933745
  73.4771478 117.9025199  82.9971325  67.0997368 117.7298308  82.4378110
  67.2440743 118.3099517  81.8021220  67.4473016 118.1074605  83.1427964
  67.1724829 117.8719012  82.4477105  69.2717285 116.9288477  80.2203241
  68.5240599 117.1219491  79.8151519  69.4258810 116.1033696  79.9827363
  69.1839713 116.8353588  80.1248647  66.1725123 125.9201080  79.3039137
  66.3214686 125.3603996  78.6512541  66.9525125 125.9993082  79.6871655
  66.3099216 125.8486646  79.2636086  76.5301762 121.0603203  67.5758407
  76.1508571 120.2740341  67.5687697  75.8668008 121.6090060  67.4330051
  76.3760237 121.0248027  67.5539204  68.6978423 126.0915723  80.5823627
  68.6222094 125.4224534  81.1374416  68.6268282 126.7933511  81.0964294
  68.6759030 126.0960630  80.7400476  69.5119062 110.8239027  81.1098645
  69.9691676 111.5563002  81.2371437  69.5875391 110.4005493  81.8685901
  69.5910032 110.8696266  81.2399722  61.7552053 111.0704847  82.1988089
  61.2194243 110.4585205  82.5148856  61.8169818 111.6452983  82.8521755
  61.6847686 111.0651775  82.3423516  73.9846388 104.0028903  74.9792488
  74.1029956 104.4605366  74.2459791  73.8108564 103.1974164  74.6928706
  73.9765559 103.9522675  74.8293422  69.3548670 124.6116722  71.4147233
  70.1198561 124.3426366  71.0929898  69.2526760 124.1266732  72.1317296
  69.4530166 124.5006287  71.4727061  67.3901440 112.8141131  77.9540469
  66.5997515 112.6332591  78.2757805  67.7862063 112.0368084  77.9370764
  67.3318316 112.6728592  77.9993018  71.8767331 121.6428906  63.3947183
  72.6440316 121.7029031  62.9853035  71.4298640 121.0709347  62.9103501
  71.9240758 121.5665481  63.2624893  72.7745126 120.4483562  75.6799915
  72.0990128 120.2168794  76.1813302  72.7837502 119.8404744  75.0542020
  72.6763631 120.3242487  75.6616067  69.9039270 115.2901391  82.4363968
  69.8398412 116.1511347  82.3084105  70.0436458 114.9733384  81.6359519
  69.9154740 115.3701557  82.2992181  74.7761861 123.3048694  67.9110093
  74.8581698 124.1115680  67.5871544  75.2611603 123.3244653  68.6350867
  74.8599019 123.4269356  67.9696992  68.5858364 117.9833530  76.5780171
  68.1620613 118.1838029  75.8419189  68.4103219 117.1362378  76.6904471
  68.4969245 117.8882311  76.4853861  68.0870058 129.4984043  79.0401628
  68.5765988 128.7994832  78.8577293  67.5154290 129.2007913  79.6277686
  68.0754588 129.3510266  79.1002669  63.8740809 118.4785581  72.0108144
  64.0305428 118.4132384  72.8664136  64.2141402 119.2534134  71.7986823
  63.9474044 118.5834779  72.1062738  70.4119954 117.8543465  70.8801507
  70.9535499 117.3513846  71.3440127  70.7266513 117.8008660  70.0690992
  70.5384351 117.7722886  70.8285319  74.2837061 122.0646112  87.9928419
  75.0971926 121.7931261  88.1533551  74.1232028 121.7653652  87.1888615
  74.3807010 121.9801038  87.8973825  68.5806403 123.2460816  68.1641535
  68.6499224 122.3875355  68.3034535  69.3594859 123.4632697  67.8360559
  68.7059254 123.1513680  68.1358692  71.5609223 112.7479769  80.9323807
  71.7751193 112.1090684  80.3787161  70.9443122 113.1925593  80.5031669
  71.5014552 112.7189913  80.7874238  72.9713891 125.6698518  72.3778028
  72.5793683 125.3665233  71.6600894  73.1266963 126.5067608  72.1882982
  72.9367481 125.7482354  72.2434525  60.4475071 115.6620532  72.3268911
  60.8274035 116.0805077  71.6629178  59.8730435 116.2433987  72.6337754
  60.4186396 115.8098391  72.2745652  73.7248311 114.3568835  81.8707114
  72.9124993 114.0494725  81.9520287  74.1838246 113.8767835  82.4349826
  73.6728696 114.2405327  81.9661708  73.1353566 122.2348507  72.3184059
  72.7768221 122.4063149  73.0948091  72.6492277 122.6961712  71.7612057
  73.0112263 122.3287478  72.3509328  70.9523952 105.8579705  75.9211150
  70.0817510 105.8318426  75.8744459  71.2064293 105.6856897  75.1036996
  70.8617512 105.8289849  75.7931287  67.9241931 117.9147672  64.8584293
  68.2134456 118.6912554  65.1327867  68.0113730 117.4036403  65.5598792
  67.9796187 117.9539590  65.0026791  70.8201819 115.7628906  86.6535817
  71.2901450 116.3871022  87.0403691  70.8663699 115.0945882  87.2129031
  70.8969695 115.7563586  86.7935888  67.9773092 107.8685933  77.3784620
  67.4611581 107.1766125  77.5036199  67.4167021 108.5356711  77.3247219
  67.8179606 107.8649191  77.3890686  70.0465326 108.4078893  79.2077473
  69.6597079 108.4327925  79.9891003  69.5598263 107.8420572  78.7551990
  69.9177835 108.3274644  79.2565377  74.2958305 123.1252402  83.2651259
  74.9338026 122.6312598  82.9313716  73.6532397 123.0529803  82.6803486
  74.2952532 123.0411411  83.1293614  76.0215305 114.9741548  77.8317175
  75.5942913 114.8867897  77.0765275  75.3841358 115.0819324  78.4172019
  75.8644913 114.9774208  77.8062617  69.7122467 105.2945879  81.4987733
  70.3415585 105.8306179  81.2208803  69.8808330 105.2023238  82.3501299
  69.8300262 105.3607241  81.5836261  69.5136382 110.0817074  83.7714144
  70.3409812 109.8102223  83.8272759  69.5344228 110.8777915  84.1277963
  69.6389232 110.1596828  83.8329327  74.3512562 123.8172211  79.9056616
  75.1404940 123.4661275  80.0258698  74.5256160 124.6308599  79.6433250
  74.4932843 123.8858068  79.8844484  64.0905872 117.2280936  76.9584405
  63.2493879 117.1284811  77.1663299  64.2995880 117.9976417  77.3098726
  63.9970565 117.3272980  77.0411720  61.5681439 114.8500473  74.7869156
  61.1738137 114.9243485  74.0119265  61.0121556 115.2358420  75.3377518
  61.4284252 114.9182248  74.7536816  73.2046386 107.8281767  74.4673035
  73.4095979 107.7604075  75.3130032  72.8772810 108.6340589  74.3994212
  73.1861634 107.9367708  74.5832690  67.9022537 115.1562336  76.2082003
  67.5985675 114.6018324  76.8092410  67.2001958 115.3354546  75.7210037
  67.7538747 115.1007118  76.2251708  66.9588634 112.4662855  70.7726704
  67.2348368 111.7481768  70.3604272  67.5587303 113.0647775  70.5647811
  67.0881899 112.4483226  70.6807466  65.9640888 122.3712056  80.9154100
  65.8561243 122.3814119  81.7816158  66.1736670 123.1966837  80.7259054
  65.9790999 122.4953131  81.0158192  76.4580074 108.3813532  73.9475800
  75.8454387 108.8683934  74.3329532  76.5544249 107.7057023  74.4913451
  76.3817971 108.3531840  74.0854658  70.4599155 110.1376373  69.0473299
  70.9142901 110.3086933  69.7721144  70.9339200 109.5244484  68.6471075
  70.5967475 110.0727258  69.0947061  63.9814680 119.6224699  78.3776038
  63.3902613 120.2634197  78.3479053  64.7435704 120.0462316  78.3507337
  64.0062941 119.7800537  78.3691185  64.3775303 110.7826697  79.0444056
  64.8376784 110.8565626  79.7819179  64.4231410 111.5807951  78.6943877
  64.4525858 110.9120844  79.1016812  66.0258653 111.4493391  83.6116083
  65.6344218 110.8026739  84.0471860  66.1944515 112.0404827  84.2310338
  65.9929563 111.4407659  83.7678789  80.1005102 119.4530468  79.3753316
  80.1588225 119.9017117  80.1213293  79.4671569 119.8629281  78.9383396
  80.0156397 119.5804203  79.4205865  73.7404196 125.0734010  75.8108062
  73.5423885 125.5624825  75.1164274  73.1191907 125.2775252  76.3892196
  73.6191761 125.1750549  75.7931286  67.8012175 116.8418907  70.1518307
  68.5454220 117.2293184  70.3901257  67.9472871 115.9976333  70.3158795
  67.9322760 116.7749380  70.2112276  69.7191750 108.6369166  75.1850168
  68.8727795 108.8091974  75.0591518  69.7162883 107.8318510  75.5215996
  69.5938900 108.5430195  75.2161295  70.7890051 112.4144381  76.0512226
  70.3150005 111.8886143  76.5617537  71.1608186 111.8673853  75.4827088
  70.7739939 112.2560377  76.0427373  61.1663081 114.4115887  81.4195772
  62.0288694 114.3111596  81.3333102  60.8354864 113.8310597  80.8581344
  61.2448277 114.3107514  81.3241178  77.0526781 117.4746756  77.4619007
  76.8125004 116.6353171  77.4661433  77.5318788 117.5546923  78.1859780
  77.0878965 117.3628156  77.5693809  72.7173550 113.3080935  69.1137980
  72.1896569 113.3909679  68.4243689  73.1769258 114.0498807  69.1102625
  72.7075401 113.4301598  69.0112675  79.0531968 114.2548213  75.4148266
  78.8141738 114.2144048  74.5769050  79.2165869 115.1019365  75.5413987
  79.0422272 114.3740298  75.3101748  75.6577998 118.6398163  81.3453311
  76.3812197 118.1870689  81.1664331  75.3927961 118.9202828  80.5625639
  75.7259272 118.6149131  81.2032026  64.5264867 113.2358336  78.0806190
  63.9017937 113.2476728  77.4732143  64.1910462 113.7118511  78.7297430
  64.3850358 113.3076853  78.0862759  64.7106615 111.5783455  64.1378875
  64.3619420 112.2303180  64.6010424  64.2303061 111.5640568  63.4102746
  64.5876859 111.6726508  64.0989966  61.2390542 121.2958796  79.5209954
  60.7090467 120.6051235  79.5704929  61.5115636 121.2868982  78.6922663
  61.2015265 121.1925928  79.4057370  72.2710633 121.8784499  68.2447637
  72.9944832 122.3442612  68.1012210  71.8311224 121.9458108  67.4945234
  72.3126325 121.9568335  68.1132418  71.4396788 118.7382041  79.4948326
  70.8253781 118.1940091  79.7896961  71.9564073 118.2246277  79.0154142
  71.4252450 118.5818450  79.4672554  70.6793085 119.8086311  77.2292625
  70.2520693 119.1836030  76.7958060  70.6718029 119.5261233  78.0551632
  70.6152226 119.6739092  77.2872452  63.7955612 114.8451484  80.2981059
  63.9549099 114.0894808  80.7032780  63.6148506 115.3942424  80.9521796
  63.7920971 114.8145298  80.4543764  71.7375915 107.0112720  80.8531848
  71.2416476 107.2076394  80.1623415  72.4944977 107.4105388  80.6820650
  71.7762740 107.0990453  80.7251985  69.0078795 110.6855066  77.4435159
  69.0321282 110.1515178  76.7547939  69.2590268 110.1772374  78.1060749
  69.0488713 110.5315969  77.4399803  56.5186384 117.9686560  76.8778303
  56.4129834 117.9233405  76.0130387  55.7686604 118.3140341  77.1592587
  56.3921987 118.0127469  76.7915632  65.2880117 109.4125884  76.8240903
  65.3278488 109.9135090  77.5375610  64.4629781 109.5036277  76.5546826
  65.1719643 109.5007700  76.8891441  67.4709730 118.9786624  84.9261197
  66.6205360 119.1158338  85.0618842  67.6337857 118.2450402  85.3708899
  67.3693593 118.8900725  85.0116797  66.7094480 115.9286394  79.1214802
  65.8786410 116.0960212  78.9150050  66.6545997 115.5522344  79.9063687
  66.5783895 115.8976125  79.2063330  64.5178263 109.4195287  84.7571213
  65.1430967 108.8757419  85.0300645  64.0628743 108.9390204  84.1879003
  64.5426524 109.2684768  84.7132806  65.0830524 114.2041985  69.6504920
  65.2233485 114.7014449  70.3533561  65.5813057 113.5028280  69.7919133
  65.1771605 114.1743964  69.7756499  65.1130746 115.0709096  66.9797496
  65.7475826 115.6669521  66.9146958  65.1956357 114.7712554  67.7943367
  65.2187297 115.1150004  67.0900583  78.0913312 117.6024574  79.8483861
  78.6831152 118.2421824  79.8802059  78.5272307 116.9047610  80.1375927
  78.2431743 117.5942924  79.8964693  66.6909729 111.0023072  66.9542938
  67.0125570 110.5226154  66.3002201  66.9536673 111.8122718  66.7633750
  66.7775755 111.0512969  66.8298430  69.9206702 122.0241946  80.4741754
  69.4131793 122.5777793  80.9182385  69.6233348 122.0850236  79.6560529
  69.8011587 122.1148257  80.4190211  72.0868884 110.3895266  79.3166417
  72.5123956 109.9367792  78.7049944  71.4725877 109.8355336  79.5931205
  72.0597530 110.2409242  79.2671443  61.6183734 117.2676937  70.2487042
  62.1275964 117.8641444  70.6298348  62.0918007 117.0002911  69.5663462
  61.7627110 117.3162752  70.2041565  72.5314482 125.9405204  68.4045698
  71.8143792 125.7666066  67.9392935  73.1821220 125.7057776  67.8721184
  72.5216333 125.8800996  68.2574916  70.5263107 106.8610365  72.7256994
  69.8831425 106.7108012  73.2942133  70.1862514 106.6152711  71.9606099
  70.3808184 106.8022488  72.6960010  75.1162454 114.8169792  72.1487003
  74.4453643 115.3599494  72.0200069  75.8102204 115.2864647  71.9068698
  75.1191321 114.9668063  72.0942531  69.1649187 126.9566504  77.3798761
  68.9414842 126.1985333  77.7482788  68.6759031 126.9864525  76.6579201
  69.0592636 126.8488729  77.3275502  75.2790581 111.2725676  75.0577376
  75.6318191 110.8455399  75.7323175  74.4205383 111.1876519  75.1878453
  75.2040026 111.1970416  75.1772387  63.9774266 113.9033195  73.1160223
  63.2586255 114.3197328  73.3833086  64.3486628 114.4687434  72.5651861
  63.9266198 114.0482477  73.0743030  73.2773847 114.5361044  79.0062219
  73.2571774 114.3544340  79.8596997  73.3253048 115.4073063  78.9821802
  73.2808488 114.6377583  79.1285513  71.2220177 121.1248236  84.9310695
  71.1816032 120.4797913  84.3455851  72.0343495 121.0684854  85.2436107
  71.3363330 121.0207203  84.8907644  67.8127644 127.1766962  74.8335846
  67.3988043 126.5141092  74.4439688  68.4975019 127.3244821  74.3131540
  67.8526016 127.1007620  74.6992343  71.1792938 126.3357048  75.5859463
  70.7809222 126.4459318  74.8180283  70.5644158 126.5439114  76.1686022
  71.0291828 126.3830616  75.5590762  69.7520840 112.9431195  68.4533602
  69.1585680 113.2648192  67.9018169  69.7896118 112.0972291  68.2454708
  69.6695230 112.8655524  68.3416374  76.7114641 106.3944088  75.9861689
  76.2045506 105.6873227  75.9182866  77.5082075 106.0637276  76.1162765
  76.7541880 106.2417239  75.9960684  72.6278657 112.9010700  71.8835353
  72.3992350 112.9243401  71.0413711  72.8876733 112.0768167  72.0030363
  72.6324845 112.7826780  71.7760550  66.9097885 114.7545173  81.4860453
  66.3976789 114.1466356  81.8445484  66.7377382 115.4701765  81.9534428
  66.8087522 114.7708472  81.6076676  61.7563600 113.1982748  84.1362815
  61.5866190 113.8584123  83.5911021  61.3129550 113.4089309  84.8575304
  61.6662934 113.3268730  84.1624444  65.6823419 111.4387246  73.1789548
  66.1580786 111.8004326  72.5439729  65.1812019 112.0943714  73.4589691
  65.6788778 111.5881435  73.1266289  78.9134781 120.9109014  68.9702553
  79.2968387 121.6600370  69.2000650  78.1178894 121.1574834  68.7114542
  78.8528563 121.0578708  68.9660127  70.7866956 112.6769418  83.9262708
  71.3438386 112.4483227  83.2941174  70.4628021 113.4375083  83.6497921
  70.8213366 112.7553254  83.7919205  58.6565665 116.1029614  79.3951304
  58.1092384 115.4330259  79.5132173  59.4458043 115.7359462  79.4594772
  58.6917848 115.9494600  79.4220005  68.5050073 115.7637071  84.8914715
  69.2561400 116.0788748  85.2054270  68.6972650 115.5616242  84.0648637
  68.6441487 115.7804453  84.8158111  67.7250073 113.5828446  66.5462932
  68.1049037 113.6008075  65.7614047  66.9842669 114.0282435  66.4253779
  67.6718910 113.6510221  66.4126500  75.3535363 111.8910637  72.1338511
  75.3529590 111.7359294  72.9922787  75.1491543 112.7373624  72.0779896
  75.3235141 111.9931258  72.2526450  57.4152634 115.3150422  76.5497327
  57.2374395 114.8627031  77.2752243  57.1271656 116.1176583  76.7335805
  57.3465587 115.3672979  76.6840830  73.0776215 116.5708139  75.7874718
  73.5729881 115.8531134  75.7478738  72.2675991 116.2678937  75.6729205
  73.0320109 116.4205785  75.7648444  68.5234827 120.4205952  67.9371722
  67.7146149 120.0972626  67.8905032  69.0309736 119.7139174  67.8699971
  68.4784494 120.2687269  67.9202017  59.1525104 117.8478145  73.6619086
  58.2870623 117.8363836  73.5501858  59.2523920 117.6608368  74.5090226
  59.0399271 117.8184207  73.7708031  75.1428034 119.3211826  78.4751846
  75.5683106 118.7986248  77.9222272  74.7784954 119.9192664  77.9540469
  75.1514637 119.3322053  78.3160856  64.7782114 127.6176044  77.2349192
  65.0928673 128.4312432  77.2426974  65.1875527 127.2326263  77.9031351
  64.8850212 127.6804746  77.3353284  71.7306634 123.0346091  74.8053004
  72.2017812 123.7486353  74.9742989  72.0666812 122.4344841  75.3412873
  71.8501749 123.0517555  74.9085380  73.8183618 124.6447404  86.9845076
  73.9280584 123.8555965  87.3401823  74.1474515 124.5553340  86.1819414
  73.8836024 124.5153257  86.9187467  68.6476129 107.8073561  81.7611099
  68.7804034 107.0104555  82.0892074  69.0321281 108.3339964  82.3409374
  68.7232457 107.7673478  81.8954602  72.3680580 122.8264025  81.5680697
  71.8201526 122.2021908  81.3000762  72.8293609 123.0158297  80.8524776
  72.3547789 122.7623075  81.4231128  71.7208484 104.7303887  78.3592192
  70.9154447 104.6201617  78.6760030  71.5915219 104.8316343  77.5022058
  71.5828617 104.7287557  78.2800232  75.1774444 110.8949379  78.9531889
  74.5937433 111.3958586  78.5409456  75.4978738 110.3878936  78.3196212
  75.1387620 110.8941214  78.7990396  67.7169243 109.8089974  69.2290564
  68.5384938 109.9788287  68.9872259  67.2538894 109.9637235  68.5056861
  67.7700406 109.8571707  69.0862208  66.3064575 107.8032736  80.0088992
  66.8508988 107.4623863  80.5993334  66.3601511 108.6618198  80.1510277
  66.3953695 107.8787996  80.1170866  62.1195134 121.5649152  76.8827800
  62.7239991 121.5244987  76.2541621  61.9122447 122.4120304  76.9131856
  62.1784031 121.6837155  76.7943917  71.9338906 123.8315098  78.0990038
  72.7537280 123.6878064  78.3606333  71.6532984 124.4561296  78.6406476
  72.0135650 123.9025450  78.2177977  57.3546416 120.5483770  76.7526724
  57.2570694 119.7380041  77.0616780  58.1375286 120.5275563  76.3672992
  57.4562553 120.4250860  76.7413586  88.4052557 131.4879949  71.0632914
  88.3746561 132.3424586  71.2351184  89.0033905 131.1875242  71.6219058
  88.4889714 131.5696446  71.1707716  81.6052241 130.5755600  75.8185845
  80.7490137 130.7364099  75.8694961  81.6519895 129.7047664  75.8390906
  81.4851353 130.4706402  75.8291911  84.4504062 132.6347644  78.4617496
  84.9960022 133.3132731  78.5211466  84.3920939 132.4935105  77.6019078
  84.5219977 132.7139646  78.3429557  86.2269131 134.0632251  69.3351224
  86.1108657 134.8139937  69.7643362  87.0225018 133.8056205  69.5847311
  86.3273721 134.1367098  69.4355316  73.0633269 128.3142727  76.3722490
  72.4438301 127.7235375  76.2032505  72.9617133 128.9054163  75.7386813
  72.9570945 128.3146810  76.2527480  80.1601165 130.0542269  70.7054953
  80.8581329 130.2330397  71.1976416  80.4753497 129.5312609  70.0825342
  80.3096502 130.0036041  70.6856963  72.7902402 131.8595009  78.6166059
  72.6661099 132.4457455  79.2515878  73.4420687 131.3655205  78.9178334
  72.8676051 131.8733814  78.7551988  78.3328028 125.4234666  74.7876228
  78.0031358 125.8745810  74.1179926  77.6573030 125.3450829  75.3349234
  78.1838465 125.4785801  74.7699451  83.9498437 134.7939896  67.6465514
  83.8649732 135.6500862  67.7915083  84.4382820 134.5184220  68.3147673
  84.0087334 134.8797217  67.7667595  85.5404436 121.4120189  73.0325838
  85.2257877 122.1023667  73.4646261  85.0231378 121.3564971  72.3311339
  85.4168906 121.5055077  72.9922787  84.8816870 131.4124690  69.1463249
  84.3528341 131.6284323  69.8060555  85.4041890 132.1060828  69.0664218
  84.8805323 131.5467827  69.2318848  81.2293692 131.5553559  66.4239638
  81.4689696 131.7631542  65.6114981  81.5509533 130.7511067  66.5328582
  81.3130850 131.4667660  66.3200191  76.5383982 123.4846954  70.2699175
  77.2929950 123.8525271  70.0316226  76.3611517 123.8586509  71.0378355
  76.6238461 123.5945142  70.3484064  89.8318881 129.6341395  78.3146715
  88.9947302 129.7043582  78.5494309  89.8007112 129.6365890  77.4421017
  89.7037163 129.6451622  78.2206263  76.2283610 131.7774430  84.0295083
  76.4004114 131.6680325  84.8780365  76.7652968 132.4228836  83.7926276
  76.3328614 131.8566432  84.1200180  74.8941047 125.8917273  66.9677288
  74.7116620 126.1089154  66.1418281  75.7566660 126.0056286  67.0235903
  74.9945636 125.9407171  66.8531775  80.5740766 122.8943684  70.0026312
  81.3026927 122.7159639  69.5564469  80.6635659 123.7361764  70.2133490
  80.6947428 122.9927562  69.9679830  84.5549067 133.8297071  73.9058606
  85.3106582 134.2628586  73.9447515  84.6611391 133.1801841  74.4793242
  84.6819237 133.7974555  73.9956632  87.5126721 124.6984176  76.8990437
  88.1552629 124.7682281  77.4852352  87.7649742 124.0313399  76.3969979
  87.6448853 124.6110525  76.9117716  74.4403074 129.1691446  65.4799761
  73.7261251 128.8829625  65.8922194  74.9247043 129.5088072  66.1206149
  74.4062437 129.1773096  65.6355396  75.2843933 127.9084740  81.5115011
  74.5915730 127.4381720  81.7575743  75.9004261 127.6823044  82.0856718
  75.2728463 127.8051872  81.6324164  74.0084492 131.8750144  82.6541856
  74.7324465 131.8603174  83.1406751  74.1100629 132.5845499  82.1563825
  74.1302701 131.9774847  82.6520643  81.3829442 135.3549228  87.5190803
  80.5902423 135.6692740  87.7043423  81.4978369 135.5700697  86.6811588
  81.2824852 135.4333065  87.4229138  84.0560761 132.0783220  71.8085819
  84.1507615 132.8172514  72.2625445  83.4319604 131.6500695  72.2420384
  83.9769791 132.1244540  71.9393967  82.3113235 135.2569432  82.4576100
  82.8852096 134.6196676  82.6124664  82.2328038 135.2573515  81.5885758
  82.3846469 135.1634544  82.3522511  70.9109651 132.0358642  76.2958814
  71.4883154 131.8995092  76.9351060  70.2123713 131.5794426  76.5504399
  70.8930672 131.9480908  76.4281104  84.3083782 133.9231959  65.0422771
  84.2263945 133.9934146  65.9077758  84.9463503 134.4861703  64.8506512
  84.3903619 134.0170930  65.1412721  77.6676953 133.6892697  74.5097297
  77.4096197 132.8564432  74.4828597  77.7225436 133.9150310  73.6689798
  77.6376731 133.5990469  74.3817434  82.7478003 125.7921148  74.6101390
  82.0434330 125.3030333  74.7685309  82.7962978 125.8043622  73.7389835
  82.6508055 125.7210796  74.5040730  76.6411665 131.2430460  74.9962192
  76.0661257 131.4022628  75.6326153  76.2647342 130.6065869  74.5330643
  76.5014478 131.1728273  75.0216751  80.3084954 129.7153809  79.8554571
  79.9199387 129.2908027  79.2006762  79.6439652 129.9635959  80.3631597
  80.1531882 129.6892530  79.8342439  89.9508223 129.4728814  72.6302401
  89.6944788 128.6608755  72.4400283  90.7937537 129.4806381  72.4032588
  90.0374249 129.3540811  72.5687218  84.1311316 123.4128438  77.3678555
  84.5121827 122.7306609  77.7546429  83.3274600 123.1238040  77.1854219
  84.0687777 123.2695486  77.3982611  81.4123892 133.9452414  68.0531378
  82.2264531 134.2367306  67.9414149  81.3483033 133.2912276  67.4789671
  81.5226631 133.8917608  67.9520215  77.9234616 132.6376221  67.5178579
  78.3079768 132.4183928  68.2695124  77.6746236 133.4639166  67.6479655
  77.9436688 132.7274367  67.6479655  78.0903156 125.9182636  87.2341163
  77.7756597 126.6882199  86.9710726  77.7693088 125.3552892  86.6493390
  77.9962075 125.9492905  87.1082513  75.6435053 124.3073158  72.8487360
  74.7757478 124.3795757  72.9144969  75.9310257 125.1095236  73.0375335
  75.5574801 124.4367305  72.8862126  84.7667942 124.4551017  81.1798681
  85.5121534 124.2660827  80.7662107  84.3505246 124.9809255  80.6212538
  84.8152916 124.5053162  81.0363255  85.8458619 130.0656579  75.2408783
  85.5023385 129.3446914  75.5916032  85.9451661 129.8570430  74.3987141
  85.8100662 129.9280782  75.1680463  77.7219661 128.5179887  85.9726378
  76.9119437 128.8237667  85.8616220  78.1994348 129.2385469  86.0878962
  77.6723140 128.6694488  85.9733449  73.5702405 127.7831417  70.2904236
  73.2827201 127.4132687  69.5536183  74.2572873 128.2526272  70.0287941
  73.6291302 127.7978386  70.1419312  76.4056077 131.6484365  71.7371641
  77.1278728 131.8125523  71.2775447  75.9264069 132.3694030  71.6310980
  76.4419807 131.7782595  71.6537255  84.3649584 127.9848164  77.1168325
  83.5260685 128.0109443  76.8806589  84.4353951 128.6318899  77.6973672
  84.2517978 128.0844290  77.1677442  82.8118862 124.8833541  71.8495941
  83.5145215 124.6841289  71.3715900  82.5463051 124.1109483  72.1564785
  82.8765495 124.7396507  71.8241383  88.2407108 133.1916151  74.4029567
  88.1541082 133.3471577  75.2564346  87.7857588 133.8354226  74.0288972
  88.1610365 133.3091906  74.4736674  71.1430600 128.5612629  71.1389517
  71.2446736 129.3638791  71.4670492  71.9386486 128.3599965  70.8412597
  71.2758505 128.6498528  71.1424872  77.5747419 126.1468826  80.9026822
  77.3830616 126.1623960  81.7526246  78.4246015 126.3432500  80.8793477
  77.6723141 126.1783177  81.0250117  71.9594332 128.6759808  78.8810638
  71.8179823 127.8243748  79.0055146  72.2434895 128.7188468  78.0572844
  71.9802178 128.5559558  78.7778263  82.1132924 130.5126898  73.0255127
  81.8667638 130.4322649  73.8591916  82.4418047 129.7280366  72.8317654
  82.1254168 130.3853163  73.1202650  84.3459058 133.5206632  83.0664290
  84.3407096 132.6486449  83.0706716  85.0520052 133.7194802  82.5933745
  84.4504062 133.4210507  82.9971325  78.0729951 133.2483616  82.4378110
  78.2173327 133.8284824  81.8021220  78.4205600 133.6259913  83.1427964
  78.1457413 133.3904320  82.4477105  80.2449869 132.4473785  80.2203241
  79.4973183 132.6404799  79.8151519  80.3991394 131.6219004  79.9827363
  80.1572296 132.3538896  80.1248647  80.4851646 126.3424335  81.1098645
  80.9424260 127.0748310  81.2371437  80.5607974 125.9190801  81.8685901
  80.5642616 126.3881573  81.2399722  72.7284637 126.5890155  82.1988089
  72.1926826 125.9770513  82.5148856  72.7902402 127.1638291  82.8521755
  72.6580270 126.5837083  82.3423516  84.9578972 119.5214211  74.9792488
  85.0762540 119.9790674  74.2459791  84.7841147 118.7159472  74.6928706
  84.9498143 119.4707983  74.8293422  78.3634024 128.3326439  77.9540469
  77.5730098 128.1517899  78.2757805  78.7594646 127.5553392  77.9370764
  78.3050900 128.1913900  77.9993018  83.7477710 135.9668869  75.6799915
  83.0722712 135.7354102  76.1813302  83.7570086 135.3590052  75.0542020
  83.6496214 135.8427795  75.6616067  80.8771854 130.8086698  82.4363968
  80.8130995 131.6696655  82.3084105  81.0169042 130.4918692  81.6359519
  80.8887324 130.8886865  82.2992181  79.5590948 133.5018838  76.5780171
  79.1353197 133.7023337  75.8419189  79.3835803 132.6547686  76.6904471
  79.4701828 133.4067619  76.4853861  81.3852537 133.3728773  70.8801507
  81.9268083 132.8699154  71.3440127  81.6999096 133.3193967  70.0690992
  81.5116934 133.2908194  70.8285319  82.5341807 128.2665077  80.9323807
  82.7483776 127.6275992  80.3787161  81.9175706 128.7110901  80.5031669
  82.4747136 128.2375221  80.7874238  71.4207654 131.1805840  72.3268911
  71.8006619 131.5990385  71.6629178  70.8463019 131.7619295  72.6337754
  71.3918979 131.3283699  72.2745652  84.6980895 129.8754142  81.8707114
  83.8857576 129.5680033  81.9520287  85.1570829 129.3953143  82.4349826
  84.6461279 129.7590635  81.9661708  81.9256535 121.3765013  75.9211150
  81.0550093 121.3503734  75.8744459  82.1796877 121.2042205  75.1036996
  81.8350095 121.3475157  75.7931287  78.8974515 133.4332980  64.8584293
  79.1867040 134.2097862  65.1327867  78.9846314 132.9221711  65.5598792
  78.9528771 133.4724898  65.0026791  81.7934402 131.2814214  86.6535817
  82.2634033 131.9056330  87.0403691  81.8396282 130.6131189  87.2129031
  81.8702278 131.2748894  86.7935888  78.9505676 123.3871241  77.3784620
  78.4344164 122.6951433  77.5036199  78.3899605 124.0542018  77.3247219
  78.7912189 123.3834499  77.3890686  81.0197909 123.9264201  79.2077473
  80.6329662 123.9513233  79.9891003  80.5330847 123.3605880  78.7551990
  80.8910418 123.8459952  79.2565377  86.9947889 130.4926856  77.8317175
  86.5675497 130.4053205  77.0765275  86.3573942 130.6004632  78.4172019
  86.8377496 130.4959516  77.8062617  80.6855051 120.8131187  81.4987733
  81.3148169 121.3491487  81.2208803  80.8540914 120.7208546  82.3501299
  80.8032846 120.8792549  81.5836261  80.4868966 125.6002382  83.7714144
  81.3142395 125.3287531  83.8272759  80.5076812 126.3963223  84.1277963
  80.6121816 125.6782136  83.8329327  75.0638456 132.7466244  76.9584405
  74.2226462 132.6470119  77.1663299  75.2728464 133.5161725  77.3098726
  74.9703148 132.8458288  77.0411720  72.5414023 130.3685781  74.7869156
  72.1470720 130.4428793  74.0119265  71.9854140 130.7543728  75.3377518
  72.4016835 130.4367556  74.7536816  84.1778970 123.3467075  74.4673035
  84.3828563 123.2789383  75.3130032  83.8505393 124.1525897  74.3994212
  84.1594217 123.4553016  74.5832690  78.8755121 130.6747644  76.2082003
  78.5718258 130.1203632  76.8092410  78.1734541 130.8539854  75.7210037
  78.7271330 130.6192426  76.2251708  77.9321218 127.9848163  70.7726704
  78.2080952 127.2667076  70.3604272  78.5319887 128.5833083  70.5647811
  78.0614482 127.9668534  70.6807466  87.4312657 123.8998840  73.9475800
  86.8186971 124.3869242  74.3329532  87.5276832 123.2242331  74.4913451
  87.3550555 123.8717148  74.0854658  81.4331738 125.6561681  69.0473299
  81.8875485 125.8272241  69.7721144  81.9071784 125.0429791  68.6471075
  81.5700058 125.5912566  69.0947061  75.3507886 126.3012004  79.0444056
  75.8109368 126.3750934  79.7819179  75.3963993 127.0993259  78.6943877
  75.4258442 126.4306152  79.1016812  76.9991236 126.9678699  83.6116083
  76.6076801 126.3212046  84.0471860  77.1677099 127.5590135  84.2310338
  76.9662147 126.9592967  83.7678789  78.7744758 132.3604215  70.1518307
  79.5186803 132.7478491  70.3901257  78.9205454 131.5161641  70.3158795
  78.9055343 132.2934688  70.2112276  80.6924334 124.1554474  75.1850168
  79.8460379 124.3277282  75.0591518  80.6895466 123.3503818  75.5215996
  80.5671484 124.0615503  75.2161295  81.7622634 127.9329688  76.0512226
  81.2882588 127.4071450  76.5617537  82.1340770 127.3859161  75.4827088
  81.7472523 127.7745685  76.0427373  72.1395664 129.9301195  81.4195772
  73.0021277 129.8296904  81.3333102  71.8087447 129.3495904  80.8581344
  72.2180861 129.8292822  81.3241178  88.0259365 132.9932064  77.4619007
  87.7857588 132.1538479  77.4661433  88.5051372 133.0732231  78.1859780
  88.0611548 132.8813464  77.5693809  83.6906134 128.8266243  69.1137980
  83.1629152 128.9094987  68.4243689  84.1501842 129.5684114  69.1102625
  83.6807984 128.9486905  69.0112675  90.0264552 129.7733521  75.4148266
  89.7874322 129.7329355  74.5769050  90.1898453 130.6204673  75.5413987
  90.0154855 129.8925606  75.3101748  86.6310582 134.1583471  81.3453311
  87.3544781 133.7055997  81.1664331  86.3660544 134.4388136  80.5625639
  86.6991855 134.1334439  81.2032026  75.4997450 128.7543644  78.0806190
  74.8750520 128.7662036  77.4732143  75.1643045 129.2303819  78.7297430
  75.3582942 128.8262161  78.0862759  75.6839199 127.0968763  64.1378875
  75.3352003 127.7488488  64.6010424  75.2035645 127.0825876  63.4102746
  75.5609443 127.1911816  64.0989966  82.4129371 134.2567349  79.4948326
  81.7986364 133.7125399  79.7896961  82.9296656 133.7431585  79.0154142
  82.3985034 134.1003758  79.4672554  81.6525668 135.3271619  77.2292625
  81.2253277 134.7021338  76.7958060  81.6450613 135.0446541  78.0551632
  81.5884810 135.1924400  77.2872452  74.7688196 130.3636792  80.2981059
  74.9281682 129.6080116  80.7032780  74.5881089 130.9127731  80.9521796
  74.7653555 130.3330606  80.4543764  82.7108499 122.5298028  80.8531848
  82.2149060 122.7261702  80.1623415  83.4677561 122.9290696  80.6820650
  82.7495323 122.6175761  80.7251985  79.9811378 126.2040373  77.4435159
  80.0053865 125.6700486  76.7547939  80.2322852 125.6957682  78.1060749
  80.0221297 126.0501277  77.4399803  76.2612700 124.9311192  76.8240903
  76.3011072 125.4320398  77.5375610  75.4362365 125.0221585  76.5546826
  76.1452226 125.0193008  76.8891441  78.4442313 134.4971932  84.9261197
  77.5937944 134.6343646  85.0618842  78.6070441 133.7635710  85.3708899
  78.3426177 134.4086033  85.0116797  77.6827064 131.4471701  79.1214802
  76.8518993 131.6145519  78.9150050  77.6278581 131.0707652  79.9063687
  77.5516479 131.4161433  79.2063330  75.4910847 124.9380594  84.7571213
  76.1163550 124.3942727  85.0300645  75.0361327 124.4575512  84.1879003
  75.5159108 124.7870076  84.7132806  76.0563108 129.7227293  69.6504920
  76.1966069 130.2199757  70.3533561  76.5545640 129.0213587  69.7919133
  76.1504189 129.6929272  69.7756499  76.0863330 130.5894404  66.9797496
  76.7208409 131.1854829  66.9146958  76.1688941 130.2897862  67.7943367
  76.1919881 130.6335312  67.0900583  77.6642313 126.5208379  66.9542938
  77.9858154 126.0411462  66.3002201  77.9269257 127.3308026  66.7633750
  77.7508338 126.5698277  66.8298430  83.0601468 125.9080573  79.3166417
  83.4856539 125.4553100  78.7049944  82.4458461 125.3540644  79.5931205
  83.0330113 125.7594550  79.2671443  81.4995691 122.3795673  72.7256994
  80.8564009 122.2293320  73.2942133  81.1595098 122.1338019  71.9606099
  81.3540768 122.3207796  72.6960010  86.0895037 130.3355100  72.1487003
  85.4186227 130.8784802  72.0200069  86.7834787 130.8049955  71.9068698
  86.0923905 130.4853371  72.0942531  86.2523165 126.7910984  75.0577376
  86.6050775 126.3640707  75.7323175  85.3937966 126.7061827  75.1878453
  86.1772609 126.7155724  75.1772387  74.9506850 129.4218503  73.1160223
  74.2318839 129.8382636  73.3833086  75.3219212 129.9872742  72.5651861
  74.8998781 129.5667785  73.0743030  84.2506430 130.0546352  79.0062219
  84.2304358 129.8729647  79.8596997  84.2985631 130.9258371  78.9821802
  84.2541071 130.1562891  79.1285513  80.7253424 128.4616503  68.4533602
  80.1318263 128.7833500  67.9018169  80.7628702 127.6157599  68.2454708
  80.6427813 128.3840832  68.3416374  87.6847225 121.9129396  75.9861689
  87.1778089 121.2058535  75.9182866  88.4814658 121.5822584  76.1162765
  87.7274464 121.7602547  75.9960684  83.6011241 128.4196008  71.8835353
  83.3724934 128.4428709  71.0413711  83.8609317 127.5953475  72.0030363
  83.6057429 128.3012088  71.7760550  77.8830469 130.2730481  81.4860453
  77.3709372 129.6651664  81.8445484  77.7109965 130.9887073  81.9534428
  77.7820106 130.2893780  81.6076676  72.7296184 128.7168056  84.1362815
  72.5598774 129.3769431  83.5911021  72.2862134 128.9274617  84.8575304
  72.6395517 128.8454038  84.1624444  76.6556003 126.9572554  73.1789548
  77.1313369 127.3189634  72.5439729  76.1544603 127.6129022  73.4589691
  76.6521362 127.1066743  73.1266289  81.7599539 128.1954725  83.9262708
  82.3170970 127.9668535  83.2941174  81.4360604 128.9560391  83.6497921
  81.7945950 128.2738562  83.7919205  69.6298248 131.6214922  79.3951304
  69.0824968 130.9515567  79.5132173  70.4190626 131.2544770  79.4594772
  69.6650432 131.4679908  79.4220005  79.4782657 131.2822379  84.8914715
  80.2293984 131.5974056  85.2054270  79.6705233 131.0801550  84.0648637
  79.6174071 131.2989761  84.8158111  78.6982656 129.1013754  66.5462932
  79.0781621 129.1193383  65.7614047  77.9575252 129.5467743  66.4253779
  78.6451494 129.1695529  66.4126500  86.3267947 127.4095945  72.1338511
  86.3262173 127.2544602  72.9922787  86.1224127 128.2558932  72.0779896
  86.2967725 127.5116566  72.2526450  84.0508799 132.0893447  75.7874718
  84.5462464 131.3716442  75.7478738  83.2408575 131.7864245  75.6729205
  84.0052692 131.9391093  75.7648444  86.1160618 134.8397134  78.4751846
  86.5415689 134.3171556  77.9222272  85.7517538 135.4377972  77.9540469
  86.1247220 134.8507361  78.3160856  79.6208712 123.3258869  81.7611099
  79.7536618 122.5289863  82.0892074  80.0053865 123.8525272  82.3409374
  79.6965041 123.2858786  81.8954602  82.6941067 120.2489195  78.3592192
  81.8887031 120.1386925  78.6760030  82.5647803 120.3501651  77.5022058
  82.5561200 120.2472865  78.2800232  86.1507028 126.4134687  78.9531889
  85.5670017 126.9143894  78.5409456  86.4711322 125.9064243  78.3196212
  86.1120203 126.4126522  78.7990396  78.6901827 125.3275282  69.2290564
  79.5117521 125.4973595  68.9872259  78.2271478 125.4822543  68.5056861
  78.7432989 125.3757015  69.0862208  77.2797159 123.3218044  80.0088992
  77.8241572 122.9809171  80.5993334  77.3334095 124.1803506  80.1510277
  77.3686278 123.3973304  80.1170866  22.2607879  15.3146233  57.9972961
  22.2301883  16.1690870  58.1691230  22.8589228  15.0141525  58.5559105
  22.3445037  15.3962729  58.1047763  15.4607564  14.4021884  62.7525891
  14.6045459  14.5630382  62.8035008  15.5075218  13.5313948  62.7730952
  15.3406675  14.2972686  62.7631957   9.8448704  23.9384602  58.5163123
   9.0931603  23.5600140  58.2879168  10.2934715  23.9703035  57.7681933
   9.7998370  23.8870209  58.3720625  18.7701280  20.6708410  72.3586347
  19.4768048  20.1760440  72.4873282  18.9589216  21.1117491  71.6289005
  18.9029186  20.6626760  72.2695393  15.2973663  24.3609971  53.9448670
  14.9625032  25.0386893  53.5092892  15.8100534  23.9715283  53.3565542
  15.3239245  24.4034549  53.7935462  14.8377955  26.3124240  59.8859782
  15.2217334  26.8811139  59.3464557  14.7737096  25.5873750  59.4065598
  14.8851382  26.2899703  59.7353644  18.3059385  16.4613928  65.3957543
  18.8515345  17.1399014  65.4551513  18.2476261  16.3201389  64.5359125
  18.3775299  16.5405929  65.2769604  11.4233460  23.9502994  60.7825895
  11.5243823  23.1403348  61.0923023  10.8275205  23.8559940  60.1525574
  11.3505998  23.8168022  60.7352134  20.0824454  17.8898535  56.2691271
  19.9663979  18.6406221  56.6983409  20.8780340  17.6322488  56.5187358
  20.1829043  17.9633382  56.3695362  11.2634199  28.8680583  62.1840751
  11.9071655  29.3093747  62.5736910  11.5890455  28.0634009  62.0971010
  11.4066028  28.8145778  62.2286229   4.6198504  19.9723280  60.4078229
   4.3848688  19.1390933  60.3010498   4.7584145  20.2527946  59.5939430
   4.6054166  19.8906784  60.2720584  11.9654779  21.8792558  57.5560613
  12.2870620  22.4197765  56.9521921  12.6126876  21.3089329  57.6882903
  12.1080834  21.8751733  57.4867649  14.0156487  13.8808553  57.6395000
  14.7136652  14.0596680  58.1316463  14.3308820  13.3578892  57.0165389
  14.1651824  13.8302325  57.6197010   6.6457725  15.6861293  65.5506106
   6.5216421  16.2723738  66.1855925   7.2976009  15.1921489  65.8518381
   6.7231374  15.7000097  65.6892035  14.2044423  20.2678998  57.6274791
  14.6438058  19.6596098  58.0729564  14.0549085  19.8886371  56.8560256
  14.2465888  20.1217469  57.5793959  11.6716066  18.8623010  64.8293617
  12.3165068  18.3695453  64.5104565  11.9117843  19.0047796  65.6559695
  11.8026651  18.8100452  64.9043150  14.2102157  21.7077916  64.4800509
  14.4925400  20.9129321  64.2587265  14.9388317  22.1858503  64.5005570
  14.3591721  21.6612513  64.4503525  17.8053759  18.6206179  54.5805561
  17.7205054  19.4767146  54.7255129  18.2938142  18.3450503  55.2487720
  17.8642656  18.7063501  54.7007642  18.7372192  15.2390973  56.0803296
  18.2083664  15.4550607  56.7400602  19.2597212  15.9327112  56.0004265
  18.7360645  15.3734110  56.1658895  24.1920245  20.8137278  61.4536340
  23.3617948  21.0247921  61.6169757  24.1429498  19.9874332  61.1778624
  24.0626981  20.7226884  61.4373706  10.6271800  19.1354190  54.8810764
  10.0429015  19.6404222  55.2876628  10.2241895  18.9096577  54.1407356
  10.4811104  19.1762438  54.8315789   6.1815829  24.8508951  61.6834435
   5.6983407  25.5759441  61.6594019   6.9939147  25.1485081  61.7944593
   6.2306576  25.0011305  61.6961714  12.2529983  23.6441132  64.2884250
  11.7356924  23.2848547  63.6845558  12.9504374  23.1203306  64.2990316
  12.2795564  23.5138820  64.2014508  15.9093575  24.0935946  70.2500423
  15.9976921  23.9062086  71.0978633  16.3383287  23.4473376  69.8505270
  15.9855677  23.9698954  70.3172174  13.4764035  23.3767106  69.2318085
  12.9134869  22.9639716  69.7557746  14.2385058  23.3020012  69.6511228
  13.5058483  23.3044507  69.3711085  15.0849015  15.3819842  53.3579684
  15.3245018  15.5897826  52.5455027  15.4064856  14.5777351  53.4668629
  15.1686172  15.2933943  53.2540237   9.0360026  25.3665127  61.8354715
   9.7380605  24.8517116  61.8927472   8.9557509  25.6939279  62.6401590
   9.1283786  25.3379353  61.9627507  23.6874203  13.4607678  65.2486762
  22.8502625  13.5309866  65.4834356  23.6562434  13.4632173  64.3761064
  23.5592486  13.4717905  65.1546310  10.0838933  15.6040714  70.9635130
  10.2559436  15.4946609  71.8120412  10.6208290  16.2495120  70.7266322
  10.1883937  15.6832716  71.0540227   8.3610801  21.5571479  61.3440323
   9.1999701  21.7894412  61.3914085   8.3922571  20.6875791  61.2747359
   8.4892519  21.4628426  61.3404968   8.9863504  21.9772354  65.6453629
   9.5261729  21.8343485  66.3157001   8.3033451  22.3769105  66.0137655
   8.9655658  22.0152025  65.7988050  18.4104389  17.6563355  60.8398653
  19.1661904  18.0894869  60.8787562  18.5166714  17.0068125  61.4133289
  18.5374560  17.6240839  60.9296679  21.4484560  21.4836632  61.5901056
  21.0119792  21.4873375  62.3460027  21.1147476  22.1642131  61.1580633
  21.3347180  21.5849088  61.6381889  16.0213634  23.5244965  72.9144206
  16.8054051  23.6375813  73.2799948  15.8210229  22.6986102  73.1102892
  16.1079659  23.4191684  72.9978592   4.3900649  18.1972645  65.7988050
   4.1239065  17.3811762  65.9579040   4.4039214  18.2425801  64.9283566
   4.3525372  18.0829550  65.6941532  21.3682043   8.5250460  63.8330484
  22.0107952   8.5948565  64.4192399  21.6205064   7.8579683  63.3310026
  21.5004175   8.4376809  63.8457763  16.1784027  25.4355067  66.5610662
  15.3799273  25.1954567  66.8184531  16.6270039  25.4869460  67.3077710
  16.1258639  25.4077458  66.7095586  24.5828907  18.2017552  60.4820693
  25.2445341  17.6408221  60.3816602  23.9420319  17.7069583  60.8073384
  24.5857774  18.0453961  60.5153033  15.4705714  21.4987684  52.7901616
  15.8856863  21.1672707  52.0986112  14.6397644  21.2656586  52.6621753
  15.4093723  21.4158939  52.6692464   4.7994063  18.9831425  63.0799794
   4.6169636  18.9578311  62.2272087   5.5343732  19.4530362  63.1188703
   4.8808127  19.0492787  62.9597713  20.8693737  19.2182935  60.2232682
  21.1049327  19.3628133  59.3959533  21.0183301  19.9825343  60.6164196
  20.9259541  19.3521989  60.1596286   7.8639815  15.7016427  69.5881903
   8.5879787  15.6869458  70.0746798   7.9655951  16.4111783  69.0903871
   7.9858024  15.8041131  69.5860690  22.6984194  18.0584600  58.0602286
  23.0292411  18.5912241  57.4542381  23.2717282  18.1123488  58.7164237
  22.8317873  18.1454169  58.0680068  15.2384764  19.1815512  74.4530850
  14.4457745  19.4959024  74.6383470  15.3533691  19.3966980  73.6151635
  15.1380175  19.2599349  74.3569185  17.9116083  15.9049503  58.7425866
  18.0062938  16.6438797  59.1965491  17.2874927  15.4766979  59.1760430
  17.8325113  15.9510824  58.8734013  16.1668557  19.0835716  69.3916147
  16.7407419  18.4462960  69.5464711  16.0883361  19.0839798  68.5225804
  16.2401792  18.9900827  69.2862558  18.1639104  17.7498243  51.9762818
  18.0819267  17.8200430  52.8417805  18.8018825  18.3127987  51.7846559
  18.2458942  17.8437214  52.0752767  11.5232276  17.5158981  61.4437344
  11.2651520  16.6830716  61.4168644  11.5780758  17.7416594  60.6029845
  11.4932054  17.4256752  61.3157481  16.6033326   9.6187432  61.5441437
  15.8989653   9.1296617  61.7025356  16.6518300   9.6309906  60.6729881
  16.5063377   9.5477080  61.4380777  10.4966988  15.0696743  61.9302239
   9.9216579  15.2288912  62.5666200  10.1202664  14.4332152  61.4670690
  10.3569800  14.9994556  61.9556797  14.1640276  13.5420093  66.7894617
  13.7754709  13.1174310  66.1346809  13.4994975  13.7902242  67.2971644
  14.0087204  13.5158814  66.7682485  23.8063546  13.2995097  59.5642447
  23.5500110  12.4875039  59.3740330  24.6492860  13.3072664  59.3372635
  23.8929571  13.1807095  59.5027265  15.2679215  17.7718697  54.9871424
  16.0819854  18.0633590  54.8754196  15.2038356  17.1178560  54.4129717
  15.3781954  17.7183892  54.8860262  21.4888705  20.4544693  69.4001000
  21.2527342  19.6232758  69.2813061  22.1331934  20.4030301  69.9855844
  21.5483376  20.3242381  69.4686894  11.1387123  21.2440215  60.1143736
  11.7761070  21.0051962  60.6595530  11.5642195  21.4477374  59.3796897
  11.2963289  21.2391225  60.0860894   5.8299765  23.4828551  63.9978040
   5.8703911  23.7543402  63.1697820   6.3894289  24.0070459  64.4135828
   5.9183111  23.6004306  63.9369928  11.7789938  16.4642504  54.4518626
  12.1635091  16.2450211  55.2035171  11.5301558  17.2905450  54.5819702
  11.7992011  16.5540651  54.5819702  22.5125125  20.2389142  65.4629295
  22.2070943  20.9717199  65.8242610  21.7931341  19.8327072  65.1822081
  22.3612468  20.2870875  65.4742432  13.5208595  21.7212637  61.7937523
  13.5947603  21.5587809  62.6479373  14.3378101  21.9102827  61.5498004
  13.6524954  21.7249380  61.8835548  28.2126918  16.8782143  64.7897639
  28.1451418  16.8978102  63.9200225  28.1982580  17.7212470  65.0153309
  28.2005674  17.0055877  64.6950116   7.2814352  22.0670500  58.8231966
   6.4552469  22.3132237  58.6966245   7.3426343  21.9882581  59.6894024
   7.1688519  22.0915449  58.9320911  18.6223264   8.2817301  68.1138728
  19.3676856   8.0927111  67.7002154  18.2060569   8.8075538  67.5552585
  18.6708238   8.3319446  67.9703301  12.0613181  24.6847380  56.5250996
  12.3511479  24.2936362  55.8010223  12.7916661  24.8664085  56.9656271
  12.2120065  24.6541194  56.4833803  25.9985535  15.6526529  63.0644233
  26.5493457  15.0194598  63.3041325  25.9829650  16.1841922  63.7559737
  26.0770731  15.6375477  63.2023091  12.6507926  19.4865126  67.6104127
  12.1519619  20.1980894  67.6889015  13.4608150  19.8065793  67.5722289
  12.6964033  19.6391975  67.6160695  10.0019096  26.6614763  59.5911146
   9.7819392  26.3712118  60.3837813   9.7813618  26.0029718  59.0629058
   9.9366690  26.5214471  59.6300055   8.9136043  18.7488079  61.8566848
   8.6249292  18.1225551  62.3912575   9.7819391  18.6908367  61.9231528
   8.9996295  18.6475624  61.9457802  19.7013941  13.8922863  62.1748829
  19.3578707  13.1713198  62.5256079  19.8006984  13.6836714  61.3327188
  19.6655984  13.7547066  62.1020509  12.1687052  28.0344153  58.3741838
  12.8211110  27.5020595  58.6032864  11.4712661  27.6812805  58.7609712
  12.1617770  27.9033676  58.4654006   9.1168317  20.3883330  57.7809213
   9.8714285  20.7696369  57.9944675   8.5238929  20.8394474  58.2355909
   9.1405030  20.5112158  57.8792091  20.1626970  20.3548567  57.7172818
  20.7285003  21.0141777  57.6331360  19.5154874  20.6998265  58.1889220
  20.1505727  20.5030508  57.7745574  11.5774984  12.3446171  72.9066425
  10.7674760  12.6503950  72.7956267  12.0549671  13.0651753  73.0219009
  11.5278463  12.4960772  72.9073496  10.4366543  21.5591892  63.1549328
   9.9147297  21.6992183  63.8401193  10.8240564  20.8002556  63.3451445
  10.4170244  21.4677416  63.2850404  16.6333548  23.2987351  57.1409897
  16.3920224  22.5655212  56.7336962  16.8134881  23.8474208  56.4876230
  16.6241172  23.2709742  56.9840120  11.8632869  18.5895911  58.5530819
  11.6675652  19.1970645  57.9591122  12.0867215  17.8963855  58.0722493
  11.8667510  18.5773436  58.3946900  10.2611399  15.4750649  58.6711687
  10.9834051  15.6391807  58.2115493   9.7819392  16.1960313  58.5651027
  10.2975130  15.6048878  58.5877301  18.2204907  11.8114447  64.0508372
  17.3816007  11.8375726  63.8146636  18.2909274  12.4585183  64.6313719
  18.1073300  11.9110573  64.1017489   7.9119016  17.8808721  67.7765827
   8.4240113  18.1592974  67.1274587   7.6255358  18.6198015  68.1428640
   7.9453879  18.0311075  67.7355705  16.6674185   8.7099824  58.7835988
  17.3700538   8.5107573  58.3055946  16.4018374   7.9375767  59.0904832
  16.7320817   8.5662790  58.7581430  22.0962430  17.0182434  61.3369614
  22.0096405  17.1737860  62.1904393  21.6412910  17.6620510  60.9629019
  22.0165687  17.1358189  61.4076721  15.9688247  14.3393181  59.9595174
  15.7222961  14.2588932  60.7931962  16.2973370  13.5546649  59.7657701
  15.9809490  14.2119447  60.0542697  19.8636295  21.0476541  63.7481955
  19.7250655  21.7457586  64.2530697  19.0836293  20.8925197  63.3918137
  19.7279522  21.1276707  63.7708229  18.2014380  17.3472916  70.0004336
  18.1962419  16.4752733  70.0046763  18.9075374  17.5461085  69.5273792
  18.3059384  17.2476790  69.9311372  11.9285274  17.0749900  69.3718157
  12.0728650  17.6551108  68.7361267  12.2760922  17.4526197  70.0768011
  12.0012735  17.2170604  69.3817152  14.1005191  16.2740068  67.1543288
  13.3528505  16.4671083  66.7491566  14.2546716  15.4485288  66.9167410
  14.0127619  16.1805180  67.0588694  11.0013029  25.2652672  66.2379183
  11.1502593  24.7055588  65.5852588  11.7813031  25.3444673  66.6211702
  11.1387122  25.1938237  66.1976133  21.3589668  20.4054794  54.5098454
  20.9796477  19.6191932  54.5027743  20.6955914  20.9541651  54.3670098
  21.2048143  20.3699618  54.4879251  13.5266329  25.4367315  67.5163674
  13.4510001  24.7676125  68.0714463  13.4556189  26.1385103  68.0304341
  13.5046936  25.4412222  67.6740522  14.3406968  10.1690619  68.0438692
  14.7979582  10.9014593  68.1711484  14.4163297   9.7457084  68.8025948
  14.4197938  10.2147857  68.1739768  14.1836576  23.9568313  58.3487280
  14.9486467  23.6877957  58.0269945  14.0814666  23.4718324  59.0657343
  14.2818072  23.8457878  58.4067108  12.2189346  12.1592723  64.8880516
  11.4285421  11.9784183  65.2097852  12.6149969  11.3819675  64.8710810
  12.1606222  12.0180184  64.9333064  16.7055237  20.9880497  50.3287230
  17.4728222  21.0480622  49.9193081  16.2586546  20.4160939  49.8443548
  16.7528664  20.9117073  50.1964940  17.6033032  19.7935153  62.6139962
  16.9278034  19.5620385  63.1153349  17.6125408  19.1856336  61.9882067
  17.5051537  19.6694078  62.5956114  14.7327176  14.6352982  69.3704015
  14.6686318  15.4962938  69.2424152  14.8724364  14.3184975  68.5699566
  14.7442646  14.7153149  69.2332228  19.6049767  22.6500285  54.8450140
  19.6869604  23.4567272  54.5211591  20.0899509  22.6696245  55.5690913
  19.6886925  22.7720948  54.9037038  13.4146270  17.3285121  63.5120218
  12.9908519  17.5289620  62.7759236  13.2391125  16.4813969  63.6244518
  13.3257151  17.2333903  63.4193908  12.9157964  28.8435634  65.9741675
  13.4053894  28.1446424  65.7917340  12.3442196  28.5459504  66.5617732
  12.9042494  28.6961858  66.0342716   8.7028715  17.8237173  58.9448190
   8.8593334  17.7583976  59.8004182   9.0429308  18.5985725  58.7326870
   8.7761950  17.9286371  59.0402784  15.2407860  17.1995056  57.8141554
  15.7823405  16.6965437  58.2780174  15.5554419  17.1460251  57.0031039
  15.3672257  17.1174477  57.7625366  19.1124967  21.4097704  74.9268466
  19.9259833  21.1382853  75.0873598  18.9519934  21.1105244  74.1228662
  19.2094916  21.3252630  74.8313872  13.4094310  22.5912408  55.0981582
  13.4787130  21.7326946  55.2374582  14.1882765  22.8084289  54.7700606
  13.5347160  22.4965272  55.0698739  16.3897129  12.0931361  67.8663854
  16.6039099  11.4542275  67.3127208  15.7731028  12.5377185  67.4371716
  16.3302458  12.0641505  67.7214285  17.8001797  25.0150109  59.3118075
  17.4081589  24.7116824  58.5940941  17.9554869  25.8519199  59.1223029
  17.7655387  25.0933946  59.1774572  18.5536217  13.7020426  68.8047161
  17.7412899  13.3946316  68.8860334  19.0126152  13.2219426  69.3689873
  18.5016602  13.5856918  68.9001755  17.9641472  21.5800098  59.2524105
  17.6056127  21.7514741  60.0288138  17.4780183  22.0413304  58.6952104
  17.8400169  21.6739069  59.2849375  12.7529837  17.2599263  51.7924340
  13.0422362  18.0364146  52.0667914  12.8401636  16.7487995  52.4938839
  12.8084094  17.2991182  51.9366838  15.6489725  15.1080498  73.5875863
  16.1189356  15.7322614  73.9743738  15.6951605  14.4397473  74.1469078
  15.7257601  15.1015178  73.7275935  19.1246211  22.4703994  70.1991306
  19.7625932  21.9764190  69.8653762  18.4820303  22.3981395  69.6143533
  19.1240438  22.3863003  70.0633661  20.8503211  14.3193140  64.7657222
  20.4230819  14.2319489  64.0105321  20.2129264  14.4270916  65.3512066
  20.6932819  14.3225800  64.7402663  14.3424288   9.4268665  70.7054191
  15.1697718   9.1553814  70.7612806  14.3632134  10.2229507  71.0618009
  14.4677138   9.5048419  70.7669374  19.1800468  23.1623802  66.8396663
  19.9692846  22.8112867  66.9598745  19.3544066  23.9760191  66.5773297
  19.3220749  23.2309659  66.8184531   8.9193778  16.5732528  63.8924452
   8.0781785  16.4736402  64.1003346   9.1283786  17.3428008  64.2438773
   8.8258471  16.6724571  63.9751767  18.0334292   7.1733359  61.4013082
  18.2383885   7.1055667  62.2470079  17.7060716   7.9792180  61.3334259
  18.0149540   7.2819299  61.5172737  12.7310443  14.5013927  63.1422049
  12.4273581  13.9469915  63.7432457  12.0289864  14.6806137  62.6550084
  12.5826653  14.4458710  63.1591755  11.7876540  11.8114447  57.7066751
  12.0636275  11.0933360  57.2944319  12.3875210  12.4099367  57.4987857
  11.9169805  11.7934818  57.6147512  10.7928794  21.7163648  67.8494147
  10.6849149  21.7265710  68.7156205  11.0024576  22.5418428  67.6599101
  10.8078905  21.8404723  67.9498239  21.2867980   7.7265123  60.8815847
  20.6742293   8.2135525  61.2669579  21.3832155   7.0508614  61.4253498
  21.2105877   7.6983432  61.0194705  15.2887061   9.4827964  55.9813346
  15.7430807   9.6538525  56.7061191  15.7627106   8.8696075  55.5811122
  15.4255381   9.4178850  56.0287108   8.8102586  18.9676290  65.3116085
   8.2190519  19.6085789  65.2819100   9.5723610  19.3913908  65.2847384
   8.8350847  19.1252129  65.3031232  24.9293008  18.7982060  66.3093363
  24.9876131  19.2468709  67.0553340  24.2959475  19.2080873  65.8723443
  24.8444303  18.9255795  66.3545911  18.5692102  24.4185602  62.7448109
  18.3711791  24.9076416  62.0504321  17.9479813  24.6226843  63.3232243
  18.4479667  24.5202140  62.7271333  12.6300081  16.1870499  57.0858354
  13.3742126  16.5744775  57.3241303  12.7760777  15.3427924  57.2498841
  12.7610666  16.1200972  57.1452323  15.6177957  11.7595972  62.9852273
  15.1437911  11.2337734  63.4957584  15.9896092  11.2125445  62.4167134
  15.6027846  11.6011969  62.9767420  21.8814687  16.8198348  64.3959053
  21.6412910  15.9804763  64.4001480  22.3606694  16.8998514  65.1199827
  21.9166871  16.7079747  64.5033856  17.5461456  12.6532527  56.0478027
  17.0184475  12.7361271  55.3583736  18.0057164  13.3950398  56.0442671
  17.5363307  12.7753189  55.9452722  23.8819874  13.5999805  62.3488312
  23.6429644  13.5595639  61.5109097  24.0453775  14.4470957  62.4754034
  23.8710178  13.7191890  62.2441794  20.4865904  17.9849754  68.2793358
  21.2100103  17.5322281  68.1004378  20.2215867  18.2654420  67.4965686
  20.5547178  17.9600723  68.1372073   6.0678448  20.6410388  66.4550001
   5.5378373  19.9502827  66.5044976   6.3403542  20.6320573  65.6262710
   6.0303171  20.5377520  66.3397417  17.0998539  21.2236090  55.1787684
  17.8232738  21.6894203  55.0352257  16.6599130  21.2909700  54.4285281
  17.1414231  21.3019927  55.0472465  16.2684694  18.0833632  66.4288373
  15.6541687  17.5391683  66.7237008  16.7851979  17.5697869  65.9494189
  16.2540356  17.9270042  66.4012601  15.5080991  19.1537902  64.1632671
  15.0808599  18.5287621  63.7298107  15.5005935  18.8712824  64.9891679
  15.4440132  19.0190683  64.2212499   8.6243518  14.1903076  67.2321105
   8.7837005  13.4346400  67.6372827   8.4436412  14.7394015  67.8861843
   8.6208877  14.1596889  67.3883811  13.8366701  10.0306657  64.3775205
  13.8609188   9.4966769  63.6887985  14.0878174   9.5223966  65.0400796
  13.8776619   9.8767561  64.3739850  12.2997636  18.3238215  71.8601244
  11.4493266  18.4609930  71.9958889  12.4625763  17.5901994  72.3048946
  12.1981499  18.2352316  71.9456843  11.5382386  15.2737985  66.0554849
  10.7074316  15.4411803  65.8490097  11.4833903  14.8973936  66.8403734
  11.4071801  15.2427716  66.1403377   9.9118430  13.5493577  56.5844966
  10.0521391  14.0466041  57.2873608  10.4100963  12.8479871  56.7259180
  10.0059511  13.5195555  56.7096545   9.9418652  14.4160688  53.9137543
  10.5763732  15.0121113  53.8487005  10.0244263  14.1164145  54.7283413
  10.0475203  14.4601596  54.0240630  22.9201218  16.9476165  66.7823907
  23.5119059  17.5873416  66.8142105  23.3560213  16.2499202  67.0715974
  23.0719649  16.9394515  66.8304740  14.7494608  21.3693537  67.4081801
  14.2419699  21.9229384  67.8522432  14.4521254  21.4301827  66.5900576
  14.6299493  21.4599849  67.3530258  16.9156790   9.7346857  66.2506464
  17.3411862   9.2819383  65.6389991  16.3013783   9.1806928  66.5271252
  16.8885436   9.5860833  66.2011490   6.4471640  16.6128528  57.1827089
   6.9563870  17.2093036  57.5638395   6.9205913  16.3454502  56.5003509
   6.5915016  16.6614344  57.1381612  17.3602388  25.2856795  55.3385745
  16.6431698  25.1117657  54.8732982  18.0109126  25.0509367  54.8061231
  17.3504239  25.2252588  55.1914963  19.9450360  14.1621384  59.0827050
  19.2741550  14.7051086  58.9540115  20.6390110  14.6316239  58.8408745
  19.9479227  14.3119655  59.0282578  13.9937093  26.3018096  64.3138808
  13.7702748  25.5436925  64.6822835  13.5046937  26.3316117  63.5919248
  13.8880542  26.1940320  64.2615549  20.1078487  10.6177267  61.9917423
  20.4606097  10.1906990  62.6663222  19.2493289  10.5328111  62.1218499
  20.0327932  10.5422008  62.1112434   8.8062172  13.2484787  60.0500270
   8.0874161  13.6648920  60.3173133   9.1774534  13.8139026  59.4991908
   8.7554104  13.3934068  60.0083077  18.1061753  13.8812636  65.9402265
  18.0859680  13.6995931  66.7937044  18.1540954  14.7524654  65.9161849
  18.1096394  13.9829174  66.0625560  16.0508083  20.4699828  71.8650742
  16.0103938  19.8249505  71.2795898  16.8631401  20.4136445  72.1776154
  16.1651236  20.3658795  71.8247691  12.6415550  26.5218554  61.7675893
  12.2275949  25.8592684  61.3779734  13.3262925  26.6696413  61.2471587
  12.6813922  26.4459212  61.6332390  16.0080844  25.6808639  62.5199509
  15.6097128  25.7910909  61.7520330  15.3932064  25.8890705  63.1026069
  15.8579734  25.7282207  62.4930809  14.5808746  12.2882787  55.3873649
  13.9873586  12.6099783  54.8358216  14.6184024  11.4423882  55.1794755
  14.4983136  12.2107115  55.2756420  21.5402547   5.7395679  62.9201736
  21.0333412   5.0324819  62.8522913  22.3369981   5.4088868  63.0502812
  21.5829786   5.5868831  62.9300731  17.4566563  12.2462291  58.8175399
  17.2280256  12.2694993  57.9753758  17.7164639  11.4219758  58.9370410
  17.4612751  12.1278371  58.7100597  11.7385791  14.0996764  68.4200500
  11.2264695  13.4917947  68.7785531  11.5665288  14.8153357  68.8874475
  11.6375429  14.1160064  68.5416723  23.7422687  20.2560606  55.9042600
  24.1256293  21.0051962  56.1340697  22.9466800  20.5026425  55.6454589
  23.6816469  20.4030300  55.9000174  15.6154862  12.0221009  70.8602755
  16.1726292  11.7934819  70.2281221  15.2915927  12.7826675  70.5837967
  15.6501272  12.1004846  70.7259252  13.3337979  15.1088662  71.8254762
  14.0849306  15.4240339  72.1394316  13.5260556  14.9067833  70.9988684
  13.4729393  15.1256044  71.7498158  12.5537979  12.9280037  53.4802979
  12.9336944  12.9459667  52.6954094  11.8130575  13.3734026  53.3593826
  12.5006816  12.9961812  53.3466547  20.1823269  11.2362229  59.0678558
  20.1817496  11.0810885  59.9262834  19.9779449  12.0825216  59.0119943
  20.1523047  11.3382849  59.1866497  17.9064121  15.9159730  62.7214765
  18.4017787  15.1982726  62.6818785  17.0963897  15.6130528  62.6069251
  17.8608015  15.7657377  62.6988490  13.3522733  19.7657544  54.8711769
  12.5434056  19.4424217  54.8245078  13.8597642  19.0590766  54.8040018
  13.3072400  19.6138860  54.8542063   3.9813010  17.1929737  60.5959133
   3.1158530  17.1815427  60.4841904   4.0811826  17.0059960  61.4430273
   3.8687177  17.1635798  60.7048078  19.9715940  18.6663418  65.4091893
  20.3971012  18.1437840  64.8562318  19.6072860  19.2644255  64.8880516
  19.9802543  18.6773645  65.2500903   9.6070020  26.9627635  64.1689239
   9.9216579  27.7764024  64.1767021  10.0163433  26.5777854  64.8371398
   9.7138118  27.0256338  64.2693330  16.5594540  22.3797682  61.7393051
  17.0305718  23.0937945  61.9083036  16.8954718  21.7796432  62.2752920
  16.6789655  22.3969147  61.8425427  18.6471524  23.9898996  73.9185123
  18.7568490  23.2007556  74.2741870  18.9762421  23.9004932  73.1159461
  18.7123930  23.8604849  73.8527514  17.1968486  22.1715616  68.5020743
  16.6489432  21.5473500  68.2340809  17.6581515  22.3609888  67.7864823
  17.1835695  22.1074667  68.3571174  20.0062350  10.2400971  65.8871936
  19.4225339  10.7410177  65.4749503  20.3266644   9.7330527  65.2536259
  19.9675526  10.2392806  65.7330443   6.9483040  20.9100744  63.8167847
   7.5527897  20.8696578  63.1881668   6.7410353  21.7571896  63.8471903
   7.0071937  21.0288746  63.7283964  16.7626812  23.1766689  65.0330085
  17.5825186  23.0329655  65.2946380  16.4820890  23.8012888  65.5746522
  16.8423556  23.2477041  65.1518024   2.1834322  19.8935361  63.6866770
   2.0858600  19.0831633  63.9956827   2.9663192  19.8727155  63.3013038
   2.2850459  19.7702452  63.6753633  33.2340463  30.8331541  57.9972961
  33.2034467  31.6876178  58.1691230  33.8321811  30.5326833  58.5559105
  33.3177620  30.9148037  58.1047763  26.4340147  29.9207192  62.7525891
  25.5778043  30.0815690  62.8035008  26.4807801  29.0499256  62.7730952
  26.3139259  29.8157994  62.7631957  20.8181287  39.4569910  58.5163123
  20.0664187  39.0785448  58.2879168  21.2667299  39.4888343  57.7681933
  20.7730954  39.4055517  58.3720625  29.7433864  36.1893717  72.3586347
  30.4500631  35.6945748  72.4873282  29.9321799  36.6302799  71.6289005
  29.8761770  36.1812068  72.2695393  26.2706247  39.8795279  53.9448670
  25.9357616  40.5572201  53.5092892  26.7833117  39.4900590  53.3565542
  26.2971828  39.9219857  53.7935462  25.8110538  41.8309548  59.8859782
  26.1949918  42.3996447  59.3464557  25.7469680  41.1059058  59.4065598
  25.8583966  41.8085011  59.7353644  29.2791968  31.9799236  65.3957543
  29.8247929  32.6584322  65.4551513  29.2208845  31.8386697  64.5359125
  29.3507883  32.0591237  65.2769604  22.3966043  39.4688302  60.7825895
  22.4976406  38.6588656  61.0923023  21.8007789  39.3745248  60.1525574
  22.3238582  39.3353330  60.7352134  31.0557037  33.4083843  56.2691271
  30.9396563  34.1591529  56.6983409  31.8512924  33.1507796  56.5187358
  31.1561627  33.4818690  56.3695362  22.2366783  44.3865891  62.1840751
  22.8804238  44.8279055  62.5736910  22.5623038  43.5819317  62.0971010
  22.3798612  44.3331086  62.2286229  15.5931088  35.4908588  60.4078229
  15.3581272  34.6576241  60.3010498  15.7316728  35.7713254  59.5939430
  15.5786750  35.4092092  60.2720584  17.8921175  27.6594319  63.3062537
  17.2726207  27.0686966  63.1372552  17.7905039  28.2505754  62.6726860
  17.7858851  27.6598402  63.1867526  22.9387363  37.3977866  57.5560613
  23.2603204  37.9383073  56.9521921  23.5859459  36.8274637  57.6882903
  23.0813418  37.3937041  57.4867649  24.9889071  29.3993861  57.6395000
  25.6869235  29.5781988  58.1316463  25.3041403  28.8764200  57.0165389
  25.1384408  29.3487633  57.6197010  17.6190308  31.2046601  65.5506106
  17.4949005  31.7909046  66.1855925  18.2708593  30.7106796  65.8518381
  17.6963957  31.2185405  65.6892035  25.1777006  35.7864306  57.6274791
  25.6170642  35.1781406  58.0729564  25.0281669  35.4071679  56.8560256
  25.2198472  35.6402777  57.5793959  22.6448649  34.3808318  64.8293617
  23.2897652  33.8880761  64.5104565  22.8850426  34.5233104  65.6559695
  22.7759234  34.3285760  64.9043150  25.1834740  37.2263223  64.4800509
  25.4657983  36.4314629  64.2587265  25.9120901  37.7043811  64.5005570
  25.3324304  37.1797820  64.4503525  23.1615934  24.7686257  61.7216275
  22.8319264  25.2197401  61.0519973  22.4860936  24.6902421  62.2689281
  23.0126371  24.8237393  61.7039498  28.7786343  34.1391487  54.5805561
  28.6937638  34.9952454  54.7255129  29.2670726  33.8635811  55.2487720
  28.8375240  34.2248809  54.7007642  30.3692342  20.7571780  59.9665885
  30.0545783  21.4475259  60.3986308  29.8519284  20.7016563  59.2651386
  30.2456812  20.8506669  59.9262834  29.7104776  30.7576281  56.0803296
  29.1816247  30.9735915  56.7400602  30.2329796  31.4512420  56.0004265
  29.7093229  30.8919418  56.1658895  35.1652829  36.3322586  61.4536340
  34.3350532  36.5433229  61.6169757  35.1162081  35.5059640  61.1778624
  35.0359564  36.2412192  61.4373706  21.6004384  34.6539498  54.8810764
  21.0161599  35.1589529  55.2876628  21.1974479  34.4281885  54.1407356
  21.4543687  34.6947746  54.8315789  17.1548412  40.3694259  61.6834435
  16.6715991  41.0944749  61.6594019  17.9671731  40.6670389  61.7944593
  17.2039160  40.5196613  61.6961714  23.2262566  39.1626440  64.2884250
  22.7089508  38.8033855  63.6845558  23.9236958  38.6388614  64.2990316
  23.2528147  39.0324128  64.2014508  26.8826158  39.6121254  70.2500423
  26.9709504  39.4247394  71.0978633  27.3115871  38.9658684  69.8505270
  26.9588261  39.4884262  70.3172174  24.4496618  38.8952414  69.2318085
  23.8867453  38.4825024  69.7557746  25.2117642  38.8205320  69.6511228
  24.4791067  38.8229814  69.3711085  26.0581598  30.9005150  53.3579684
  26.2977602  31.1083134  52.5455027  26.3797439  30.0962659  53.4668629
  26.1418756  30.8119251  53.2540237  21.3671888  22.8298546  57.2039222
  22.1217856  23.1976863  56.9656272  21.1899423  23.2038100  57.9718402
  21.4526367  22.9396734  57.2824111  20.0092610  40.8850435  61.8354715
  20.7113189  40.3702424  61.8927472  19.9290093  41.2124586  62.6401590
  20.1016370  40.8564661  61.9627507  34.6606787  28.9792986  65.2486762
  33.8235208  29.0495173  65.4834356  34.6295018  28.9817481  64.3761064
  34.5325069  28.9903213  65.1546310  21.0571516  31.1226022  70.9635130
  21.2292020  31.0131917  71.8120412  21.5940874  31.7680427  70.7266322
  21.1616520  31.2018024  71.0540227  19.7228953  25.2368865  53.9017335
  19.5404526  25.4540746  53.0758328  20.5854566  25.3507878  53.9575950
  19.8233542  25.2858763  53.7871822  19.3343385  37.0756787  61.3440323
  20.1732284  37.3079720  61.3914085  19.3655154  36.2061099  61.2747359
  19.4625103  36.9813734  61.3404968  19.9596088  37.4957662  65.6453629
  20.4994313  37.3528793  66.3157001  19.2766034  37.8954413  66.0137655
  19.9388242  37.5337333  65.7988050  25.4028672  22.2395276  56.9366359
  26.1314833  22.0611231  56.4904515  25.4923565  23.0813355  57.1473537
  25.5235334  22.3379154  56.9019877  29.3836973  33.1748663  60.8398653
  30.1394488  33.6080177  60.8787562  29.4899297  32.5253433  61.4133289
  29.5107143  33.1426147  60.9296679  32.4217144  37.0021940  61.5901056
  31.9852376  37.0058683  62.3460027  32.0880059  37.6827439  61.1580633
  32.3079764  37.1034396  61.6381889  26.9946218  39.0430273  72.9144206
  27.7786634  39.1561121  73.2799948  26.7942812  38.2171410  73.1102892
  27.0812243  38.9376992  72.9978592  15.3633233  33.7157953  65.7988050
  15.0971648  32.8997070  65.9579040  15.3771797  33.7611109  64.9283566
  15.3257955  33.6014858  65.6941532  32.3414627  24.0435768  63.8330484
  32.9840535  24.1133873  64.4192399  32.5937648  23.3764991  63.3310026
  32.4736759  23.9562117  63.8457763  19.2690980  28.5143038  52.4139808
  18.5549157  28.2281217  52.8262241  19.7534949  28.8539663  53.0546196
  19.2350343  28.5224687  52.5695443  20.1131839  27.2536331  68.4455058
  19.4203636  26.7833311  68.6915789  20.7292167  27.0274636  69.0196765
  20.1016369  27.1503463  68.5664211  27.1516611  40.9540375  66.5610662
  26.3531857  40.7139875  66.8184531  27.6002622  41.0054768  67.3077710
  27.0991222  40.9262766  66.7095586  35.5561490  33.7202860  60.4820693
  36.2177924  33.1593529  60.3816602  34.9152902  33.2254891  60.8073384
  35.5590358  33.5639269  60.5153033  26.4438298  37.0172991  52.7901616
  26.8589446  36.6858015  52.0986112  25.6130228  36.7841894  52.6621753
  26.3826307  36.9344247  52.6692464  15.7726647  34.5016732  63.0799794
  15.5902220  34.4763618  62.2272087  16.5076316  34.9715670  63.1188703
  15.8540711  34.5678095  62.9597713  31.8426321  34.7368242  60.2232682
  32.0781910  34.8813441  59.3959533  31.9915885  35.5010650  60.6164196
  31.8992124  34.8707297  60.1596286  18.8372398  31.2201735  69.5881903
  19.5612371  31.2054766  70.0746798  18.9388535  31.9297091  69.0903871
  18.9590607  31.3226439  69.5860690  33.6716778  33.5769908  58.0602286
  34.0024995  34.1097549  57.4542381  34.2449866  33.6308796  58.7164237
  33.8050457  33.6639477  58.0680068  26.2117348  34.7000820  74.4530850
  25.4190329  35.0144332  74.6383470  26.3266275  34.9152288  73.6151635
  26.1112758  34.7784657  74.3569185  28.8848667  31.4234811  58.7425866
  28.9795521  32.1624105  59.1965491  28.2607510  30.9952287  59.1760430
  28.8057697  31.4696132  58.8734013  27.1401141  34.6021024  69.3916147
  27.7140002  33.9648268  69.5464711  27.0615944  34.6025106  68.5225804
  27.2134375  34.5086135  69.2862558  15.7397557  31.3810233  63.2298861
  16.3171060  31.2446684  63.8691106  15.0411619  30.9246017  63.4844445
  15.7218578  31.2932499  63.3621151  29.1371688  33.2683551  51.9762818
  29.0551851  33.3385738  52.8417805  29.7751409  33.8313295  51.7846559
  29.2191525  33.3622522  52.0752767  22.4964859  33.0344289  61.4437344
  22.2384104  32.2016024  61.4168644  22.5513342  33.2601902  60.6029845
  22.4664637  32.9442060  61.3157481  27.5765909  25.1372740  61.5441437
  26.8722236  24.6481925  61.7025356  27.6250884  25.1495214  60.6729881
  27.4795961  25.0662387  61.4380777  21.4699571  30.5882051  61.9302239
  20.8949163  30.7474220  62.5666200  21.0935248  29.9517460  61.4670690
  21.3302384  30.5179864  61.9556797  25.1372860  29.0605401  66.7894617
  24.7487293  28.6359618  66.1346809  24.4727558  29.3087550  67.2971644
  24.9819788  29.0344122  66.7682485  34.7796129  28.8180405  59.5642447
  34.5232694  28.0060347  59.3740330  35.6225443  28.8257972  59.3372635
  34.8662155  28.6992403  59.5027265  11.2156390  30.2322126  59.9446680
  11.3016642  29.8553994  60.7260210  11.8432188  29.8582572  59.4666638
  11.3212941  30.1207608  59.9892157  28.9599222  22.7580029  64.3018602
  29.3409733  22.0758200  64.6886476  28.1562506  22.4689631  64.1194266
  28.8975683  22.6147078  64.3322658  26.2411798  33.2904005  54.9871424
  27.0552437  33.5818898  54.8754196  26.1770940  32.6363868  54.4129717
  26.3514537  33.2369200  54.8860262  32.4621288  35.9730001  69.4001000
  32.2259926  35.1418066  69.2813061  33.1064517  35.9215608  69.9855844
  32.5215959  35.8427689  69.4686894  22.1119707  36.7625523  60.1143736
  22.7493653  36.5237270  60.6595530  22.5374778  36.9662682  59.3796897
  22.2695873  36.7576533  60.0860894  16.8032349  39.0013859  63.9978040
  16.8436494  39.2728710  63.1697820  17.3626873  39.5255767  64.4135828
  16.8915695  39.1189614  63.9369928  22.7522522  31.9827812  54.4518626
  23.1367674  31.7635519  55.2035171  22.5034142  32.8090758  54.5819702
  22.7724594  32.0725959  54.5819702  22.9191062  25.2634228  74.1681210
  22.6044503  26.0333790  73.9050773  22.5980995  24.7004484  73.5833437
  22.8249981  25.2944496  74.0422560  33.4857709  35.7574450  65.4629295
  33.1803526  36.4902507  65.8242610  32.7663925  35.3512380  65.1822081
  33.3345051  35.8056183  65.4742432  24.4941178  37.2397945  61.7937523
  24.5680187  37.0773117  62.6479373  25.3110685  37.4288135  61.5498004
  24.6257537  37.2434688  61.8835548  39.1859501  32.3967451  64.7897639
  39.1184001  32.4163410  63.9200225  39.1715164  33.2397778  65.0153309
  39.1738258  32.5241185  64.6950116  18.2546935  37.5855808  58.8231966
  17.4285053  37.8317545  58.6966245  18.3158926  37.5067889  59.6894024
  18.1421102  37.6100757  58.9320911  20.4722959  23.6524749  59.7827406
  19.6045384  23.7247349  59.8485016  20.7598163  24.4546828  59.9715381
  20.3862707  23.7818896  59.8202173  29.5955848  23.8002608  68.1138728
  30.3409440  23.6112419  67.7002154  29.1793152  24.3260846  67.5552585
  29.6440822  23.8504754  67.9703301  23.0345764  40.2032688  56.5250996
  23.3244063  39.8121670  55.8010223  23.7649245  40.3849393  56.9656271
  23.1852648  40.1726502  56.4833803  36.9718119  31.1711837  63.0644233
  37.5226040  30.5379906  63.3041325  36.9562234  31.7027230  63.7559737
  37.0503315  31.1560785  63.2023091  23.6240509  35.0050434  67.6104127
  23.1252203  35.7166202  67.6889015  24.4340734  35.3251101  67.5722289
  23.6696616  35.1577283  67.6160695  20.9751680  42.1800071  59.5911146
  20.7551975  41.8897425  60.3837813  20.7546202  41.5215026  59.0629058
  20.9099274  42.0399779  59.6300055  19.8868627  34.2673387  61.8566848
  19.5981876  33.6410858  62.3912575  20.7551975  34.2093675  61.9231528
  19.9728879  34.1660931  61.9457802  30.6746525  29.4108171  62.1748829
  30.3311291  28.6898506  62.5256079  30.7739567  29.2022022  61.3327188
  30.6388568  29.2732374  62.1020509  23.1419636  43.5529461  58.3741838
  23.7943694  43.0205903  58.6032864  22.4445244  43.1998113  58.7609712
  23.1350353  43.4218984  58.4654006  20.0900900  35.9068638  57.7809213
  20.8446868  36.2881677  57.9944675  19.4971513  36.3579782  58.2355909
  20.1137614  36.0297466  57.8792091  31.1359554  35.8733875  57.7172818
  31.7017586  36.5327085  57.6331360  30.4887457  36.2183573  58.1889220
  31.1238310  36.0215816  57.7745574  22.5507567  27.8631479  72.9066425
  21.7407343  28.1689258  72.7956267  23.0282254  28.5837061  73.0219009
  22.5011046  28.0146080  72.9073496  21.4099127  37.0777200  63.1549328
  20.8879880  37.2177491  63.8401193  21.7973147  36.3187864  63.3451445
  21.3902828  36.9862723  63.2850404  18.3990311  27.1283008  57.2244283
  18.1115107  26.7584279  56.4876230  19.0860779  27.5977864  56.9627988
  18.4579208  27.1429978  57.0759358  27.6066132  38.8172659  57.1409897
  27.3652808  38.0840520  56.7336962  27.7867465  39.3659516  56.4876230
  27.5973756  38.7895050  56.9840120  22.8365453  34.1081219  58.5530819
  22.6408235  34.7155953  57.9591122  23.0599798  33.4149163  58.0722493
  22.8400094  34.0958744  58.3946900  21.2343983  30.9935957  58.6711687
  21.9566635  31.1577115  58.2115493  20.7551975  31.7145621  58.5651027
  21.2707713  31.1234186  58.5877301  29.1937490  27.3299755  64.0508372
  28.3548591  27.3561034  63.8146636  29.2641857  27.9770491  64.6313719
  29.0805884  27.4295881  64.1017489  18.8851599  33.3994029  67.7765827
  19.3972696  33.6778282  67.1274587  18.5987942  34.1383323  68.1428640
  18.9186462  33.5496383  67.7355705  27.6406768  24.2285132  58.7835988
  28.3433121  24.0292881  58.3055946  27.3750957  23.4561075  59.0904832
  27.7053401  24.0848098  58.7581430  33.0695014  32.5367742  61.3369614
  32.9828989  32.6923168  62.1904393  32.6145494  33.1805818  60.9629019
  32.9898271  32.6543497  61.4076721  15.9718506  27.9064221  58.0729564
  16.0734642  28.7090382  58.4010539  16.7674392  27.7051557  57.7752644
  16.1046411  27.9950120  58.0764919  22.4035325  25.4920418  67.8366869
  22.2118522  25.5075552  68.6866292  23.2533921  25.6884092  67.8133524
  22.5011047  25.5234769  67.9590164  16.7882238  28.0211399  65.8150685
  16.6467730  27.1695340  65.9395193  17.0722801  28.0640060  64.9912891
  16.8090084  27.9011149  65.7118309  26.9420830  29.8578489  59.9595174
  26.6955544  29.7774240  60.7931962  27.2705953  29.0731957  59.7657701
  26.9542074  29.7304755  60.0542697  30.8368879  36.5661849  63.7481955
  30.6983238  37.2642894  64.2530697  30.0568877  36.4110505  63.3918137
  30.7012106  36.6462015  63.7708229  29.1746964  32.8658224  70.0004336
  29.1695003  31.9938040  70.0046763  29.8807958  33.0646393  69.5273792
  29.2791968  32.7662098  69.9311372  22.9017857  32.5935208  69.3718157
  23.0461233  33.1736416  68.7361267  23.2493506  32.9711505  70.0768011
  22.9745319  32.7355912  69.3817152  25.0737775  31.7925376  67.1543288
  24.3261089  31.9856391  66.7491566  25.2279300  30.9670596  66.9167410
  24.9860202  31.6990488  67.0588694  21.9745612  40.7837980  66.2379183
  22.1235176  40.2240896  65.5852588  22.7545614  40.8629981  66.6211702
  22.1119706  40.7123545  66.1976133  32.3322252  35.9240102  54.5098454
  31.9529060  35.1377240  54.5027743  31.6688497  36.4726959  54.3670098
  32.1780727  35.8884926  54.4879251  24.4998913  40.9552623  67.5163674
  24.4242584  40.2861433  68.0714463  24.4288772  41.6570411  68.0304341
  24.4779520  40.9597530  67.6740522  25.3139552  25.6875927  68.0438692
  25.7712166  26.4199901  68.1711484  25.3895881  25.2642392  68.8025948
  25.3930522  25.7333165  68.1739768  17.5572543  25.9341747  69.1328136
  17.0214732  25.3222105  69.4488903  17.6190308  26.5089883  69.7861802
  17.4868176  25.9288674  69.2763562  29.7866878  18.8665802  61.9132535
  29.9050446  19.3242265  61.1799838  29.6129053  18.0611063  61.6268753
  29.7786049  18.8159574  61.7633469  25.1569160  39.4753621  58.3487280
  25.9219051  39.2063265  58.0269945  25.0547250  38.9903632  59.0657343
  25.2550655  39.3643186  58.4067108  23.1921930  27.6778031  64.8880516
  22.4018004  27.4969491  65.2097852  23.5882552  26.9004983  64.8710810
  23.1338806  27.5365492  64.9333064  27.6787820  36.5065805  50.3287230
  28.4460806  36.5665930  49.9193081  27.2319129  35.9346247  49.8443548
  27.7261248  36.4302381  50.1964940  28.5765616  35.3120461  62.6139962
  27.9010618  35.0805693  63.1153349  28.5857992  34.7041644  61.9882067
  28.4784120  35.1879386  62.5956114  25.7059760  30.1538290  69.3704015
  25.6418901  31.0148246  69.2424152  25.8456948  29.8370283  68.5699566
  25.7175230  30.2338457  69.2332228  30.5782351  38.1685593  54.8450140
  30.6602188  38.9752580  54.5211591  31.0632093  38.1881553  55.5690913
  30.6619508  38.2906256  54.9037038  24.3878854  32.8470429  63.5120218
  23.9641103  33.0474928  62.7759236  24.2123709  31.9999277  63.6244518
  24.2989734  32.7519211  63.4193908  23.8890547  44.3620942  65.9741675
  24.3786478  43.6631732  65.7917340  23.3174780  44.0644812  66.5617732
  23.8775077  44.2147166  66.0342716  19.6761299  33.3422481  58.9448190
  19.8325918  33.2769284  59.8004182  20.0161892  34.1171033  58.7326870
  19.7494534  33.4471679  59.0402784  26.2140443  32.7180364  57.8141554
  26.7555989  32.2150745  58.2780174  26.5287002  32.6645559  57.0031039
  26.3404840  32.6359785  57.7625366  30.0857551  36.9283012  74.9268466
  30.8992416  36.6568161  75.0873598  29.9252517  36.6290552  74.1228662
  30.1827499  36.8437938  74.8313872  24.3826893  38.1097716  55.0981582
  24.4519713  37.2512254  55.2374582  25.1615348  38.3269597  54.7700606
  24.5079743  38.0150580  55.0698739  27.3629713  27.6116669  67.8663854
  27.5771682  26.9727583  67.3127208  26.7463612  28.0562493  67.4371716
  27.3035042  27.5826813  67.7214285  28.7734381  40.5335417  59.3118075
  28.3814172  40.2302132  58.5940941  28.9287453  41.3704507  59.1223029
  28.7387971  40.6119254  59.1774572  16.2495560  30.5257431  59.2608958
  16.6294525  30.9441976  58.5969225  15.6750925  31.1070887  59.5677801
  16.2206885  30.6735290  59.2085698  29.5268801  29.2205734  68.8047161
  28.7145483  28.9131624  68.8860334  29.9858735  28.7404734  69.3689873
  29.4749186  29.1042226  68.9001755  28.9374055  37.0985406  59.2524105
  28.5788710  37.2700049  60.0288138  28.4512766  37.5598612  58.6952104
  28.8132752  37.1924377  59.2849375  26.7544441  20.7216605  62.8551197
  25.8837999  20.6955326  62.8084506  27.0084783  20.5493797  62.0377042
  26.6638002  20.6926748  62.7271334  23.7262421  32.7784571  51.7924340
  24.0154946  33.5549454  52.0667914  23.8134220  32.2673303  52.4938839
  23.7816677  32.8176490  51.9366838  26.6222308  30.6265805  73.5875863
  27.0921939  31.2507922  73.9743738  26.6684188  29.9582781  74.1469078
  26.6990184  30.6200486  73.7275935  23.7793582  22.7322833  64.3124667
  23.2632071  22.0403024  64.4376246  23.2187511  23.3993610  64.2587266
  23.6200095  22.7286091  64.3230733  25.8485815  23.2715793  66.1417520
  25.4617569  23.2964824  66.9231050  25.3618753  22.7057472  65.6892036
  25.7198324  23.1911544  66.1905423  30.0978795  37.9889302  70.1991306
  30.7358515  37.4949498  69.8653762  29.4552886  37.9166702  69.6143533
  30.0973021  37.9048310  70.0633661  31.8235795  29.8378448  64.7657222
  31.3963403  29.7504797  64.0105321  31.1861848  29.9456223  65.3512066
  31.6665402  29.8411108  64.7402663  25.5142957  20.1582778  68.4327780
  26.1436075  20.6943079  68.1548850  25.6828820  20.0660137  69.2841345
  25.6320752  20.2244141  68.5176308  25.3156872  24.9453973  70.7054191
  26.1430301  24.6739122  70.7612806  25.3364718  25.7414815  71.0618009
  25.4409722  25.0233727  70.7669374  30.1533051  38.6809110  66.8396663
  30.9425430  38.3298175  66.9598745  30.3276649  39.4945499  66.5773297
  30.2953333  38.7494967  66.8184531  19.8926362  32.0917836  63.8924452
  19.0514368  31.9921710  64.1003346  20.1016370  32.8613316  64.2438773
  19.7991054  32.1909879  63.9751767  17.3701929  29.7137373  61.7209203
  16.9758627  29.7880385  60.9459312  16.8142046  30.0995319  62.2717564
  17.2304741  29.7819148  61.6876862  29.0066876  22.6918667  61.4013082
  29.2116469  22.6240975  62.2470079  28.6793300  23.4977488  61.3334259
  28.9882123  22.8004607  61.5172737  23.7043027  30.0199235  63.1422049
  23.4006164  29.4655223  63.7432457  23.0022447  30.1991445  62.6550084
  23.5559236  29.9644017  63.1591755  22.7609124  27.3299755  57.7066751
  23.0368858  26.6118667  57.2944319  23.3607793  27.9284675  57.4987857
  22.8902388  27.3120126  57.6147512  21.7661378  37.2348956  67.8494147
  21.6581733  37.2451018  68.7156205  21.9757159  38.0603736  67.6599101
  21.7811489  37.3590031  67.9498239  32.2600563  23.2450431  60.8815847
  31.6474877  23.7320833  61.2669579  32.3564738  22.5693922  61.4253498
  32.1838461  23.2168740  61.0194705  26.2619644  25.0013272  55.9813346
  26.7163391  25.1723833  56.7061191  26.7359690  24.3881383  55.5811122
  26.3987964  24.9364158  56.0287108  19.7835170  34.4861598  65.3116085
  19.1923103  35.1271096  65.2819100  20.5456193  34.9099216  65.2847384
  19.8083430  34.6437437  65.3031232  20.1795792  25.6463596  65.9784102
  20.6397274  25.7202525  66.7159226  20.2251899  26.4444850  65.6283924
  20.2546348  25.7757743  66.0356859  21.8279142  26.3130291  70.5456130
  21.4364707  25.6663638  70.9811907  21.9965005  26.9041726  71.1650385
  21.7950053  26.3044559  70.7018836  35.9025591  34.3167368  66.3093363
  35.9608715  34.7654017  67.0553340  35.2692059  34.7266181  65.8723443
  35.8176886  34.4441103  66.3545911  29.5424686  39.9370910  62.7448109
  29.3444375  40.4261724  62.0504321  28.9212397  40.1412151  63.3232243
  29.4212250  40.0387448  62.7271333  23.6032664  31.7055807  57.0858354
  24.3474709  32.0930083  57.3241303  23.7493360  30.8613232  57.2498841
  23.7343249  31.6386279  57.1452323  25.5212240  23.5006066  62.1190215
  24.6748285  23.6728873  61.9931565  25.5183372  22.6955409  62.4556043
  25.3959390  23.4067095  62.1501342  26.5910540  27.2781280  62.9852273
  26.1170494  26.7523042  63.4957584  26.9628676  26.7310753  62.4167134
  26.5760429  27.1197277  62.9767420  16.9683570  29.2752787  68.3535819
  17.8309183  29.1748496  68.2673148  16.6375353  28.6947496  67.7921391
  17.0468767  29.1744413  68.2581225  32.8547271  32.3383656  64.3959053
  32.6145494  31.4990071  64.4001480  33.3339278  32.4183822  65.1199827
  32.8899454  32.2265055  64.5033856  28.5194040  28.1717835  56.0478027
  27.9917058  28.2546579  55.3583736  28.9789748  28.9135706  56.0442671
  28.5095890  28.2938497  55.9452722  34.8552458  29.1185113  62.3488312
  34.6162228  29.0780947  61.5109097  35.0186359  29.9656265  62.4754034
  34.8442761  29.2377198  62.2441794  31.4598488  33.5035062  68.2793358
  32.1832687  33.0507589  68.1004378  31.1948450  33.7839728  67.4965686
  31.5279761  33.4786031  68.1372073  20.3285356  28.0995236  65.0146237
  19.7038426  28.1113628  64.4072190  19.9930951  28.5755411  65.6637477
  20.1870848  28.1713753  65.0202805  20.5127105  26.4420354  51.0718922
  20.1639909  27.0940079  51.5350471  20.0323551  26.4277467  50.3442793
  20.3897349  26.5363408  51.0330013  17.0411032  36.1595696  66.4550001
  16.5110956  35.4688135  66.5044976  17.3136125  36.1505881  65.6262710
  17.0035754  36.0562828  66.3397417  28.0731122  36.7421398  55.1787684
  28.7965321  37.2079511  55.0352257  27.6331713  36.8095008  54.4285281
  28.1146815  36.8205235  55.0472465  27.2417277  33.6018940  66.4288373
  26.6274270  33.0576991  66.7237008  27.7584562  33.0883177  65.9494189
  27.2272940  33.4455349  66.4012601  26.4813575  34.6723210  64.1632671
  26.0541183  34.0472929  63.7298107  26.4738519  34.3898132  64.9891679
  26.4172716  34.5375991  64.2212499  19.5976102  29.7088383  67.2321105
  19.7569588  28.9531708  67.6372827  19.4168995  30.2579323  67.8861843
  19.5941461  29.6782197  67.3883811  27.5396405  21.8749619  67.7871895
  27.0436966  22.0713293  67.0963462  28.2965467  22.2742287  67.6160696
  27.5783229  21.9627353  67.6592032  24.8099284  25.5491965  64.3775205
  24.8341771  25.0152077  63.6887985  25.0610758  25.0409274  65.0400796
  24.8509203  25.3952869  64.3739850  12.3206874  32.8323460  63.8118349
  12.2150323  32.7870304  62.9470433  11.5707094  33.1777241  64.0932634
  12.1942477  32.8764368  63.7255679  21.0900606  24.2762783  63.7580950
  21.1298978  24.7771990  64.4715657  20.2650271  24.3673177  63.4886873
  20.9740132  24.3644600  63.8231488  23.2730219  33.8423523  71.8601244
  22.4225850  33.9795237  71.9958889  23.4358347  33.1087301  72.3048946
  23.1714083  33.7537624  71.9456843  22.5114970  30.7923293  66.0554849
  21.6806899  30.9597111  65.8490097  22.4566487  30.4159244  66.8403734
  22.3804385  30.7613024  66.1403377  20.3198753  24.2832186  71.6911259
  20.9451456  23.7394319  71.9640692  19.8649233  23.8027104  71.1219050
  20.3447014  24.1321667  71.6472853  20.8851014  29.0678885  56.5844966
  21.0253975  29.5651349  57.2873608  21.3833546  28.3665179  56.7259180
  20.9792095  29.0380863  56.7096545  20.9151236  29.9345996  53.9137543
  21.5496316  30.5306421  53.8487005  20.9976847  29.6349453  54.7283413
  21.0207787  29.9786904  54.0240630  33.8933802  32.4661473  66.7823907
  34.4851642  33.1058724  66.8142105  34.3292796  31.7684510  67.0715974
  34.0452233  32.4579823  66.8304740  22.4930219  25.8659971  53.8882985
  22.8146060  25.3863054  53.2342248  22.7557163  26.6759617  53.6973797
  22.5796244  25.9149869  53.7638477  25.7227192  36.8878845  67.4081801
  25.2152283  37.4414692  67.8522432  25.4253838  36.9487135  66.5900576
  25.6032077  36.9785157  67.3530258  27.8889374  25.2532165  66.2506464
  28.3144445  24.8004691  65.6389991  27.2746367  24.6992236  66.5271252
  27.8618019  25.1046141  66.2011490  17.4204224  32.1313836  57.1827089
  17.9296453  32.7278344  57.5638395  17.8938496  31.8639810  56.5003509
  17.5647600  32.1799652  57.1381612  28.3334972  40.8042103  55.3385745
  27.6164282  40.6302965  54.8732982  28.9841710  40.5694675  54.8061231
  28.3236822  40.7437896  55.1914963  26.3283597  21.7247265  59.6597041
  25.6851915  21.5744911  60.2282180  25.9883004  21.4789610  58.8946146
  26.1828674  21.6659387  59.6300056  30.9182943  29.6806692  59.0827050
  30.2474133  30.2236394  58.9540115  31.6122693  30.1501547  58.8408745
  30.9211811  29.8304963  59.0282578  24.9669677  41.8203404  64.3138808
  24.7435331  41.0622233  64.6822835  24.4779520  41.8501425  63.5919248
  24.8613126  41.7125628  64.2615549  31.0811071  26.1362575  61.9917423
  31.4338681  25.7092298  62.6663222  30.2225872  26.0513419  62.1218499
  31.0060515  26.0607316  62.1112434  19.7794756  28.7670095  60.0500270
  19.0606745  29.1834228  60.3173133  20.1507118  29.3324334  59.4991908
  19.7286687  28.9119376  60.0083077  29.0794336  29.3997944  65.9402265
  29.0592264  29.2181239  66.7937044  29.1273537  30.2709962  65.9161849
  29.0828977  29.5014482  66.0625560  27.0240666  35.9885136  71.8650742
  26.9836521  35.3434813  71.2795898  27.8363985  35.9321753  72.1776154
  27.1383820  35.8844103  71.8247691  23.6148134  42.0403862  61.7675893
  23.2008533  41.3777992  61.3779734  24.2995508  42.1881721  61.2471587
  23.6546506  41.9644520  61.6332390  26.9813428  41.1993947  62.5199509
  26.5829711  41.3096217  61.7520330  26.3664648  41.4076013  63.1026069
  26.8312317  41.2467515  62.4930809  25.5541330  27.8068095  55.3873649
  24.9606169  28.1285091  54.8358216  25.5916608  26.9609190  55.1794755
  25.4715719  27.7292423  55.2756420  32.5135131  21.2580987  62.9201736
  32.0065995  20.5510127  62.8522913  33.3102564  20.9274176  63.0502812
  32.5562370  21.1054138  62.9300731  28.4299147  27.7647599  58.8175399
  28.2012840  27.7880301  57.9753758  28.6897223  26.9405066  58.9370410
  28.4345335  27.6463679  58.7100597  22.7118375  29.6182072  68.4200500
  22.1997278  29.0103255  68.7785531  22.5397871  30.3338665  68.8874475
  22.6108012  29.6345372  68.5416723  17.5584090  28.0619648  71.0702861
  17.3886680  28.7221023  70.5251068  17.1150040  28.2726209  71.7915350
  17.4683423  28.1905630  71.0964491  21.4843909  26.3024146  60.1129595
  21.9601275  26.6641225  59.4779776  20.9832509  26.9580613  60.3929738
  21.4809268  26.4518334  60.0606336  34.7155271  35.7745914  55.9042600
  35.0988876  36.5237270  56.1340697  33.9199384  36.0211733  55.6454589
  34.6549053  35.9215608  55.9000174  26.5887445  27.5406317  70.8602755
  27.1458876  27.3120127  70.2281221  26.2648510  28.3011983  70.5837967
  26.6233856  27.6190154  70.7259252  14.4586154  30.9666513  66.3291351
  13.9112874  30.2967159  66.4472219  15.2478532  30.5996361  66.3934818
  14.4938338  30.8131500  66.3560052  24.3070563  30.6273970  71.8254762
  25.0581890  30.9425647  72.1394316  24.4993139  30.4253141  70.9988684
  24.4461977  30.6441352  71.7498158  23.5270562  28.4465345  53.4802979
  23.9069527  28.4644975  52.6954094  22.7863158  28.8919334  53.3593826
  23.4739400  28.5147120  53.3466547  31.1555853  26.7547537  59.0678558
  31.1550079  26.5996193  59.9262834  30.9512033  27.6010524  59.0119943
  31.1255631  26.8568157  59.1866497  13.2173124  30.1787321  63.4837374
  13.0394885  29.7263930  64.2092290  12.9292146  30.9813482  63.6675852
  13.1486077  30.2309879  63.6180877  28.8796705  31.4345038  62.7214765
  29.3750370  30.7168033  62.6818785  28.0696481  31.1315836  62.6069251
  28.8340598  31.2842685  62.6988490  24.3255316  35.2842852  54.8711769
  23.5166639  34.9609525  54.8245078  24.8330225  34.5776074  54.8040018
  24.2804983  35.1324168  54.8542063  14.9545594  32.7115045  60.5959133
  14.0891113  32.7000735  60.4841904  15.0544410  32.5245268  61.4430273
  14.8419761  32.6821106  60.7048078  30.9448524  34.1848726  65.4091893
  31.3703595  33.6623148  64.8562318  30.5805444  34.7829563  64.8880516
  30.9535126  34.1958953  65.2500903  20.5802604  42.4812943  64.1689239
  20.8949162  43.2949332  64.1767021  20.9896017  42.0963162  64.8371398
  20.6870702  42.5441646  64.2693330  27.5327123  37.8982990  61.7393051
  28.0038301  38.6123253  61.9083036  27.8687302  37.2981740  62.2752920
  27.6522238  37.9154454  61.8425427  29.6204108  39.5084304  73.9185123
  29.7301073  38.7192864  74.2741870  29.9495004  39.4190240  73.1159461
  29.6856514  39.3790156  73.8527514  24.4496618  22.6710461  68.6951146
  24.5824524  21.8741454  69.0232121  24.8341771  23.1976864  69.2749421
  24.5252947  22.6310377  68.8294648  28.1701070  37.6900924  68.5020743
  27.6222015  37.0658808  68.2340809  28.6314098  37.8795196  67.7864823
  28.1568279  37.6259975  68.3571174  27.5228973  19.5940787  65.2932239
  26.7174937  19.4838517  65.6100077  27.3935709  19.6953243  64.4362105
  27.3849106  19.5924457  65.2140279  30.9794934  25.7586279  65.8871936
  30.3957923  26.2595485  65.4749503  31.2999228  25.2515835  65.2536259
  30.9408109  25.7578114  65.7330443  23.5189733  24.6726874  56.1630611
  24.3405427  24.8425186  55.9212305  23.0559384  24.8274135  55.4396908
  23.5720895  24.7208607  56.0202255  22.1085065  22.6669636  66.9429039
  22.6529478  22.3260763  67.5333381  22.1622001  23.5255097  67.0850324
  22.1974184  22.7424895  67.0510913  17.9215624  36.4286052  63.8167847
  18.5260481  36.3881886  63.1881668  17.7142936  37.2757204  63.8471903
  17.9804521  36.5474054  63.7283964  27.7359396  38.6951997  65.0330085
  28.5557770  38.5514963  65.2946380  27.4553473  39.3198196  65.5746522
  27.8156139  38.7662349  65.1518024  13.1566906  35.4120669  63.6866770
  13.0591184  34.6016941  63.9956827  13.9395776  35.3912463  63.3013038
  13.2583042  35.2887760  63.6753633  44.2073046  46.3516849  57.9972961
  44.1767051  47.2061485  58.1691230  44.8054395  46.0512141  58.5559105
  44.2910204  46.4333345  58.1047763  37.4072731  45.4392500  62.7525891
  36.5510627  45.6000998  62.8035008  37.4540385  44.5684564  62.7730952
  37.2871842  45.3343302  62.7631957  31.7913871  54.9755218  58.5163123
  31.0396770  54.5970756  58.2879168  32.2399882  55.0073651  57.7681933
  31.7463538  54.9240825  58.3720625  40.7166448  51.7079025  72.3586347
  41.4233215  51.2131056  72.4873282  40.9054383  52.1488107  71.6289005
  40.8494353  51.6997376  72.2695393  37.2438831  55.3980587  53.9448670
  36.9090199  56.0757509  53.5092892  37.7565701  55.0085898  53.3565542
  37.2704412  55.4405165  53.7935462  36.7843122  57.3494856  59.8859782
  37.1682501  57.9181754  59.3464557  36.7202263  56.6244366  59.4065598
  36.8316549  57.3270319  59.7353644  40.2524552  47.4984544  65.3957543
  40.7980512  48.1769630  65.4551513  40.1941428  47.3572005  64.5359125
  40.3240466  47.5776545  65.2769604  33.3698627  54.9873610  60.7825895
  33.4708990  54.1773964  61.0923023  32.7740372  54.8930556  60.1525574
  33.2971166  54.8538638  60.7352134  42.0289621  48.9269151  56.2691271
  41.9129147  49.6776837  56.6983409  42.8245507  48.6693104  56.5187358
  42.1294210  49.0003998  56.3695362  33.2099367  59.9051199  62.1840751
  33.8536822  60.3464363  62.5736910  33.5355622  59.1004625  62.0971010
  33.3531195  59.8516394  62.2286229  26.5663671  51.0093896  60.4078229
  26.3313856  50.1761549  60.3010498  26.7049312  51.2898562  59.5939430
  26.5519334  50.9277400  60.2720584  28.8653759  43.1779627  63.3062537
  28.2458790  42.5872274  63.1372552  28.7637622  43.7691062  62.6726860
  28.7591434  43.1783709  63.1867526  33.9119946  52.9163174  57.5560613
  34.2335787  53.4568381  56.9521921  34.5592043  52.3459945  57.6882903
  34.0546001  52.9122349  57.4867649  35.9621654  44.9179169  57.6395000
  36.6601819  45.0967296  58.1316463  36.2773987  44.3949508  57.0165389
  36.1116991  44.8672941  57.6197010  28.5922892  46.7231909  65.5506106
  28.4681589  47.3094354  66.1855925  29.2441176  46.2292104  65.8518381
  28.6696541  46.7370713  65.6892035  36.1509590  51.3049614  57.6274791
  36.5903225  50.6966714  58.0729564  36.0014253  50.9256987  56.8560256
  36.1931055  51.1588085  57.5793959  33.6181233  49.8993626  64.8293617
  34.2630235  49.4066069  64.5104565  33.8583010  50.0418412  65.6559695
  33.7491818  49.8471068  64.9043150  36.1567324  52.7448531  64.4800509
  36.4390567  51.9499937  64.2587265  36.8853484  53.2229119  64.5005570
  36.3056888  52.6983128  64.4503525  34.1348518  40.2871565  61.7216275
  33.8051848  40.7382709  61.0519973  33.4593520  40.2087729  62.2689281
  33.9858954  40.3422701  61.7039498  39.7518926  49.6576795  54.5805561
  39.6670221  50.5137762  54.7255129  40.2403309  49.3821119  55.2487720
  39.8107823  49.7434116  54.7007642  41.3424926  36.2757088  59.9665885
  41.0278367  36.9660567  60.3986308  40.8251867  36.2201871  59.2651386
  41.2189396  36.3691977  59.9262834  40.6837359  46.2761589  56.0803296
  40.1548831  46.4921223  56.7400602  41.2062379  46.9697728  56.0004265
  40.6825812  46.4104726  56.1658895  46.1385412  51.8507894  61.4536340
  45.3083115  52.0618537  61.6169757  46.0894665  51.0244948  61.1778624
  46.0092148  51.7597500  61.4373706  32.5736967  50.1724806  54.8810764
  31.9894182  50.6774837  55.2876628  32.1707062  49.9467193  54.1407356
  32.4276271  50.2133054  54.8315789  28.1280996  55.8879567  61.6834435
  27.6448574  56.6130057  61.6594019  28.9404314  56.1855697  61.7944593
  28.1771744  56.0381921  61.6961714  34.1995150  54.6811748  64.2884250
  33.6822092  54.3219163  63.6845558  34.8969541  54.1573922  64.2990316
  34.2260731  54.5509436  64.2014508  37.8558742  55.1306562  70.2500423
  37.9442088  54.9432702  71.0978633  38.2848454  54.4843991  69.8505270
  37.9320844  55.0069570  70.3172174  35.4229202  54.4137722  69.2318085
  34.8600036  54.0010332  69.7557746  36.1850225  54.3390628  69.6511228
  35.4523650  54.3415122  69.3711085  37.0314182  46.4190458  53.3579684
  37.2710185  46.6268442  52.5455027  37.3530023  45.6147967  53.4668629
  37.1151340  46.3304559  53.2540237  32.3404472  38.3483854  57.2039222
  33.0950440  38.7162171  56.9656272  32.1632007  38.7223408  57.9718402
  32.4258950  38.4582042  57.2824111  30.9825193  56.4035743  61.8354715
  31.6845772  55.8887732  61.8927472  30.9022676  56.7309894  62.6401590
  31.0748954  56.3749969  61.9627507  45.6339371  44.4978294  65.2486762
  44.7967792  44.5680481  65.4834356  45.6027602  44.5002789  64.3761064
  45.5057653  44.5088521  65.1546310  32.0304100  46.6411330  70.9635130
  32.2024603  46.5317225  71.8120412  32.5673457  47.2865735  70.7266322
  32.1349104  46.7203332  71.0540227  30.6961537  40.7554173  53.9017335
  30.5137110  40.9726054  53.0758328  31.5587150  40.8693186  53.9575950
  30.7966126  40.8044071  53.7871822  30.3075969  52.5942095  61.3440323
  31.1464868  52.8265028  61.3914085  30.3387738  51.7246406  61.2747359
  30.4357686  52.4999041  61.3404968  30.9328672  53.0142970  65.6453629
  31.4726897  52.8714101  66.3157001  30.2498618  53.4139721  66.0137655
  30.9120825  53.0522641  65.7988050  36.3761256  37.7580583  56.9366359
  37.1047416  37.5796538  56.4904515  36.4656149  38.5998663  57.1473537
  36.4967918  37.8564462  56.9019877  40.3569556  48.6933971  60.8398653
  41.1127071  49.1265485  60.8787562  40.4631881  48.0438741  61.4133289
  40.4839727  48.6611455  60.9296679  43.3949728  52.5207248  61.5901056
  42.9584959  52.5243991  62.3460027  43.0612643  53.2012747  61.1580633
  43.2812348  52.6219704  61.6381889  37.9678801  54.5615581  72.9144206
  38.7519218  54.6746429  73.2799948  37.7675396  53.7356718  73.1102892
  38.0544827  54.4562300  72.9978592  26.3365817  49.2343261  65.7988050
  26.0704232  48.4182378  65.9579040  26.3504381  49.2796417  64.9283566
  26.2990539  49.1200166  65.6941532  43.3147210  39.5621076  63.8330484
  43.9573119  39.6319181  64.4192399  43.5670231  38.8950299  63.3310026
  43.4469343  39.4747425  63.8457763  30.2423564  44.0328345  52.4139808
  29.5281741  43.7466525  52.8262241  30.7267532  44.3724971  53.0546196
  30.2082927  44.0409995  52.5695443  31.0864423  42.7721639  68.4455058
  30.3936220  42.3018619  68.6915789  31.7024750  42.5459944  69.0196765
  31.0748953  42.6688771  68.5664211  38.1249195  56.4725683  66.5610662
  37.3264440  56.2325183  66.8184531  38.5735206  56.5240076  67.3077710
  38.0723806  56.4448074  66.7095586  46.5294074  49.2388168  60.4820693
  47.1910508  48.6778836  60.3816602  45.8885486  48.7440199  60.8073384
  46.5322941  49.0824577  60.5153033  37.4170882  52.5358299  52.7901616
  37.8322030  52.2043323  52.0986112  36.5862811  52.3027202  52.6621753
  37.3558890  52.4529555  52.6692464  26.7459230  50.0202040  63.0799794
  26.5634804  49.9948926  62.2272087  27.4808899  50.4900978  63.1188703
  26.8273294  50.0863403  62.9597713  42.8158904  50.2553550  60.2232682
  43.0514494  50.3998749  59.3959533  42.9648468  51.0195958  60.6164196
  42.8724708  50.3892605  60.1596286  29.8104982  46.7387043  69.5881903
  30.5344954  46.7240074  70.0746798  29.9121118  47.4482399  69.0903871
  29.9323191  46.8411746  69.5860690  44.6449361  49.0955216  58.0602286
  44.9757578  49.6282856  57.4542381  45.2182449  49.1494104  58.7164237
  44.7783040  49.1824785  58.0680068  37.1849931  50.2186128  74.4530850
  36.3922912  50.5329640  74.6383470  37.2998858  50.4337596  73.6151635
  37.0845342  50.2969965  74.3569185  39.8581250  46.9420119  58.7425866
  39.9528105  47.6809413  59.1965491  39.2340094  46.5137594  59.1760430
  39.7790280  46.9881440  58.8734013  38.1133724  50.1206332  69.3916147
  38.6872586  49.4833576  69.5464711  38.0348528  50.1210414  68.5225804
  38.1866959  50.0271443  69.2862558  26.7130141  46.8995541  63.2298861
  27.2903643  46.7631992  63.8691106  26.0144202  46.4431325  63.4844445
  26.6951162  46.8117807  63.3621151  40.1104272  48.7868859  51.9762818
  40.0284434  48.8571046  52.8417805  40.7483992  49.3498603  51.7846559
  40.1924109  48.8807830  52.0752767  33.4697443  48.5529597  61.4437344
  33.2116687  47.7201332  61.4168644  33.5245926  48.7787210  60.6029845
  33.4397221  48.4627368  61.3157481  38.5498493  40.6558047  61.5441437
  37.8454820  40.1667233  61.7025356  38.5983467  40.6680522  60.6729881
  38.4528545  40.5847695  61.4380777  32.4432155  46.1067359  61.9302239
  31.8681746  46.2659528  62.5666200  32.0667831  45.4702768  61.4670690
  32.3034967  46.0365172  61.9556797  36.1105444  44.5790709  66.7894617
  35.7219876  44.1544926  66.1346809  35.4460142  44.8272858  67.2971644
  35.9552371  44.5529430  66.7682485  45.7528713  44.3365713  59.5642447
  45.4965278  43.5245655  59.3740330  46.5958027  44.3443280  59.3372635
  45.8394738  44.2177711  59.5027265  22.1888974  45.7507434  59.9446680
  22.2749226  45.3739302  60.7260210  22.8164771  45.3767880  59.4666638
  22.2945525  45.6392916  59.9892157  39.9331805  38.2765337  64.3018602
  40.3142317  37.5943508  64.6886476  39.1295089  37.9874939  64.1194266
  39.8708267  38.1332386  64.3322658  37.2144382  48.8089313  54.9871424
  38.0285021  49.1004206  54.8754196  37.1503523  48.1549175  54.4129717
  37.3247121  48.7554508  54.8860262  43.4353872  51.4915309  69.4001000
  43.1992509  50.6603374  69.2813061  44.0797101  51.4400916  69.9855844
  43.4948543  51.3612997  69.4686894  33.0852290  52.2810831  60.1143736
  33.7226237  52.0422578  60.6595530  33.5107362  52.4847989  59.3796897
  33.2428456  52.2761841  60.0860894  27.7764933  54.5199167  63.9978040
  27.8169078  54.7914018  63.1697820  28.3359457  55.0441075  64.4135828
  27.8648278  54.6374922  63.9369928  33.7255105  47.5013120  54.4518626
  34.1100258  47.2820827  55.2035171  33.4766725  48.3276066  54.5819702
  33.7457178  47.5911267  54.5819702  33.8923646  40.7819536  74.1681210
  33.5777087  41.5519098  73.9050773  33.5713578  40.2189792  73.5833437
  33.7982565  40.8129804  74.0422560  44.4590293  51.2759758  65.4629295
  44.1536110  52.0087815  65.8242610  43.7396508  50.8697687  65.1822081
  44.3077635  51.3241491  65.4742432  35.4673762  52.7583253  61.7937523
  35.5412770  52.5958425  62.6479373  36.2843268  52.9473443  61.5498004
  35.5990121  52.7619996  61.8835548  50.1592085  47.9152759  64.7897639
  50.0916585  47.9348718  63.9200225  50.1447747  48.7583086  65.0153309
  50.1470841  48.0426493  64.6950116  29.2279519  53.1041116  58.8231966
  28.4017636  53.3502853  58.6966245  29.2891510  53.0253197  59.6894024
  29.1153686  53.1286065  58.9320911  31.4455543  39.1710057  59.7827406
  30.5777968  39.2432656  59.8485016  31.7330747  39.9732136  59.9715381
  31.3595291  39.3004204  59.8202173  40.5688431  39.3187916  68.1138728
  41.3142023  39.1297727  67.7002154  40.1525736  39.8446154  67.5552585
  40.6173405  39.3690062  67.9703301  34.0078348  55.7217996  56.5250996
  34.2976646  55.3306978  55.8010223  34.7381829  55.9034701  56.9656271
  34.1585232  55.6911810  56.4833803  47.9450702  46.6897145  63.0644233
  48.4958624  46.0565214  63.3041325  47.9294817  47.2212538  63.7559737
  48.0235898  46.6746093  63.2023091  34.5973093  50.5235742  67.6104127
  34.0984787  51.2351510  67.6889015  35.4073317  50.8436409  67.5722289
  34.6429200  50.6762591  67.6160695  31.9484263  57.6985379  59.5911146
  31.7284559  57.4082733  60.3837813  31.7278785  57.0400334  59.0629058
  31.8831858  57.5585087  59.6300055  30.8601211  49.7858695  61.8566848
  30.5714459  49.1596166  62.3912575  31.7284559  49.7278983  61.9231528
  30.9461462  49.6846239  61.9457802  41.6479108  44.9293479  62.1748829
  41.3043874  44.2083814  62.5256079  41.7472151  44.7207330  61.3327188
  41.6121151  44.7917682  62.1020509  34.1152219  59.0714769  58.3741838
  34.7676277  58.5391211  58.6032864  33.4177828  58.7183421  58.7609712
  34.1082937  58.9404292  58.4654006  31.0633484  51.4253946  57.7809213
  31.8179452  51.8066985  57.9944675  30.4704097  51.8765090  58.2355909
  31.0870198  51.5482774  57.8792091  42.1092137  51.3919183  57.7172818
  42.6750170  52.0512393  57.6331360  41.4620041  51.7368881  58.1889220
  42.0970894  51.5401124  57.7745574  33.5240151  43.3816787  72.9066425
  32.7139927  43.6874566  72.7956267  34.0014838  44.1022369  73.0219009
  33.4743630  43.5331388  72.9073496  32.3831711  52.5962508  63.1549328
  31.8612464  52.7362799  63.8401193  32.7705731  51.8373172  63.3451445
  32.3635411  52.5048031  63.2850404  29.3722895  42.6468316  57.2244283
  29.0847690  42.2769587  56.4876230  30.0593363  43.1163172  56.9627988
  29.4311792  42.6615286  57.0759358  38.5798716  54.3357967  57.1409897
  38.3385391  53.6025827  56.7336962  38.7600048  54.8844824  56.4876230
  38.5706339  54.3080358  56.9840120  33.8098036  49.6266527  58.5530819
  33.6140819  50.2341261  57.9591122  34.0332382  48.9334471  58.0722493
  33.8132677  49.6144052  58.3946900  32.2076566  46.5121265  58.6711687
  32.9299218  46.6762423  58.2115493  31.7284559  47.2330929  58.5651027
  32.2440297  46.6419494  58.5877301  40.1670074  42.8485063  64.0508372
  39.3281174  42.8746342  63.8146636  40.2374441  43.4955799  64.6313719
  40.0538467  42.9481189  64.1017489  29.8584183  48.9179337  67.7765827
  30.3705280  49.1963590  67.1274587  29.5720525  49.6568631  68.1428640
  29.8919046  49.0681691  67.7355705  38.6139352  39.7470440  58.7835988
  39.3165705  39.5478189  58.3055946  38.3483541  38.9746383  59.0904832
  38.6785984  39.6033406  58.7581430  44.0427598  48.0553050  61.3369614
  43.9561572  48.2108476  62.1904393  43.5878078  48.6991126  60.9629019
  43.9630854  48.1728805  61.4076721  26.9451089  43.4249529  58.0729564
  27.0467226  44.2275690  58.4010539  27.7406976  43.2236865  57.7752644
  27.0778995  43.5135428  58.0764919  33.3767908  41.0105726  67.8366869
  33.1851105  41.0260860  68.6866292  34.2266504  41.2069400  67.8133524
  33.4743630  41.0420077  67.9590164  27.7614821  43.5396707  65.8150685
  27.6200313  42.6880648  65.9395193  28.0455385  43.5825368  64.9912891
  27.7822667  43.4196457  65.7118309  37.9153414  45.3763797  59.9595174
  37.6688128  45.2959548  60.7931962  38.2438537  44.5917265  59.7657701
  37.9274657  45.2490063  60.0542697  41.8101462  52.0847157  63.7481955
  41.6715822  52.7828202  64.2530697  41.0301460  51.9295813  63.3918137
  41.6744689  52.1647323  63.7708229  40.1479548  48.3843532  70.0004336
  40.1427586  47.5123348  70.0046763  40.8540541  48.5831701  69.5273792
  40.2524552  48.2847406  69.9311372  33.8750441  48.1120516  69.3718157
  34.0193817  48.6921724  68.7361267  34.2226089  48.4896812  70.0768011
  33.9477902  48.2541220  69.3817152  36.0470358  47.3110684  67.1543288
  35.2993672  47.5041699  66.7491566  36.2011884  46.4855904  66.9167410
  35.9592786  47.2175796  67.0588694  32.9478196  56.3023288  66.2379183
  33.0967760  55.7426203  65.5852588  33.7278198  56.3815289  66.6211702
  33.0852290  56.2308853  66.1976133  43.3054835  51.4425410  54.5098454
  42.9261644  50.6562548  54.5027743  42.6421081  51.9912267  54.3670098
  43.1513310  51.4070234  54.4879251  35.4731497  56.4737930  67.5163674
  35.3975168  55.8046741  68.0714463  35.4021356  57.1755719  68.0304341
  35.4512103  56.4782838  67.6740522  36.2872135  41.2061235  68.0438692
  36.7444749  41.9385209  68.1711484  36.3628464  40.7827700  68.8025948
  36.3663105  41.2518473  68.1739768  28.5305127  41.4527055  69.1328136
  27.9947316  40.8407413  69.4488903  28.5922891  42.0275191  69.7861802
  28.4600759  41.4473982  69.2763562  40.7599461  34.3851110  61.9132535
  40.8783029  34.8427573  61.1799838  40.5861637  33.5796371  61.6268753
  40.7518632  34.3344882  61.7633469  36.1301743  54.9938929  58.3487280
  36.8951635  54.7248573  58.0269945  36.0279833  54.5088940  59.0657343
  36.2283239  54.8828494  58.4067108  34.1654513  43.1963339  64.8880516
  33.3750588  43.0154799  65.2097852  34.5615136  42.4190291  64.8710810
  34.1071389  43.0550800  64.9333064  38.6520404  52.0251113  50.3287230
  39.4193389  52.0851238  49.9193081  38.2051713  51.4531555  49.8443548
  38.6993831  51.9487689  50.1964940  39.5498200  50.8305769  62.6139962
  38.8743201  50.5991001  63.1153349  39.5590576  50.2226952  61.9882067
  39.4516704  50.7064694  62.5956114  36.6792344  45.6723598  69.3704015
  36.6151485  46.5333554  69.2424152  36.8189531  45.3555591  68.5699566
  36.6907814  45.7523765  69.2332228  41.5514934  53.6870901  54.8450140
  41.6334772  54.4937888  54.5211591  42.0364676  53.7066861  55.5690913
  41.6352092  53.8091564  54.9037038  35.3611437  48.3655737  63.5120218
  34.9373687  48.5660236  62.7759236  35.1856293  47.5184585  63.6244518
  35.2722318  48.2704519  63.4193908  34.8623131  59.8806250  65.9741675
  35.3519061  59.1817039  65.7917340  34.2907363  59.5830120  66.5617732
  34.8507661  59.7332474  66.0342716  30.6493882  48.8607789  58.9448190
  30.8058502  48.7954591  59.8004182  30.9894475  49.6356341  58.7326870
  30.7227117  48.9656987  59.0402784  37.1873027  48.2365672  57.8141554
  37.7288572  47.7336053  58.2780174  37.5019586  48.1830867  57.0031039
  37.3137424  48.1545093  57.7625366  41.0590134  52.4468320  74.9268466
  41.8725000  52.1753468  75.0873598  40.8985101  52.1475860  74.1228662
  41.1560083  52.3623246  74.8313872  35.3559477  53.6283024  55.0981582
  35.4252297  52.7697562  55.2374582  36.1347932  53.8454905  54.7700606
  35.4812327  53.5335888  55.0698739  38.3362296  43.1301977  67.8663854
  38.5504266  42.4912891  67.3127208  37.7196196  43.5747801  67.4371716
  38.2767626  43.1012120  67.7214285  39.7466964  56.0520725  59.3118075
  39.3546756  55.7487440  58.5940941  39.9020037  56.8889815  59.1223029
  39.7120554  56.1304562  59.1774572  27.2228144  46.0442739  59.2608958
  27.6027109  46.4627284  58.5969225  26.6483509  46.6256195  59.5677801
  27.1939469  46.1920598  59.2085698  40.5001384  44.7391042  68.8047161
  39.6878066  44.4316932  68.8860334  40.9591319  44.2590042  69.3689873
  40.4481769  44.6227534  68.9001755  39.9106639  52.6170714  59.2524105
  39.5521294  52.7885357  60.0288138  39.4245350  53.0783920  58.6952104
  39.7865336  52.7109685  59.2849375  37.7277025  36.2401912  62.8551197
  36.8570583  36.2140634  62.8084506  37.9817366  36.0679105  62.0377042
  37.6370585  36.2112056  62.7271334  34.6995004  48.2969879  51.7924340
  34.9887529  49.0734762  52.0667914  34.7866803  47.7858611  52.4938839
  34.7549261  48.3361798  51.9366838  37.5954892  46.1451113  73.5875863
  38.0654523  46.7693230  73.9743738  37.6416772  45.4768089  74.1469078
  37.6722768  46.1385794  73.7275935  34.7526166  38.2508141  64.3124667
  34.2364654  37.5588332  64.4376246  34.1920094  38.9178918  64.2587266
  34.5932679  38.2471399  64.3230733  36.8218399  38.7901101  66.1417520
  36.4350152  38.8150132  66.9231050  36.3351336  38.2242780  65.6892036
  36.6930908  38.7096852  66.1905423  41.0711378  53.5074610  70.1991306
  41.7091099  53.0134806  69.8653762  40.4285470  53.4352010  69.6143533
  41.0705605  53.4233618  70.0633661  42.7968378  45.3563756  64.7657222
  42.3695987  45.2690104  64.0105321  42.1594431  45.4641531  65.3512066
  42.6397986  45.3596416  64.7402663  36.4875541  35.6768086  68.4327780
  37.1168659  36.2128386  68.1548850  36.6561403  35.5845445  69.2841345
  36.6053335  35.7429449  68.5176308  36.2889456  40.4639281  70.7054191
  37.1162885  40.1924430  70.7612806  36.3097302  41.2600123  71.0618009
  36.4142306  40.5419035  70.7669374  41.1265635  54.1994418  66.8396663
  41.9158013  53.8483483  66.9598745  41.3009233  55.0130807  66.5773297
  41.2685917  54.2680275  66.8184531  30.8658945  47.6103144  63.8924452
  30.0246952  47.5107018  64.1003346  31.0748953  48.3798624  64.2438773
  30.7723638  47.7095187  63.9751767  28.3434512  45.2322681  61.7209203
  27.9491210  45.3065693  60.9459312  27.7874629  45.6180627  62.2717564
  28.2037325  45.3004455  61.6876862  39.9799459  38.2103975  61.4013082
  40.1849053  38.1426283  62.2470079  39.6525883  39.0162796  61.3334259
  39.9614707  38.3189915  61.5172737  34.6775610  45.5384543  63.1422049
  34.3738748  44.9840531  63.7432457  33.9755031  45.7176753  62.6550084
  34.5291820  45.4829325  63.1591755  33.7341707  42.8485063  57.7066751
  34.0101442  42.1303975  57.2944319  34.3340377  43.4469983  57.4987857
  33.8634972  42.8305434  57.6147512  32.7393961  52.7534264  67.8494147
  32.6314316  52.7636326  68.7156205  32.9489743  53.5789044  67.6599101
  32.7544072  52.8775339  67.9498239  43.2333147  38.7635739  60.8815847
  42.6207460  39.2506141  61.2669579  43.3297322  38.0879230  61.4253498
  43.1571044  38.7354048  61.0194705  37.2352228  40.5198580  55.9813346
  37.6895974  40.6909141  56.7061191  37.7092274  39.9066691  55.5811122
  37.3720548  40.4549465  56.0287108  30.7567753  50.0046906  65.3116085
  30.1655687  50.6456404  65.2819100  31.5188777  50.4284523  65.2847384
  30.7816014  50.1622745  65.3031232  31.1528376  41.1648904  65.9784102
  31.6129858  41.2387833  66.7159226  31.1984483  41.9630158  65.6283924
  31.2278931  41.2943051  66.0356859  32.8011726  41.8315599  70.5456130
  32.4097291  41.1848946  70.9811907  32.9697589  42.4227034  71.1650385
  32.7682636  41.8229867  70.7018836  46.8758175  49.8352676  66.3093363
  46.9341299  50.2839325  67.0553340  46.2424642  50.2451489  65.8723443
  46.7909470  49.9626411  66.3545911  40.5157270  55.4556218  62.7448109
  40.3176958  55.9447032  62.0504321  39.8944981  55.6597459  63.3232243
  40.3944834  55.5572756  62.7271333  34.5765248  47.2241115  57.0858354
  35.3207293  47.6115391  57.3241303  34.7225944  46.3798540  57.2498841
  34.7075833  47.1571587  57.1452323  36.4944823  39.0191374  62.1190215
  35.6480868  39.1914181  61.9931565  36.4915956  38.2140717  62.4556043
  36.3691973  38.9252402  62.1501342  37.5643124  42.7966588  62.9852273
  37.0903078  42.2708350  63.4957584  37.9361260  42.2496061  62.4167134
  37.5493013  42.6382585  62.9767420  27.9416154  44.7938095  68.3535819
  28.8041767  44.6933804  68.2673148  27.6107937  44.2132804  67.7921391
  28.0201350  44.6929721  68.2581225  43.8279854  47.8568964  64.3959053
  43.5878077  47.0175379  64.4001480  44.3071861  47.9369130  65.1199827
  43.8632038  47.7450363  64.5033856  39.4926623  43.6903143  56.0478027
  38.9649642  43.7731886  55.3583736  39.9522332  44.4321014  56.0442671
  39.4828474  43.8123805  55.9452722  45.8285041  44.6370421  62.3488312
  45.5894811  44.5966255  61.5109097  45.9918943  45.4841573  62.4754034
  45.8175345  44.7562506  62.2441794  42.4331071  49.0220370  68.2793358
  43.1565270  48.5692897  68.1004378  42.1681034  49.3025036  67.4965686
  42.5012345  48.9971339  68.1372073  31.3017940  43.6180544  65.0146237
  30.6771010  43.6298936  64.4072190  30.9663535  44.0940719  65.6637477
  31.1603432  43.6899061  65.0202805  31.4859689  41.9605662  51.0718922
  31.1372493  42.6125387  51.5350471  31.0056134  41.9462775  50.3442793
  31.3629932  42.0548716  51.0330013  28.0143615  51.6781004  66.4550001
  27.4843540  50.9873443  66.5044976  28.2868709  51.6691189  65.6262710
  27.9768338  51.5748136  66.3397417  39.0463706  52.2606706  55.1787684
  39.7697905  52.7264819  55.0352257  38.6064297  52.3280316  54.4285281
  39.0879398  52.3390543  55.0472465  38.2149861  49.1204248  66.4288373
  37.6006854  48.5762299  66.7237008  38.7317146  48.6068485  65.9494189
  38.2005523  48.9640657  66.4012601  37.4546158  50.1908518  64.1632671
  37.0273766  49.5658237  63.7298107  37.4471103  49.9083440  64.9891679
  37.3905299  50.0561299  64.2212499  30.5708685  45.2273691  67.2321105
  30.7302172  44.4717016  67.6372827  30.3901579  45.7764631  67.8861843
  30.5674044  45.1967505  67.3883811  38.5128988  37.3934927  67.7871895
  38.0169549  37.5898601  67.0963462  39.2698050  37.7927595  67.6160696
  38.5515813  37.4812661  67.6592032  35.7831868  41.0677273  64.3775205
  35.8074355  40.5337385  63.6887985  36.0343341  40.5594582  65.0400796
  35.8241786  40.9138177  64.3739850  23.2939458  48.3508768  63.8118349
  23.1882907  48.3055612  62.9470433  22.5439678  48.6962548  64.0932634
  23.1675061  48.3949676  63.7255679  32.0633190  39.7948091  63.7580950
  32.1031562  40.2957298  64.4715657  31.2382855  39.8858485  63.4886873
  31.9472716  39.8829907  63.8231488  34.2462803  49.3608831  71.8601244
  33.3958433  49.4980545  71.9958889  34.4090931  48.6272609  72.3048946
  34.1446666  49.2722932  71.9456843  33.4847553  46.3108601  66.0554849
  32.6539483  46.4782419  65.8490097  33.4299071  45.9344552  66.8403734
  33.3536968  46.2798332  66.1403377  31.2931337  39.8017494  71.6911259
  31.9184040  39.2579627  71.9640692  30.8381817  39.3212411  71.1219050
  31.3179597  39.6506975  71.6472853  31.8583597  44.5864193  56.5844966
  31.9986558  45.0836657  57.2873608  32.3566130  43.8850487  56.7259180
  31.9524678  44.5566171  56.7096545  31.8883820  45.4531304  53.9137543
  32.5228899  46.0491729  53.8487005  31.9709430  45.1534761  54.7283413
  31.9940371  45.4972212  54.0240630  44.8666385  47.9846781  66.7823907
  45.4584226  48.6244032  66.8142105  45.3025380  47.2869818  67.0715974
  45.0184817  47.9765131  66.8304740  33.4662802  41.3845279  53.8882985
  33.7878644  40.9048361  53.2342248  33.7289746  42.1944925  53.6973797
  33.5528828  41.4335177  53.7638477  36.6959775  52.4064153  67.4081801
  36.1884866  52.9600000  67.8522432  36.3986421  52.4672443  66.5900576
  36.5764660  52.4970464  67.3530258  38.8621957  40.7717473  66.2506464
  39.2877029  40.3189999  65.6389991  38.2478951  40.2177544  66.5271252
  38.8350603  40.6231449  66.2011490  28.3936808  47.6499144  57.1827089
  28.9029037  48.2463652  57.5638395  28.8671080  47.3825118  56.5003509
  28.5380183  47.6984960  57.1381612  39.3067556  56.3227411  55.3385745
  38.5896865  56.1488273  54.8732982  39.9574293  56.0879983  54.8061231
  39.2969406  56.2623204  55.1914963  37.3016180  37.2432573  59.6597041
  36.6584498  37.0930219  60.2282180  36.9615587  36.9974918  58.8946146
  37.1561258  37.1844695  59.6300056  41.8915527  45.1992000  59.0827050
  41.2206717  45.7421702  58.9540115  42.5855277  45.6686855  58.8408745
  41.8944394  45.3490271  59.0282578  35.9402261  57.3388712  64.3138808
  35.7167915  56.5807541  64.6822835  35.4512104  57.3686733  63.5919248
  35.8345710  57.2310936  64.2615549  42.0543654  41.6547883  61.9917423
  42.4071264  41.2277606  62.6663222  41.1958456  41.5698727  62.1218499
  41.9793099  41.5792624  62.1112434  30.7527339  44.2855403  60.0500270
  30.0339328  44.7019535  60.3173133  31.1239702  44.8509642  59.4991908
  30.7019271  44.4304684  60.0083077  40.0526920  44.9183252  65.9402265
  40.0324847  44.7366547  66.7937044  40.1006121  45.7895270  65.9161849
  40.0561561  45.0199790  66.0625560  37.9973250  51.5070444  71.8650742
  37.9569105  50.8620121  71.2795898  38.8096568  51.4507061  72.1776154
  38.1116403  51.4029411  71.8247691  34.5880717  57.5589170  61.7675893
  34.1741116  56.8963300  61.3779734  35.2728092  57.7067028  61.2471587
  34.6279089  57.4829828  61.6332390  37.9546012  56.7179255  62.5199509
  37.5562295  56.8281525  61.7520330  37.3397231  56.9261321  63.1026069
  37.8044901  56.7652823  62.4930809  36.5273914  43.3253403  55.3873649
  35.9338753  43.6470399  54.8358216  36.5649191  42.4794498  55.1794755
  36.4448303  43.2477731  55.2756420  43.4867714  36.7766295  62.9201736
  42.9798579  36.0695435  62.8522913  44.2835148  36.4459484  63.0502812
  43.5294954  36.6239446  62.9300731  39.4031730  43.2832907  58.8175399
  39.1745423  43.3065609  57.9753758  39.6629806  42.4590374  58.9370410
  39.4077918  43.1648987  58.7100597  33.6850959  45.1367380  68.4200500
  33.1729862  44.5288563  68.7785531  33.5130455  45.8523973  68.8874475
  33.5840596  45.1530680  68.5416723  28.5316673  43.5804956  71.0702861
  28.3619264  44.2406330  70.5251068  28.0882623  43.7911517  71.7915350
  28.4416007  43.7090938  71.0964491  32.4576493  41.8209454  60.1129595
  32.9333859  42.1826533  59.4779776  31.9565092  42.4765921  60.3929738
  32.4541852  41.9703642  60.0606336  45.6887854  51.2931222  55.9042600
  46.0721460  52.0422578  56.1340697  44.8931968  51.5397041  55.6454589
  45.6281637  51.4400915  55.9000174  37.5620029  43.0591625  70.8602755
  38.1191459  42.8305434  70.2281221  37.2381094  43.8197291  70.5837967
  37.5966439  43.1375462  70.7259252  25.4318738  46.4851821  66.3291351
  24.8845457  45.8152467  66.4472219  26.2211116  46.1181669  66.3934818
  25.4670922  46.3316808  66.3560052  35.2803146  46.1459278  71.8254762
  36.0314473  46.4610955  72.1394316  35.4725723  45.9438449  70.9988684
  35.4194560  46.1626660  71.7498158  34.5003146  43.9650653  53.4802979
  34.8802111  43.9830283  52.6954094  33.7595742  44.4104642  53.3593826
  34.4471984  44.0332428  53.3466547  42.1288436  42.2732845  59.0678558
  42.1282663  42.1181501  59.9262834  41.9244616  43.1195832  59.0119943
  42.0988214  42.3753465  59.1866497  24.1905707  45.6972629  63.4837374
  24.0127468  45.2449238  64.2092290  23.9024729  46.4998790  63.6675852
  24.1218661  45.7495187  63.6180877  39.8529288  46.9530346  62.7214765
  40.3482954  46.2353341  62.6818785  39.0429064  46.6501144  62.6069251
  39.8073182  46.8027993  62.6988490  35.2987900  50.8028160  54.8711769
  34.4899223  50.4794833  54.8245078  35.8062809  50.0961382  54.8040018
  35.2537567  50.6509476  54.8542063  25.9278177  48.2300353  60.5959133
  25.0623697  48.2186043  60.4841904  26.0276993  48.0430576  61.4430273
  25.8152344  48.2006414  60.7048078  41.9181107  49.7034034  65.4091893
  42.3436179  49.1808456  64.8562318  41.5538027  50.3014871  64.8880516
  41.9267710  49.7144261  65.2500903  31.5535187  57.9998251  64.1689239
  31.8681746  58.8134640  64.1767021  31.9628600  57.6148470  64.8371398
  31.6603285  58.0626954  64.2693330  38.5059707  53.4168298  61.7393051
  38.9770885  54.1308561  61.9083036  38.8419885  52.8167048  62.2752920
  38.6254822  53.4339762  61.8425427  40.5936691  55.0269611  73.9185123
  40.7033657  54.2378172  74.2741870  40.9227588  54.9375548  73.1159461
  40.6589097  54.8975464  73.8527514  35.4229202  38.1895769  68.6951146
  35.5557107  37.3926762  69.0232121  35.8074354  38.7162172  69.2749421
  35.4985531  38.1495685  68.8294648  39.1433653  53.2086232  68.5020743
  38.5954599  52.5844116  68.2340809  39.6046682  53.3980504  67.7864823
  39.1300863  53.1445282  68.3571174  38.4961557  35.1126095  65.2932239
  37.6907521  35.0023824  65.6100077  38.3668292  35.2138551  64.4362105
  38.3581690  35.1109765  65.2140279  41.9527517  41.2771587  65.8871936
  41.3690506  41.7780793  65.4749503  42.2731811  40.7701143  65.2536259
  41.9140693  41.2763422  65.7330443  34.4922317  40.1912182  56.1630611
  35.3138011  40.3610494  55.9212305  34.0291967  40.3459443  55.4396908
  34.5453479  40.2393915  56.0202255  33.0817648  38.1854944  66.9429039
  33.6262061  37.8446071  67.5333381  33.1354584  39.0440405  67.0850324
  33.1706768  38.2610203  67.0510913  28.8948207  51.9471360  63.8167847
  29.4993065  51.9067194  63.1881668  28.6875520  52.7942512  63.8471903
  28.9537105  52.0659362  63.7283964  38.7091979  54.2137305  65.0330085
  39.5290353  54.0700271  65.2946380  38.4286057  54.8383504  65.5746522
  38.7888723  54.2847657  65.1518024  24.1299490  50.9305977  63.6866770
  24.0323768  50.1202249  63.9956827  24.9128359  50.9097771  63.3013038
  24.2315626  50.8073068  63.6753633  48.3805315  60.9577808  62.7525891
  47.5243210  61.1186306  62.8035008  48.4272968  60.0869872  62.7730952
  48.2604426  60.8528610  62.7631957  51.6899031  67.2264333  72.3586347
  52.3965798  66.7316364  72.4873282  51.8786967  67.6673415  71.6289005
  51.8226937  67.2182684  72.2695393  44.1831950  75.4236507  62.1840751
  44.8269406  75.8649671  62.5736910  44.5088206  74.6189933  62.0971010
  44.3263779  75.3701702  62.2286229  37.5396255  66.5279204  60.4078229
  37.3046439  65.6946857  60.3010498  37.6781896  66.8083870  59.5939430
  37.5251917  66.4462708  60.2720584  39.8386342  58.6964935  63.3062537
  39.2191374  58.1057582  63.1372552  39.7370206  59.2876370  62.6726860
  39.7324018  58.6969017  63.1867526  46.9354238  60.4364477  57.6395000
  47.6334403  60.6152604  58.1316463  47.2506570  59.9134816  57.0165389
  47.0849575  60.3858249  57.6197010  39.5655475  62.2417217  65.5506106
  39.4414172  62.8279662  66.1855925  40.2173760  61.7477412  65.8518381
  39.6429125  62.2556021  65.6892035  45.1081101  55.8056873  61.7216275
  44.7784431  56.2568017  61.0519973  44.4326103  55.7273037  62.2689281
  44.9591538  55.8608009  61.7039498  52.3157509  51.7942396  59.9665885
  52.0010950  52.4845875  60.3986308  51.7984451  51.7387178  59.2651386
  52.1921980  51.8877285  59.9262834  51.6569943  61.7946897  56.0803296
  51.1281414  62.0106531  56.7400602  52.1794963  62.4883036  56.0004265
  51.6558396  61.9290034  56.1658895  39.1013579  71.4064875  61.6834435
  38.6181158  72.1315365  61.6594019  39.9136898  71.7041005  61.7944593
  39.1504327  71.5567229  61.6961714  48.8291325  70.6491870  70.2500423
  48.9174671  70.4618010  71.0978633  49.2581038  70.0029299  69.8505270
  48.9053428  70.5254878  70.3172174  46.3961785  69.9323030  69.2318085
  45.8332620  69.5195640  69.7557746  47.1582809  69.8575935  69.6511228
  46.4256234  69.8600430  69.3711085  48.0046765  61.9375766  53.3579684
  48.2442769  62.1453750  52.5455027  48.3262606  61.1333275  53.4668629
  48.0883923  61.8489867  53.2540237  43.3137056  53.8669162  57.2039222
  44.0683024  54.2347479  56.9656272  43.1364590  54.2408716  57.9718402
  43.3991534  53.9767350  57.2824111  43.0036683  62.1596638  70.9635130
  43.1757187  62.0502533  71.8120412  43.5406041  62.8051043  70.7266322
  43.1081687  62.2388640  71.0540227  41.6694120  56.2739481  53.9017335
  41.4869693  56.4911362  53.0758328  42.5319733  56.3878493  53.9575950
  41.7698710  56.3229379  53.7871822  41.2808552  68.1127403  61.3440323
  42.1197452  68.3450336  61.3914085  41.3120321  67.2431714  61.2747359
  41.4090270  68.0184349  61.3404968  41.9061255  68.5328278  65.6453629
  42.4459480  68.3899409  66.3157001  41.2231201  68.9325029  66.0137655
  41.8853409  68.5707949  65.7988050  47.3493839  53.2765891  56.9366359
  48.0780000  53.0981846  56.4904515  47.4388732  54.1183971  57.1473537
  47.4700501  53.3749770  56.9019877  48.9411385  70.0800889  72.9144206
  49.7251801  70.1931737  73.2799948  48.7407979  69.2542026  73.1102892
  49.0277410  69.9747608  72.9978592  37.3098400  64.7528569  65.7988050
  37.0436815  63.9367686  65.9579040  37.3236964  64.7981724  64.9283566
  37.2723123  64.6385474  65.6941532  54.2879794  55.0806384  63.8330484
  54.9305702  55.1504488  64.4192399  54.5402815  54.4135607  63.3310026
  54.4201926  54.9932732  63.8457763  41.2156147  59.5513653  52.4139808
  40.5014324  59.2651833  52.8262241  41.7000116  59.8910279  53.0546196
  41.1815511  59.5595303  52.5695443  42.0597007  58.2906947  68.4455058
  41.3668803  57.8203927  68.6915789  42.6757334  58.0645252  69.0196765
  42.0481537  58.1874079  68.5664211  49.0981778  71.9910991  66.5610662
  48.2997024  71.7510491  66.8184531  49.5467790  72.0425384  67.3077710
  49.0456389  71.9633382  66.7095586  37.7191814  65.5387348  63.0799794
  37.5367387  65.5134234  62.2272087  38.4541483  66.0086286  63.1188703
  37.8005878  65.6048711  62.9597713  40.7837566  62.2572351  69.5881903
  41.5077538  62.2425382  70.0746798  40.8853702  62.9667706  69.0903871
  40.9055775  62.3597054  69.5860690  48.1582515  65.7371436  74.4530850
  47.3655496  66.0514948  74.6383470  48.2731442  65.9522904  73.6151635
  48.0577925  65.8155273  74.3569185  50.8313834  62.4605427  58.7425866
  50.9260688  63.1994721  59.1965491  50.2072677  62.0322902  59.1760430
  50.7522864  62.5066748  58.8734013  49.0866308  65.6391640  69.3916147
  49.6605169  65.0018884  69.5464711  49.0081111  65.6395722  68.5225804
  49.1599543  65.5456751  69.2862558  37.6862724  62.4180849  63.2298861
  38.2636227  62.2817300  63.8691106  36.9876786  61.9616633  63.4844445
  37.6683746  62.3303115  63.3621151  51.0836855  64.3054167  51.9762818
  51.0017018  64.3756354  52.8417805  51.7216576  64.8683911  51.7846559
  51.1656693  64.3993138  52.0752767  49.5231077  56.1743355  61.5441437
  48.8187403  55.6852541  61.7025356  49.5716051  56.1865830  60.6729881
  49.4261128  56.1033003  61.4380777  43.4164739  61.6252667  61.9302239
  42.8414330  61.7844836  62.5666200  43.0400415  60.9888076  61.4670690
  43.2767551  61.5550480  61.9556797  47.0838027  60.0976016  66.7894617
  46.6952460  59.6730234  66.1346809  46.4192726  60.3458166  67.2971644
  46.9284955  60.0714738  66.7682485  33.1621557  61.2692742  59.9446680
  33.2481809  60.8924610  60.7260210  33.7897355  60.8953188  59.4666638
  33.2678108  61.1578224  59.9892157  50.9064389  53.7950645  64.3018602
  51.2874900  53.1128816  64.6886476  50.1027673  53.5060247  64.1194266
  50.8440850  53.6517694  64.3322658  54.4086456  67.0100617  69.4001000
  54.1725093  66.1788682  69.2813061  55.0529685  66.9586224  69.9855844
  54.4681126  66.8798305  69.4686894  38.7497516  70.0384475  63.9978040
  38.7901661  70.3099326  63.1697820  39.3092040  70.5626383  64.4135828
  38.8380862  70.1560230  63.9369928  44.8656229  56.3004843  74.1681210
  44.5509670  57.0704406  73.9050773  44.5446162  55.7375099  73.5833437
  44.7715148  56.3315112  74.0422560  55.4322876  66.7945066  65.4629295
  55.1268693  67.5273123  65.8242610  54.7129092  66.3882995  65.1822081
  55.2810219  66.8426799  65.4742432  40.2012102  68.6226424  58.8231966
  39.3750220  68.8688161  58.6966245  40.2624094  68.5438505  59.6894024
  40.0886269  68.6471373  58.9320911  42.4188126  54.6895365  59.7827406
  41.5510552  54.7617964  59.8485016  42.7063330  55.4917444  59.9715381
  42.3327874  54.8189512  59.8202173  51.5421015  54.8373224  68.1138728
  52.2874607  54.6483035  67.7002154  51.1258319  55.3631462  67.5552585
  51.5905989  54.8875370  67.9703301  45.5705677  66.0421050  67.6104127
  45.0717370  66.7536818  67.6889015  46.3805901  66.3621717  67.5722289
  45.6161783  66.1947899  67.6160695  41.8333794  65.3044003  61.8566848
  41.5447043  64.6781474  62.3912575  42.7017142  65.2464291  61.9231528
  41.9194046  65.2031547  61.9457802  45.0884803  74.5900077  58.3741838
  45.7408861  74.0576519  58.6032864  44.3910411  74.2368729  58.7609712
  45.0815521  74.4589600  58.4654006  42.0366067  66.9439254  57.7809213
  42.7912035  67.3252293  57.9944675  41.4436680  67.3950398  58.2355909
  42.0602781  67.0668082  57.8792091  44.4972735  58.9002094  72.9066425
  43.6872510  59.2059874  72.7956267  44.9747421  59.6207677  73.0219009
  44.4476213  59.0516696  72.9073496  40.3455478  58.1653624  57.2244283
  40.0580274  57.7954895  56.4876230  41.0325946  58.6348480  56.9627988
  40.4044375  58.1800594  57.0759358  44.7830620  65.1451835  58.5530819
  44.5873402  65.7526569  57.9591122  45.0064965  64.4519779  58.0722493
  44.7865261  65.1329360  58.3946900  43.1809150  62.0306572  58.6711687
  43.9031802  62.1947731  58.2115493  42.7017143  62.7516237  58.5651027
  43.2172880  62.1604802  58.5877301  51.1402657  58.3670371  64.0508372
  50.3013758  58.3931650  63.8146636  51.2107025  59.0141107  64.6313719
  51.0271051  58.4666497  64.1017489  40.8316766  64.4364645  67.7765827
  41.3437863  64.7148898  67.1274587  40.5453109  65.1753939  68.1428640
  40.8651630  64.5866999  67.7355705  49.5871936  55.2655748  58.7835988
  50.2898288  55.0663497  58.3055946  49.3216124  54.4931691  59.0904832
  49.6518568  55.1218714  58.7581430  37.9183673  58.9434837  58.0729564
  38.0199809  59.7460998  58.4010539  38.7139560  58.7422173  57.7752644
  38.0511578  59.0320735  58.0764919  44.3500492  56.5291033  67.8366869
  44.1583689  56.5446168  68.6866292  45.1999088  56.7254708  67.8133524
  44.4476214  56.5605385  67.9590164  38.7347405  59.0582015  65.8150685
  38.5932897  58.2065956  65.9395193  39.0187968  59.1010676  64.9912891
  38.7555251  58.9381765  65.7118309  48.8885997  60.8949105  59.9595174
  48.6420712  60.8144856  60.7931962  49.2171120  60.1102573  59.7657701
  48.9007241  60.7675370  60.0542697  51.1212131  63.9028840  70.0004336
  51.1160170  63.0308656  70.0046763  51.8273125  64.1017009  69.5273792
  51.2257135  63.8032714  69.9311372  44.8483025  63.6305824  69.3718157
  44.9926400  64.2107032  68.7361267  45.1958673  64.0082120  70.0768011
  44.9210486  63.7726528  69.3817152  47.0202942  62.8295992  67.1543288
  46.2726256  63.0227006  66.7491566  47.1744467  62.0041212  66.9167410
  46.9325369  62.7361103  67.0588694  43.9210779  71.8208595  66.2379183
  44.0700343  71.2611511  65.5852588  44.7010782  71.9000597  66.6211702
  44.0584873  71.7494161  66.1976133  46.4464080  71.9923238  67.5163674
  46.3707751  71.3232049  68.0714463  46.3753939  72.6941027  68.0304341
  46.4244687  71.9968146  67.6740522  47.2604719  56.7246543  68.0438692
  47.7177333  57.4570517  68.1711484  47.3361048  56.3013008  68.8025948
  47.3395689  56.7703781  68.1739768  39.5037710  56.9712363  69.1328136
  38.9679900  56.3592721  69.4488903  39.5655475  57.5460498  69.7861802
  39.4333343  56.9659290  69.2763562  51.7332045  49.9036418  61.9132535
  51.8515613  50.3612881  61.1799838  51.5594221  49.0981679  61.6268753
  51.7251216  49.8530190  61.7633469  45.1387097  58.7148647  64.8880516
  44.3483172  58.5340107  65.2097852  45.5347720  57.9375599  64.8710810
  45.0803973  58.5736108  64.9333064  49.6252988  67.5436421  50.3287230
  50.3925973  67.6036546  49.9193081  49.1784297  66.9716862  49.8443548
  49.6726415  67.4672997  50.1964940  47.6524927  61.1908906  69.3704015
  47.5884068  62.0518862  69.2424152  47.7922115  60.8740899  68.5699566
  47.6640397  61.2709072  69.2332228  45.8355714  75.3991558  65.9741675
  46.3251645  74.7002347  65.7917340  45.2639947  75.1015428  66.5617732
  45.8240244  75.2517782  66.0342716  41.6226466  64.3793097  58.9448190
  41.7791085  64.3139899  59.8004182  41.9627059  65.1541649  58.7326870
  41.6959701  64.4842295  59.0402784  48.1605611  63.7550980  57.8141554
  48.7021156  63.2521361  58.2780174  48.4752170  63.7016175  57.0031039
  48.2870008  63.6730401  57.7625366  52.0322718  67.9653628  74.9268466
  52.8457583  67.6938776  75.0873598  51.8717684  67.6661168  74.1228662
  52.1292666  67.8808554  74.8313872  49.3094880  58.6487285  67.8663854
  49.5236850  58.0098199  67.3127208  48.6928779  59.0933109  67.4371716
  49.2500209  58.6197428  67.7214285  38.1960727  61.5628047  59.2608958
  38.5759692  61.9812592  58.5969225  37.6216092  62.1441503  59.5677801
  38.1672052  61.7105906  59.2085698  51.4733968  60.2576350  68.8047161
  50.6610650  59.9502240  68.8860334  51.9323903  59.7775350  69.3689873
  51.4214353  60.1412842  68.9001755  48.7009609  51.7587220  62.8551197
  47.8303167  51.7325941  62.8084506  48.9549950  51.5864413  62.0377042
  48.6103169  51.7297364  62.7271334  48.5687475  61.6636421  73.5875863
  49.0387107  62.2878538  73.9743738  48.6149356  60.9953397  74.1469078
  48.6455351  61.6571102  73.7275935  45.7258749  53.7693449  64.3124667
  45.2097238  53.0773640  64.4376246  45.1652678  54.4364226  64.2587266
  45.5665262  53.7656706  64.3230733  47.7950983  54.3086409  66.1417520
  47.4082736  54.3335440  66.9231050  47.3083920  53.7428087  65.6892036
  47.6663491  54.2282160  66.1905423  52.0443962  69.0259918  70.1991306
  52.6823682  68.5320113  69.8653762  51.4018054  68.9537318  69.6143533
  52.0438188  68.9418926  70.0633661  47.4608124  51.1953394  68.4327780
  48.0901242  51.7313694  68.1548850  47.6293987  51.1030753  69.2841345
  47.5785919  51.2614757  68.5176308  47.2622039  55.9824589  70.7054191
  48.0895468  55.7109738  70.7612806  47.2829885  56.7785431  71.0618009
  47.3874889  56.0604343  70.7669374  52.0998219  69.7179726  66.8396663
  52.8890597  69.3668791  66.9598745  52.2741816  70.5316115  66.5773297
  52.2418500  69.7865583  66.8184531  41.8391529  63.1288452  63.8924452
  40.9979536  63.0292326  64.1003346  42.0481537  63.8983932  64.2438773
  41.7456222  63.2280495  63.9751767  39.3167096  60.7507989  61.7209203
  38.9223794  60.8251001  60.9459312  38.7607213  61.1365935  62.2717564
  39.1769908  60.8189763  61.6876862  50.9532043  53.7289283  61.4013082
  51.1581636  53.6611591  62.2470079  50.6258467  54.5348104  61.3334259
  50.9347291  53.8375223  61.5172737  45.6508194  61.0569851  63.1422049
  45.3471331  60.5025839  63.7432457  44.9487615  61.2362061  62.6550084
  45.5024404  61.0014633  63.1591755  44.7074291  58.3670371  57.7066751
  44.9834025  57.6489283  57.2944319  45.3072960  58.9655291  57.4987857
  44.8367556  58.3490742  57.6147512  43.7126545  68.2719572  67.8494147
  43.6046900  68.2821634  68.7156205  43.9222326  69.0974352  67.6599101
  43.7276656  68.3960647  67.9498239  54.2065730  54.2821047  60.8815847
  53.5940044  54.7691449  61.2669579  54.3029905  53.6064538  61.4253498
  54.1303628  54.2539356  61.0194705  48.2084811  56.0383888  55.9813346
  48.6628558  56.2094449  56.7061191  48.6824857  55.4251999  55.5811122
  48.3453132  55.9734773  56.0287108  41.7300337  65.5232214  65.3116085
  41.1388270  66.1641712  65.2819100  42.4921360  65.9469831  65.2847384
  41.7548597  65.6808053  65.3031232  42.1260960  56.6834212  65.9784102
  42.5862441  56.7573141  66.7159226  42.1717066  57.4815466  65.6283924
  42.2011515  56.8128359  66.0356859  43.7744309  57.3500907  70.5456130
  43.3829875  56.7034254  70.9811907  43.9430172  57.9412342  71.1650385
  43.7415220  57.3415175  70.7018836  57.8490758  65.3537984  66.3093363
  57.9073882  65.8024633  67.0553340  57.2157226  65.7636797  65.8723443
  57.7642054  65.4811718  66.3545911  45.5497831  62.7426423  57.0858354
  46.2939876  63.1300699  57.3241303  45.6958528  61.8983848  57.2498841
  45.6808417  62.6756895  57.1452323  47.4677407  54.5376681  62.1190215
  46.6213452  54.7099489  61.9931565  47.4648539  53.7326025  62.4556043
  47.3424557  54.4437710  62.1501342  48.5375707  58.3151896  62.9852273
  48.0635662  57.7893658  63.4957584  48.9093843  57.7681369  62.4167134
  48.5225596  58.1567892  62.9767420  38.9148737  60.3123403  68.3535819
  39.7774350  60.2119112  68.2673148  38.5840520  59.7318112  67.7921391
  38.9933934  60.2115029  68.2581225  50.4659207  59.2088450  56.0478027
  49.9382226  59.2917194  55.3583736  50.9254915  59.9506322  56.0442671
  50.4561057  59.3309113  55.9452722  53.4063655  64.5405678  68.2793358
  54.1297854  64.0878204  68.1004378  53.1413617  64.8210344  67.4965686
  53.4744928  64.5156647  68.1372073  42.2750523  59.1365852  65.0146237
  41.6503594  59.1484244  64.4072190  41.9396118  59.6126027  65.6637477
  42.1336015  59.2084369  65.0202805  42.4592272  57.4790970  51.0718922
  42.1105076  58.1310695  51.5350471  41.9788718  57.4648083  50.3442793
  42.3362516  57.5734024  51.0330013  38.9876199  67.1966312  66.4550001
  38.4576123  66.5058751  66.5044976  39.2601292  67.1876497  65.6262710
  38.9500921  67.0933443  66.3397417  41.5441269  60.7458999  67.2321105
  41.7034756  59.9902323  67.6372827  41.3634162  61.2949939  67.8861843
  41.5406628  60.7152813  67.3883811  49.4861572  52.9120235  67.7871895
  48.9902133  53.1083909  67.0963462  50.2430634  53.3112903  67.6160696
  49.5248396  52.9997969  67.6592032  46.7564451  56.5862581  64.3775205
  46.7806939  56.0522693  63.6887985  47.0075925  56.0779890  65.0400796
  46.7974370  56.4323485  64.3739850  34.2672041  63.8694076  63.8118349
  34.1615490  63.8240920  62.9470433  33.5172261  64.2147856  64.0932634
  34.1407644  63.9134984  63.7255679  43.0365774  55.3133399  63.7580950
  43.0764145  55.8142606  64.4715657  42.2115438  55.4043793  63.4886873
  42.9205300  55.4015215  63.8231488  45.2195387  64.8794139  71.8601244
  44.3691017  65.0165853  71.9958889  45.3823514  64.1457917  72.3048946
  45.1179250  64.7908240  71.9456843  44.4580137  61.8293909  66.0554849
  43.6272067  61.9967727  65.8490097  44.4031654  61.4529860  66.8403734
  44.3269552  61.7983640  66.1403377  42.2663920  55.3202802  71.6911259
  42.8916624  54.7764935  71.9640692  41.8114400  54.8397719  71.1219050
  42.2912181  55.1692283  71.6472853  42.8316181  60.1049500  56.5844966
  42.9719142  60.6021965  57.2873608  43.3298714  59.4035795  56.7259180
  42.9257262  60.0751479  56.7096545  42.8616403  60.9716611  53.9137543
  43.4961483  61.5677037  53.8487005  42.9442014  60.6720069  54.7283413
  42.9672954  61.0157520  54.0240630  44.4395386  56.9030587  53.8882985
  44.7611227  56.4233669  53.2342248  44.7022330  57.7130233  53.6973797
  44.5261411  56.9520485  53.7638477  47.6692359  67.9249461  67.4081801
  47.1617450  68.4785308  67.8522432  47.3719005  67.9857751  66.5900576
  47.5497244  68.0155772  67.3530258  49.8354541  56.2902781  66.2506464
  50.2609613  55.8375307  65.6389991  49.2211534  55.7362852  66.5271252
  49.8083186  56.1416757  66.2011490  39.3669391  63.1684452  57.1827089
  39.8761620  63.7648960  57.5638395  39.8403663  62.9010426  56.5003509
  39.5112767  63.2170268  57.1381612  50.2800139  71.8412719  55.3385745
  49.5629449  71.6673581  54.8732982  50.9306877  71.6065291  54.8061231
  50.2701990  71.7808511  55.1914963  48.2748764  52.7617881  59.6597041
  47.6317082  52.6115527  60.2282180  47.9348171  52.5160226  58.8946146
  48.1293841  52.7030003  59.6300056  46.9134844  72.8574019  64.3138808
  46.6900499  72.0992849  64.6822835  46.4244687  72.8872041  63.5919248
  46.8078293  72.7496244  64.2615549  41.7259923  59.8040711  60.0500270
  41.0071912  60.2204843  60.3173133  42.0972285  60.3694950  59.4991908
  41.6751855  59.9489992  60.0083077  51.0259504  60.4368560  65.9402265
  51.0057431  60.2551855  66.7937044  51.0738704  61.3080578  65.9161849
  51.0294145  60.5385098  66.0625560  48.9705833  67.0255752  71.8650742
  48.9301688  66.3805429  71.2795898  49.7829152  66.9692369  72.1776154
  49.0848987  66.9214719  71.8247691  48.9278595  72.2364563  62.5199509
  48.5294878  72.3466833  61.7520330  48.3129815  72.4446629  63.1026069
  48.7777484  72.2838131  62.4930809  47.5006497  58.8438711  55.3873649
  46.9071336  59.1655707  54.8358216  47.5381775  57.9979806  55.1794755
  47.4180886  58.7663039  55.2756420  54.4600298  52.2951603  62.9201736
  53.9531163  51.5880743  62.8522913  55.2567732  51.9644792  63.0502812
  54.5027537  52.1424754  62.9300731  50.3764314  58.8018215  58.8175399
  50.1478007  58.8250917  57.9753758  50.6362390  57.9775682  58.9370410
  50.3810502  58.6834295  58.7100597  44.6583542  60.6552688  68.4200500
  44.1462445  60.0473871  68.7785531  44.4863038  61.3709281  68.8874475
  44.5573179  60.6715988  68.5416723  39.5049257  59.0990264  71.0702861
  39.3351847  59.7591638  70.5251068  39.0615207  59.3096825  71.7915350
  39.4148591  59.2276246  71.0964491  43.4309076  57.3394761  60.1129595
  43.9066443  57.7011841  59.4779776  42.9297676  57.9951229  60.3929738
  43.4274435  57.4888950  60.0606336  48.5352613  58.5776933  70.8602755
  49.0924043  58.3490742  70.2281221  48.2113678  59.3382598  70.5837967
  48.5699023  58.6560770  70.7259252  36.4051321  62.0037129  66.3291351
  35.8578041  61.3337775  66.4472219  37.1943700  61.6366977  66.3934818
  36.4403505  61.8502116  66.3560052  46.2535730  61.6644586  71.8254762
  47.0047057  61.9796263  72.1394316  46.4458306  61.4623757  70.9988684
  46.3927144  61.6811968  71.7498158  45.4735729  59.4835961  53.4802979
  45.8534694  59.5015590  52.6954094  44.7328325  59.9289950  53.3593826
  45.4204567  59.5517736  53.3466547  35.1638291  61.2157937  63.4837374
  34.9860052  60.7634546  64.2092290  34.8757313  62.0184098  63.6675852
  35.0951244  61.2680495  63.6180877  36.9010761  63.7485661  60.5959133
  36.0356280  63.7371351  60.4841904  37.0009577  63.5615884  61.4430273
  36.7884928  63.7191722  60.7048078  42.5267771  73.5183559  64.1689239
  42.8414330  74.3319948  64.1767021  42.9361184  73.1333778  64.8371398
  42.6335869  73.5812262  64.2693330  51.5669275  70.5454919  73.9185123
  51.6766240  69.7563480  74.2741870  51.8960172  70.4560856  73.1159461
  51.6321681  70.4160772  73.8527514  46.3961785  53.7081077  68.6951146
  46.5289691  52.9112070  69.0232121  46.7806938  54.2347480  69.2749421
  46.4718114  53.6680993  68.8294648  50.1166237  68.7271540  68.5020743
  49.5687183  68.1029424  68.2340809  50.5779265  68.9165812  67.7864823
  50.1033446  68.6630590  68.3571174  49.4694140  50.6311403  65.2932239
  48.6640104  50.5209132  65.6100077  49.3400876  50.7323858  64.4362105
  49.3314273  50.6295073  65.2140279  52.9260101  56.7956895  65.8871936
  52.3423090  57.2966101  65.4749503  53.2464395  56.2886451  65.2536259
  52.8873276  56.7948730  65.7330443  45.4654900  55.7097489  56.1630611
  46.2870594  55.8795802  55.9212305  45.0024551  55.8644750  55.4396908
  45.5186062  55.7579222  56.0202255  44.0550232  53.7040252  66.9429039
  44.5994645  53.3631379  67.5333381  44.1087168  54.5625713  67.0850324
  44.1439351  53.7795511  67.0510913  39.8680791  67.4656668  63.8167847
  40.4725648  67.4252502  63.1881668  39.6608103  68.3127820  63.8471903
  39.9269688  67.5844670  63.7283964  35.1032073  66.4491285  63.6866770
  35.0056351  65.6387557  63.9956827  35.8860943  66.4283079  63.3013038
  35.2048210  66.3258375  63.6753633  66.1538213  77.3887465  57.9972961
  66.1232218  78.2432101  58.1691230  66.7519562  77.0882757  58.5559105
  66.2375371  77.4703961  58.1047763  59.3537898  76.4763116  62.7525891
  58.4975794  76.6371614  62.8035008  59.4005552  75.6055180  62.7730952
  59.2337010  76.3713917  62.7631957  53.7379038  86.0125833  58.5163123
  52.9861937  85.6341372  58.2879168  54.1865050  86.0444267  57.7681933
  53.6928705  85.9611441  58.3720625  62.6631615  82.7449641  72.3586347
  63.3698382  82.2501672  72.4873282  62.8519550  83.1858723  71.6289005
  62.7959520  82.7367992  72.2695393  59.1903998  86.4351203  53.9448670
  58.8555366  87.1128125  53.5092892  59.7030868  86.0456514  53.3565542
  59.2169579  86.4775781  53.7935462  58.7308289  88.3865472  59.8859782
  59.1147668  88.9552370  59.3464557  58.6667430  87.6614982  59.4065598
  58.7781716  88.3640935  59.7353644  62.1989719  78.5355160  65.3957543
  62.7445679  79.2140246  65.4551513  62.1406596  78.3942620  64.5359125
  62.2705634  78.6147161  65.2769604  55.3163794  86.0244226  60.7825895
  55.4174157  85.2144580  61.0923023  54.7205539  85.9301172  60.1525574
  55.2436333  85.8909254  60.7352134  63.9754788  79.9639767  56.2691271
  63.8594314  80.7147453  56.6983409  64.7710675  79.7063720  56.5187358
  64.0759377  80.0374614  56.3695362  55.1564534  90.9421815  62.1840751
  55.8001989  91.3834979  62.5736910  55.4820789  90.1375241  62.0971010
  55.2996362  90.8887010  62.2286229  48.5128838  82.0464512  60.4078229
  48.2779023  81.2132165  60.3010498  48.6514479  82.3269178  59.5939430
  48.4984501  81.9648016  60.2720584  50.8118926  74.2150243  63.3062537
  50.1923957  73.6242890  63.1372552  50.7102789  74.8061678  62.6726860
  50.7056601  74.2154325  63.1867526  55.8585113  83.9533790  57.5560613
  56.1800954  84.4938997  56.9521921  56.5057210  83.3830561  57.6882903
  56.0011169  83.9492965  57.4867649  57.9086821  75.9549785  57.6395000
  58.6066986  76.1337912  58.1316463  58.2239154  75.4320124  57.0165389
  58.0582159  75.9043557  57.6197010  50.5388059  77.7602525  65.5506106
  50.4146756  78.3464970  66.1855925  51.1906343  77.2662720  65.8518381
  50.6161708  77.7741329  65.6892035  58.0974757  82.3420230  57.6274791
  58.5368392  81.7337330  58.0729564  57.9479420  81.9627603  56.8560256
  58.1396223  82.1958701  57.5793959  55.5646400  80.9364241  64.8293617
  56.2095402  80.4436685  64.5104565  55.8048177  81.0789028  65.6559695
  55.6956985  80.8841684  64.9043150  58.1032491  83.7819147  64.4800509
  58.3855734  82.9870553  64.2587265  58.8318652  84.2599735  64.5005570
  58.2522055  83.7353744  64.4503525  56.0813685  71.3242181  61.7216275
  55.7517015  71.7753325  61.0519973  55.4058687  71.2458345  62.2689281
  55.9324121  71.3793316  61.7039498  61.6984093  80.6947411  54.5805561
  61.6135388  81.5508378  54.7255129  62.1868477  80.4191735  55.2487720
  61.7572991  80.7804732  54.7007642  63.2890093  67.3127704  59.9665885
  62.9743534  68.0031183  60.3986308  62.7717034  67.2572486  59.2651386
  63.1654563  67.4062593  59.9262834  62.6302527  77.3132205  56.0803296
  62.1013998  77.5291839  56.7400602  63.1527547  78.0068344  56.0004265
  62.6290980  77.4475342  56.1658895  68.0850580  82.8878510  61.4536340
  67.2548283  83.0989153  61.6169757  68.0359832  82.0615564  61.1778624
  67.9557315  82.7968116  61.4373706  54.5202134  81.2095422  54.8810764
  53.9359350  81.7145453  55.2876628  54.1172230  80.9837809  54.1407356
  54.3741438  81.2503670  54.8315789  50.0746163  86.9250183  61.6834435
  49.5913741  87.6500673  61.6594019  50.8869481  87.2226313  61.7944593
  50.1236911  87.0752537  61.6961714  56.1460317  85.7182364  64.2884250
  55.6287259  85.3589779  63.6845558  56.8434708  85.1944538  64.2990316
  56.1725898  85.5880052  64.2014508  59.8023909  86.1677178  70.2500423
  59.8907255  85.9803318  71.0978633  60.2313622  85.5214607  69.8505270
  59.8786011  86.0440185  70.3172174  57.3694369  85.4508338  69.2318085
  56.8065204  85.0380948  69.7557746  58.1315392  85.3761243  69.6511228
  57.3988817  85.3785738  69.3711085  58.9779349  77.4561074  53.3579684
  59.2175353  77.6639058  52.5455027  59.2995190  76.6518583  53.4668629
  59.0616507  77.3675175  53.2540237  52.9290360  87.4406359  61.8354715
  53.6310940  86.9258348  61.8927472  52.8487843  87.7680510  62.6401590
  53.0214121  87.4120585  61.9627507  67.5804538  75.5348910  65.2486762
  66.7432959  75.6051097  65.4834356  67.5492769  75.5373405  64.3761064
  67.4522820  75.5459137  65.1546310  53.9769267  77.6781946  70.9635130
  54.1489771  77.5687840  71.8120412  54.5138624  78.3236351  70.7266322
  54.0814271  77.7573947  71.0540227  52.6426704  71.7924789  53.9017335
  52.4602277  72.0096669  53.0758328  53.5052317  71.9063801  53.9575950
  52.7431293  71.8414687  53.7871822  52.2541136  83.6312711  61.3440323
  53.0930035  83.8635644  61.3914085  52.2852905  82.7617022  61.2747359
  52.3822853  83.5369657  61.3404968  52.8793839  84.0513586  65.6453629
  53.4192064  83.9084717  66.3157001  52.1963785  84.4510337  66.0137655
  52.8585993  84.0893257  65.7988050  58.3226423  68.7951199  56.9366359
  59.0512583  68.6167154  56.4904515  58.4121316  69.6369279  57.1473537
  58.4433085  68.8935078  56.9019877  62.3034724  79.7304587  60.8398653
  63.0592239  80.1636101  60.8787562  62.4097048  79.0809356  61.4133289
  62.4304894  79.6982071  60.9296679  65.3414895  83.5577864  61.5901056
  64.9050127  83.5614606  62.3460027  65.0077810  84.2383363  61.1580633
  65.2277515  83.6590320  61.6381889  59.9143968  85.5986197  72.9144206
  60.6984385  85.7117045  73.2799948  59.7140563  84.7727334  73.1102892
  60.0009994  85.4932916  72.9978592  48.2830984  80.2713877  65.7988050
  48.0169399  79.4552994  65.9579040  48.2969548  80.3167032  64.9283566
  48.2455706  80.1570782  65.6941532  65.2612378  70.5991692  63.8330484
  65.9038286  70.6689796  64.4192399  65.5135398  69.9320915  63.3310026
  65.3934510  70.5118040  63.8457763  52.1888731  75.0698961  52.4139808
  51.4746908  74.7837141  52.8262241  52.6732699  75.4095587  53.0546196
  52.1548094  75.0780611  52.5695443  53.0329590  73.8092255  68.4455058
  52.3401387  73.3389235  68.6915789  53.6489917  73.5830560  69.0196765
  53.0214120  73.7059387  68.5664211  60.0714362  87.5096299  66.5610662
  59.2729607  87.2695799  66.8184531  60.5200373  87.5610692  67.3077710
  60.0188973  87.4818690  66.7095586  68.4759241  80.2758784  60.4820693
  69.1375675  79.7149452  60.3816602  67.8350653  79.7810815  60.8073384
  68.4788108  80.1195193  60.5153033  59.3636049  83.5728915  52.7901616
  59.7787197  83.2413939  52.0986112  58.5327978  83.3397818  52.6621753
  59.3024057  83.4900171  52.6692464  48.6924397  81.0572656  63.0799794
  48.5099971  81.0319542  62.2272087  49.4274066  81.5271594  63.1188703
  48.7738461  81.1234019  62.9597713  64.7624072  81.2924166  60.2232682
  64.9979661  81.4369365  59.3959533  64.9113635  82.0566574  60.6164196
  64.8189875  81.4263221  60.1596286  51.7570149  77.7757659  69.5881903
  52.4810121  77.7610690  70.0746798  51.8586286  78.4853014  69.0903871
  51.8788358  77.8782362  69.5860690  66.5914528  80.1325832  58.0602286
  66.9222745  80.6653472  57.4542381  67.1647616  80.1864720  58.7164237
  66.7248207  80.2195401  58.0680068  59.1315099  81.2556744  74.4530850
  58.3388079  81.5700256  74.6383470  59.2464026  81.4708212  73.6151635
  59.0310509  81.3340580  74.3569185  61.8046417  77.9790735  58.7425866
  61.8993272  78.7180029  59.1965491  61.1805261  77.5508210  59.1760430
  61.7255448  78.0252055  58.8734013  60.0598891  81.1576947  69.3916147
  60.6337753  80.5204192  69.5464711  59.9813695  81.1581030  68.5225804
  60.1332126  81.0642059  69.2862558  48.6595308  77.9366157  63.2298861
  49.2368810  77.8002608  63.8691106  47.9609369  77.4801941  63.4844445
  48.6416329  77.8488423  63.3621151  62.0569439  79.8239475  51.9762818
  61.9749601  79.8941662  52.8417805  62.6949159  80.3869219  51.7846559
  62.1389276  79.9178446  52.0752767  55.4162610  79.5900213  61.4437344
  55.1581854  78.7571947  61.4168644  55.4711093  79.8157826  60.6029845
  55.3862388  79.4997984  61.3157481  60.4963660  71.6928663  61.5441437
  59.7919987  71.2037849  61.7025356  60.5448634  71.7051138  60.6729881
  60.3993712  71.6218311  61.4380777  54.3897322  77.1437975  61.9302239
  53.8146913  77.3030143  62.5666200  54.0132998  76.5073384  61.4670690
  54.2500134  77.0735788  61.9556797  58.0570611  75.6161324  66.7894617
  57.6685044  75.1915542  66.1346809  57.3925309  75.8643474  67.2971644
  57.9017539  75.5900045  66.7682485  67.6993880  75.3736329  59.5642447
  67.4430445  74.5616271  59.3740330  68.5423194  75.3813896  59.3372635
  67.7859905  75.2548327  59.5027265  44.1354141  76.7878050  59.9446680
  44.2214393  76.4109918  60.7260210  44.7629938  76.4138495  59.4666638
  44.2410692  76.6763532  59.9892157  61.8796972  69.3135953  64.3018602
  62.2607484  68.6314124  64.6886476  61.0760257  69.0245555  64.1194266
  61.8173434  69.1703002  64.3322658  59.1609549  79.8459929  54.9871424
  59.9750188  80.1374822  54.8754196  59.0968690  79.1919791  54.4129717
  59.2712288  79.7925124  54.8860262  65.3819039  82.5285925  69.4001000
  65.1457677  81.6973990  69.2813061  66.0262268  82.4771532  69.9855844
  65.4413710  82.3983613  69.4686894  55.0317457  83.3181446  60.1143736
  55.6691404  83.0793194  60.6595530  55.4572529  83.5218605  59.3796897
  55.1893624  83.3132457  60.0860894  49.7230100  85.5569783  63.9978040
  49.7634245  85.8284634  63.1697820  50.2824624  86.0811691  64.4135828
  49.8113446  85.6745538  63.9369928  55.6720272  78.5383736  54.4518626
  56.0565425  78.3191443  55.2035171  55.4231893  79.3646682  54.5819702
  55.6922345  78.6281882  54.5819702  55.8388813  71.8190151  74.1681210
  55.5242254  72.5889714  73.9050773  55.5178745  71.2560407  73.5833437
  55.7447732  71.8500420  74.0422560  66.4055460  82.3130374  65.4629295
  66.1001277  83.0458431  65.8242610  65.6861675  81.9068303  65.1822081
  66.2542802  82.3612107  65.4742432  57.4138929  83.7953869  61.7937523
  57.4877937  83.6329041  62.6479373  58.2308436  83.9844059  61.5498004
  57.5455288  83.7990611  61.8835548  72.1057252  78.9523375  64.7897639
  72.0381752  78.9719334  63.9200225  72.0912914  79.7953702  65.0153309
  72.0936008  79.0797109  64.6950116  51.1744686  84.1411732  58.8231966
  50.3482804  84.3873469  58.6966245  51.2356677  84.0623813  59.6894024
  51.0618853  84.1656681  58.9320911  55.9543515  86.7588612  56.5250996
  56.2441813  86.3677593  55.8010223  56.6846996  86.9405317  56.9656271
  56.1050399  86.7282426  56.4833803  69.8915869  77.7267761  63.0644233
  70.4423791  77.0935830  63.3041325  69.8759985  78.2583154  63.7559737
  69.9701066  77.7116709  63.2023091  56.5438260  81.5606358  67.6104127
  56.0449954  82.2722126  67.6889015  57.3538484  81.8807025  67.5722289
  56.5894367  81.7133207  67.6160695  53.8949431  88.7355995  59.5911146
  53.6749726  88.4453349  60.3837813  53.6743953  88.0770950  59.0629058
  53.8297025  88.5955703  59.6300055  52.8066378  80.8229311  61.8566848
  52.5179626  80.1966782  62.3912575  53.6749726  80.7649598  61.9231528
  52.8926630  80.7216855  61.9457802  63.5944276  75.9664094  62.1748829
  63.2509041  75.2454430  62.5256079  63.6937318  75.7577946  61.3327188
  63.5586318  75.8288298  62.1020509  56.0617386  90.1085384  58.3741838
  56.7141444  89.5761827  58.6032864  55.3642995  89.7554037  58.7609712
  56.0548104  89.9774907  58.4654006  53.0098651  82.4624562  57.7809213
  53.7644619  82.8437601  57.9944675  52.4169264  82.9135706  58.2355909
  53.0335365  82.5853389  57.8792091  64.0557305  82.4289798  57.7172818
  64.6215337  83.0883008  57.6331360  63.4085208  82.7739497  58.1889220
  64.0436061  82.5771740  57.7745574  55.4705318  74.4187402  72.9066425
  54.6605094  74.7245182  72.7956267  55.9480005  75.1392985  73.0219009
  55.4208797  74.5702004  72.9073496  54.3296878  83.6333123  63.1549328
  53.8077631  83.7733415  63.8401193  54.7170898  82.8743788  63.3451445
  54.3100579  83.5418647  63.2850404  51.3188062  73.6838932  57.2244283
  51.0312857  73.3140203  56.4876230  52.0058530  74.1533787  56.9627988
  51.3776959  73.6985902  57.0759358  60.5263883  85.3728583  57.1409897
  60.2850559  84.6396443  56.7336962  60.7065216  85.9215440  56.4876230
  60.5171507  85.3450974  56.9840120  55.7563203  80.6637142  58.5530819
  55.5605986  81.2711877  57.9591122  55.9797549  79.9705086  58.0722493
  55.7597844  80.6514668  58.3946900  54.1541733  77.5491880  58.6711687
  54.8764385  77.7133038  58.2115493  53.6749726  78.2701545  58.5651027
  54.1905464  77.6790110  58.5877301  62.1135241  73.8855679  64.0508372
  61.2746342  73.9116958  63.8146636  62.1839608  74.5326415  64.6313719
  62.0003634  73.9851805  64.1017489  51.8049350  79.9549953  67.7765827
  52.3170447  80.2334206  67.1274587  51.5185693  80.6939247  68.1428640
  51.8384213  80.1052306  67.7355705  60.5604519  70.7841056  58.7835988
  61.2630872  70.5848804  58.3055946  60.2948708  70.0116999  59.0904832
  60.6251151  70.6404022  58.7581430  65.9892765  79.0923666  61.3369614
  65.9026739  79.2479092  62.1904393  65.5343245  79.7361741  60.9629019
  65.9096021  79.2099421  61.4076721  48.8916256  74.4620145  58.0729564
  48.9932393  75.2646306  58.4010539  49.6872143  74.2607481  57.7752644
  49.0244162  74.5506043  58.0764919  55.3233075  72.0476341  67.8366869
  55.1316272  72.0631476  68.6866292  56.1731671  72.2440016  67.8133524
  55.4208797  72.0790693  67.9590164  49.7079988  74.5767323  65.8150685
  49.5665480  73.7251264  65.9395193  49.9920552  74.6195983  64.9912891
  49.7287835  74.4567073  65.7118309  59.8618581  76.4134413  59.9595174
  59.6153295  76.3330164  60.7931962  60.1903704  75.6287881  59.7657701
  59.8739824  76.2860678  60.0542697  63.7566630  83.1217772  63.7481955
  63.6180989  83.8198818  64.2530697  62.9766628  82.9666429  63.3918137
  63.6209856  83.2017939  63.7708229  62.0944715  79.4214148  70.0004336
  62.0892753  78.5493964  70.0046763  62.8005709  79.6202317  69.5273792
  62.1989719  79.3218022  69.9311372  55.8215608  79.1491132  69.3718157
  55.9658984  79.7292340  68.7361267  56.1691257  79.5267428  70.0768011
  55.8943069  79.2911836  69.3817152  57.9935525  78.3481300  67.1543288
  57.2458839  78.5412314  66.7491566  58.1477051  77.5226520  66.9167410
  57.9057953  78.2546411  67.0588694  54.8943363  87.3393903  66.2379183
  55.0432927  86.7796819  65.5852588  55.6743365  87.4185905  66.6211702
  55.0317457  87.2679469  66.1976133  65.2520002  82.4796026  54.5098454
  64.8726811  81.6933164  54.5027743  64.5886248  83.0282883  54.3670098
  65.0978477  82.4440850  54.4879251  57.4196664  87.5108546  67.5163674
  57.3440335  86.8417357  68.0714463  57.3486523  88.2126334  68.0304341
  57.3977271  87.5153454  67.6740522  58.2337302  72.2431851  68.0438692
  58.6909917  72.9755825  68.1711484  58.3093631  71.8198316  68.8025948
  58.3128272  72.2889089  68.1739768  50.4770294  72.4897670  69.1328136
  49.9412483  71.8778029  69.4488903  50.5388058  73.0645806  69.7861802
  50.4065926  72.4844598  69.2763562  62.7064628  65.4221726  61.9132535
  62.8248197  65.8798189  61.1799838  62.5326804  64.6166987  61.6268753
  62.6983799  65.3715498  61.7633469  58.0766911  86.0309545  58.3487280
  58.8416802  85.7619189  58.0269945  57.9745001  85.5459556  59.0657343
  58.1748406  85.9199110  58.4067108  56.1119680  74.2333955  64.8880516
  55.3215755  74.0525415  65.2097852  56.5080303  73.4560907  64.8710810
  56.0536557  74.0921416  64.9333064  60.5985571  83.0621729  50.3287230
  61.3658556  83.1221854  49.9193081  60.1516880  82.4902170  49.8443548
  60.6458998  82.9858305  50.1964940  61.4963367  81.8676385  62.6139962
  60.8208368  81.6361617  63.1153349  61.5055743  81.2597568  61.9882067
  61.3981871  81.7435310  62.5956114  58.6257511  76.7094214  69.3704015
  58.5616652  77.5704170  69.2424152  58.7654698  76.3926207  68.5699566
  58.6372981  76.7894380  69.2332228  63.4980101  84.7241517  54.8450140
  63.5799939  85.5308503  54.5211591  63.9829843  84.7437476  55.5690913
  63.5817259  84.8462180  54.9037038  57.3076605  79.4026353  63.5120218
  56.8838854  79.6030852  62.7759236  57.1321460  78.5555201  63.6244518
  57.2187485  79.3075135  63.4193908  56.8088298  90.9176866  65.9741675
  57.2984228  90.2187655  65.7917340  56.2372530  90.6200736  66.5617732
  56.7972828  90.7703090  66.0342716  52.5959050  79.8978405  58.9448190
  52.7523669  79.8325207  59.8004182  52.9359643  80.6726957  58.7326870
  52.6692284  80.0027603  59.0402784  59.1338194  79.2736288  57.8141554
  59.6753740  78.7706669  58.2780174  59.4484753  79.2201483  57.0031039
  59.2602591  79.1915709  57.7625366  63.0055302  83.4838935  74.9268466
  63.8190167  83.2124084  75.0873598  62.8450268  83.1846475  74.1228662
  63.1025250  83.3993861  74.8313872  57.3024644  84.6653640  55.0981582
  57.3717464  83.8068178  55.2374582  58.0813099  84.8825521  54.7700606
  57.4277494  84.5706504  55.0698739  60.2827464  74.1672593  67.8663854
  60.4969433  73.5283507  67.3127208  59.6661363  74.6118416  67.4371716
  60.2232793  74.1382736  67.7214285  61.6932131  87.0891341  59.3118075
  61.3011923  86.7858056  58.5940941  61.8485204  87.9260431  59.1223029
  61.6585721  87.1675178  59.1774572  49.1693311  77.0813355  59.2608958
  49.5492276  77.4997900  58.5969225  48.5948676  77.6626811  59.5677801
  49.1404636  77.2291214  59.2085698  62.4466552  75.7761658  68.8047161
  61.6343233  75.4687548  68.8860334  62.9056486  75.2960658  69.3689873
  62.3946936  75.6598150  68.9001755  61.8571806  83.6541330  59.2524105
  61.4986461  83.8255973  60.0288138  61.3710517  84.1154535  58.6952104
  61.7330503  83.7480301  59.2849375  59.6742192  67.2772528  62.8551197
  58.8035750  67.2511249  62.8084506  59.9282533  67.1049720  62.0377042
  59.5835752  67.2482672  62.7271334  56.6460172  79.3340495  51.7924340
  56.9352696  80.1105378  52.0667914  56.7331970  78.8229227  52.4938839
  56.7014428  79.3732414  51.9366838  59.5420059  77.1821729  73.5875863
  60.0119690  77.8063846  73.9743738  59.5881939  76.5138705  74.1469078
  59.6187935  77.1756410  73.7275935  56.6991333  69.2878757  64.3124667
  56.1829821  68.5958948  64.4376246  56.1385262  69.9549534  64.2587266
  56.5397846  69.2842014  64.3230733  58.7683566  69.8271717  66.1417520
  58.3815319  69.8520748  66.9231050  58.2816503  69.2613395  65.6892036
  58.6396075  69.7467468  66.1905423  63.0176546  84.5445226  70.1991306
  63.6556266  84.0505421  69.8653762  62.3750637  84.4722626  69.6143533
  63.0170772  84.4604234  70.0633661  64.7433546  76.3934372  64.7657222
  64.3161154  76.3060720  64.0105321  64.1059599  76.5012147  65.3512066
  64.5863153  76.3967032  64.7402663  58.4340708  66.7138702  68.4327780
  59.0633826  67.2499002  68.1548850  58.6026571  66.6216061  69.2841345
  58.5518502  66.7800065  68.5176308  58.2354623  71.5009897  70.7054191
  59.0628052  71.2295046  70.7612806  58.2562469  72.2970739  71.0618009
  58.3607473  71.5789651  70.7669374  63.0730802  85.2365034  66.8396663
  63.8623180  84.8854099  66.9598745  63.2474400  86.0501422  66.5773297
  63.2151084  85.3050891  66.8184531  52.8124113  78.6473760  63.8924452
  51.9712119  78.5477634  64.1003346  53.0214121  79.4169240  64.2438773
  52.7188805  78.7465803  63.9751767  50.2899680  76.2693297  61.7209203
  49.8956377  76.3436309  60.9459312  49.7339796  76.6551243  62.2717564
  50.1502492  76.3375071  61.6876862  61.9264626  69.2474591  61.4013082
  62.1314220  69.1796899  62.2470079  61.5991050  70.0533412  61.3334259
  61.9079874  69.3560531  61.5172737  56.6240777  76.5755159  63.1422049
  56.3203915  76.0211147  63.7432457  55.9220198  76.7547369  62.6550084
  56.4756987  76.5199941  63.1591755  55.6806875  73.8855679  57.7066751
  55.9566609  73.1674591  57.2944319  56.2805544  74.4840599  57.4987857
  55.8100139  73.8676049  57.6147512  54.6859128  83.7904880  67.8494147
  54.5779483  83.8006942  68.7156205  54.8954910  84.6159660  67.6599101
  54.7009239  83.9145954  67.9498239  65.1798314  69.8006355  60.8815847
  64.5672628  70.2876757  61.2669579  65.2762489  69.1249846  61.4253498
  65.1036212  69.7724664  61.0194705  59.1817395  71.5569196  55.9813346
  59.6361142  71.7279757  56.7061191  59.6557441  70.9437307  55.5811122
  59.3185715  71.4920081  56.0287108  52.7032920  81.0417522  65.3116085
  52.1120854  81.6827020  65.2819100  53.4653944  81.4655139  65.2847384
  52.7281181  81.1993360  65.3031232  53.0993543  72.2019520  65.9784102
  53.5595025  72.2758449  66.7159226  53.1449650  73.0000774  65.6283924
  53.1744099  72.3313667  66.0356859  54.7476893  72.8686215  70.5456130
  54.3562458  72.2219562  70.9811907  54.9162756  73.4597650  71.1650385
  54.7147803  72.8600483  70.7018836  68.8223342  80.8723292  66.3093363
  68.8806466  81.3209941  67.0553340  68.1889810  81.2822105  65.8723443
  68.7374637  80.9997026  66.3545911  62.4622437  86.4926834  62.7448109
  62.2642125  86.9817648  62.0504321  61.8410148  86.6968075  63.3232243
  62.3410001  86.5943372  62.7271333  56.5230415  78.2611730  57.0858354
  57.2672460  78.6486007  57.3241303  56.6691111  77.4169156  57.2498841
  56.6541000  78.1942203  57.1452323  58.4409990  70.0561989  62.1190215
  57.5946036  70.2284797  61.9931565  58.4381123  69.2511333  62.4556043
  58.3157140  69.9623018  62.1501342  59.5108291  73.8337204  62.9852273
  59.0368245  73.3078966  63.4957584  59.8826427  73.2866677  62.4167134
  59.4958180  73.6753200  62.9767420  49.8881321  75.8308710  68.3535819
  50.7506934  75.7304420  68.2673148  49.5573104  75.2503420  67.7921391
  49.9666517  75.7300337  68.2581225  65.7745021  78.8939579  64.3959053
  65.5343244  78.0545995  64.4001480  66.2537029  78.9739746  65.1199827
  65.8097205  78.7820979  64.5033856  61.4391791  74.7273758  56.0478027
  60.9114809  74.8102502  55.3583736  61.8987499  75.4691630  56.0442671
  61.4293641  74.8494421  55.9452722  67.7750208  75.6741037  62.3488312
  67.5359978  75.6336871  61.5109097  67.9384110  76.5212189  62.4754034
  67.7640512  75.7933122  62.2441794  64.3796239  80.0590986  68.2793358
  65.1030437  79.6063512  68.1004378  64.1146201  80.3395652  67.4965686
  64.4477512  80.0341954  68.1372073  53.2483107  74.6551159  65.0146237
  52.6236177  74.6669551  64.4072190  52.9128702  75.1311335  65.6637477
  53.1068599  74.7269676  65.0202805  53.4324856  72.9976278  51.0718922
  53.0837660  73.6496003  51.5350471  52.9521302  72.9833391  50.3442793
  53.3095100  73.0919332  51.0330013  49.9608783  82.7151620  66.4550001
  49.4308707  82.0244059  66.5044976  50.2333876  82.7061805  65.6262710
  49.9233505  82.6118751  66.3397417  60.9928873  83.2977322  55.1787684
  61.7163072  83.7635435  55.0352257  60.5529464  83.3650932  54.4285281
  61.0344565  83.3761159  55.0472465  60.1615028  80.1574864  66.4288373
  59.5472021  79.6132914  66.7237008  60.6782313  79.6439101  65.9494189
  60.1470691  80.0011273  66.4012601  59.4011325  81.2279134  64.1632671
  58.9738933  80.6028853  63.7298107  59.3936270  80.9454056  64.9891679
  59.3370466  81.0931915  64.2212499  52.5173852  76.2644307  67.2321105
  52.6767339  75.5087631  67.6372827  52.3366746  76.8135247  67.8861843
  52.5139211  76.2338121  67.3883811  60.4594155  68.4305543  67.7871895
  59.9634717  68.6269217  67.0963462  61.2163217  68.8298211  67.6160696
  60.4980980  68.5183277  67.6592032  57.7297035  72.1047889  64.3775205
  57.7539522  71.5708001  63.6887985  57.9808509  71.5965198  65.0400796
  57.7706954  71.9508793  64.3739850  45.2404625  79.3879384  63.8118349
  45.1348074  79.3426228  62.9470433  44.4904845  79.7333164  64.0932634
  45.1140228  79.4320292  63.7255679  54.0098357  70.8318707  63.7580950
  54.0496729  71.3327914  64.4715657  53.1848022  70.9229101  63.4886873
  53.8937883  70.9200523  63.8231488  56.1927970  80.3979447  71.8601244
  55.3423601  80.5351161  71.9958889  56.3556098  79.6643225  72.3048946
  56.0911834  80.3093548  71.9456843  55.4312721  77.3479217  66.0554849
  54.6004650  77.5153035  65.8490097  55.3764238  76.9715168  66.8403734
  55.3002135  77.3168948  66.1403377  53.2396504  70.8388110  71.6911259
  53.8649207  70.2950243  71.9640692  52.7846984  70.3583027  71.1219050
  53.2644764  70.6877591  71.6472853  53.8048764  75.6234808  56.5844966
  53.9451725  76.1207273  57.2873608  54.3031297  74.9221103  56.7259180
  53.8989845  75.5936787  56.7096545  53.8348987  76.4901919  53.9137543
  54.4694066  77.0862344  53.8487005  53.9174598  76.1905377  54.7283413
  53.9405538  76.5342828  54.0240630  66.8131553  79.0217397  66.7823907
  67.4049393  79.6614647  66.8142105  67.2490547  78.3240433  67.0715974
  66.9649984  79.0135747  66.8304740  55.4127970  72.4215895  53.8882985
  55.7343811  71.9418977  53.2342248  55.6754913  73.2315541  53.6973797
  55.4993995  72.4705793  53.7638477  58.6424942  83.4434769  67.4081801
  58.1350034  83.9970616  67.8522432  58.3451589  83.5043059  66.5900576
  58.5229827  83.5341080  67.3530258  60.8087125  71.8088089  66.2506464
  61.2342196  71.3560615  65.6389991  60.1944118  71.2548159  66.5271252
  60.7815770  71.6602065  66.2011490  50.3401975  78.6869760  57.1827089
  50.8494204  79.2834268  57.5638395  50.8136247  78.4195734  56.5003509
  50.4845350  78.7355576  57.1381612  61.2532723  87.3598027  55.3385745
  60.5362032  87.1858889  54.8732982  61.9039460  87.1250599  54.8061231
  61.2434573  87.2993819  55.1914963  59.2481347  68.2803189  59.6597041
  58.6049665  68.1300835  60.2282180  58.9080754  68.0345534  58.8946146
  59.1026425  68.2215311  59.6300056  63.8380694  76.2362615  59.0827050
  63.1671884  76.7792318  58.9540115  64.5320444  76.7057471  58.8408745
  63.8409561  76.3860887  59.0282578  57.8867428  88.3759327  64.3138808
  57.6633082  87.6178157  64.6822835  57.3977271  88.4057349  63.5919248
  57.7810877  88.2681552  64.2615549  64.0008821  72.6918499  61.9917423
  64.3536431  72.2648222  62.6663222  63.1423623  72.6069343  62.1218499
  63.9258266  72.6163240  62.1112434  52.6992506  75.3226019  60.0500270
  51.9804496  75.7390151  60.3173133  53.0704869  75.8880258  59.4991908
  52.6484438  75.4675300  60.0083077  61.9992087  75.9553868  65.9402265
  61.9790015  75.7737163  66.7937044  62.0471288  76.8265886  65.9161849
  62.0026728  76.0570406  66.0625560  59.9438417  82.5441060  71.8650742
  59.9034272  81.8990737  71.2795898  60.7561735  82.4877677  72.1776154
  60.0581571  82.4400026  71.8247691  56.5345885  88.5959786  61.7675893
  56.1206283  87.9333916  61.3779734  57.2193259  88.7437644  61.2471587
  56.5744256  88.5200444  61.6332390  59.9011179  87.7549871  62.5199509
  59.5027462  87.8652141  61.7520330  59.2862398  87.9631937  63.1026069
  59.7510068  87.8023439  62.4930809  58.4739081  74.3624019  55.3873649
  57.8803920  74.6841015  54.8358216  58.5114358  73.5165114  55.1794755
  58.3913470  74.2848347  55.2756420  65.4332882  67.8136911  62.9201736
  64.9263746  67.1066050  62.8522913  66.2300315  67.4830100  63.0502812
  65.4760121  67.6610062  62.9300731  61.3496897  74.3203523  58.8175399
  61.1210590  74.3436225  57.9753758  61.6094974  73.4960990  58.9370410
  61.3543085  74.2019603  58.7100597  55.6316126  76.1737996  68.4200500
  55.1195029  75.5659179  68.7785531  55.4595622  76.8894589  68.8874475
  55.5305763  76.1901295  68.5416723  50.4781841  74.6175571  71.0702861
  50.3084431  75.2776946  70.5251068  50.0347790  74.8282133  71.7915350
  50.3881174  74.7461554  71.0964491  54.4041660  72.8580069  60.1129595
  54.8799026  73.2197149  59.4779776  53.9030259  73.5136537  60.3929738
  54.4007019  73.0074258  60.0606336  67.6353021  82.3301837  55.9042600
  68.0186627  83.0793194  56.1340697  66.8397135  82.5767657  55.6454589
  67.5746804  82.4771531  55.9000174  59.5085196  74.0962241  70.8602755
  60.0656626  73.8676050  70.2281221  59.1846261  74.8567906  70.5837967
  59.5431606  74.1746078  70.7259252  47.3783905  77.5222437  66.3291351
  46.8310624  76.8523083  66.4472219  48.1676283  77.1552285  66.3934818
  47.4136089  77.3687423  66.3560052  57.2268313  77.1829894  71.8254762
  57.9779640  77.4981571  72.1394316  57.4190890  76.9809065  70.9988684
  57.3659728  77.1997276  71.7498158  56.4468313  75.0021269  53.4802979
  56.8267278  75.0200898  52.6954094  55.7060909  75.4475258  53.3593826
  56.3937151  75.0703044  53.3466547  64.0753604  73.3103460  59.0678558
  64.0747830  73.1552117  59.9262834  63.8709784  74.1566447  59.0119943
  64.0453381  73.4124081  59.1866497  46.1370874  76.7343245  63.4837374
  45.9592636  76.2819854  64.2092290  45.8489897  77.5369406  63.6675852
  46.0683828  76.7865803  63.6180877  61.7994456  77.9900962  62.7214765
  62.2948121  77.2723957  62.6818785  60.9894231  77.6871760  62.6069251
  61.7538349  77.8398608  62.6988490  57.2453067  81.8398775  54.8711769
  56.4364390  81.5165449  54.8245078  57.7527976  81.1331998  54.8040018
  57.2002734  81.6880092  54.8542063  47.8743344  79.2670969  60.5959133
  47.0088864  79.2556659  60.4841904  47.9742160  79.0801191  61.4430273
  47.7617511  79.2377030  60.7048078  63.8646274  80.7404650  65.4091893
  64.2901346  80.2179072  64.8562318  63.5003194  81.3385487  64.8880516
  63.8732877  80.7514877  65.2500903  53.5000354  89.0368867  64.1689239
  53.8146913  89.8505256  64.1767021  53.9093768  88.6519086  64.8371398
  53.6068452  89.0997570  64.2693330  60.4524874  84.4538914  61.7393051
  60.9236052  85.1679177  61.9083036  60.7885052  83.8537664  62.2752920
  60.5719989  84.4710378  61.8425427  62.5401858  86.0640227  73.9185123
  62.6498824  85.2748788  74.2741870  62.8692755  85.9746164  73.1159461
  62.6054264  85.9346080  73.8527514  57.3694369  69.2266385  68.6951146
  57.5022274  68.4297378  69.0232121  57.7539522  69.7532788  69.2749421
  57.4450698  69.1866301  68.8294648  61.0898820  84.2456848  68.5020743
  60.5419766  83.6214732  68.2340809  61.5511849  84.4351120  67.7864823
  61.0766030  84.1815898  68.3571174  60.4426724  66.1496711  65.2932239
  59.6372688  66.0394440  65.6100077  60.3133459  66.2509166  64.4362105
  60.3046857  66.1480381  65.2140279  63.8992685  72.3142203  65.8871936
  63.3155673  72.8151409  65.4749503  64.2196979  71.8071759  65.2536259
  63.8605860  72.3134038  65.7330443  56.4387484  71.2282797  56.1630611
  57.2603178  71.3981110  55.9212305  55.9757135  71.3830058  55.4396908
  56.4918646  71.2764530  56.0202255  55.0282816  69.2225560  66.9429039
  55.5727229  68.8816686  67.5333381  55.0819751  70.0811021  67.0850324
  55.1171935  69.2980819  67.0510913  50.8413374  82.9841976  63.8167847
  51.4458232  82.9437810  63.1881668  50.6340687  83.8313128  63.8471903
  50.9002272  83.1029978  63.7283964  60.6557147  85.2507921  65.0330085
  61.4755520  85.1070887  65.2946380  60.3751224  85.8754120  65.5746522
  60.7353890  85.3218273  65.1518024  46.0764657  81.9676593  63.6866770
  45.9788935  81.1572865  63.9956827  46.8593526  81.9468387  63.3013038
  46.1780793  81.8443683  63.6753633  77.1270797  92.9072772  57.9972961
  77.0964801  93.7617409  58.1691230  77.7252146  92.6068065  58.5559105
  77.2107955  92.9889269  58.1047763  70.3270482  91.9948424  62.7525891
  69.4708377  92.1556922  62.8035008  70.3738135  91.1240487  62.7730952
  70.2069593  91.8899225  62.7631957  64.7111621 101.5311141  58.5163123
  63.9594521 101.1526680  58.2879168  65.1597633 101.5629575  57.7681933
  64.6661288 101.4796749  58.3720625  73.6364198  98.2634949  72.3586347
  74.3430966  97.7686980  72.4873282  73.8252134  98.7044031  71.6289005
  73.7692104  98.2553299  72.2695393  70.1636581 101.9536511  53.9448670
  69.8287950 102.6313432  53.5092892  70.6763452 101.5641822  53.3565542
  70.1902162 101.9961089  53.7935462  69.7040873 103.9050780  59.8859782
  70.0880252 104.4737678  59.3464557  69.6400014 103.1800290  59.4065598
  69.7514300 103.8826243  59.7353644  73.1722303  94.0540467  65.3957543
  73.7178263  94.7325554  65.4551513  73.1139179  93.9127928  64.5359125
  73.2438217  94.1332469  65.2769604  66.2896378 101.5429534  60.7825895
  66.3906741 100.7329887  61.0923023  65.6938123 101.4486480  60.1525574
  66.2168916 101.4094562  60.7352134  74.9487371  95.4825075  56.2691271
  74.8326897  96.2332761  56.6983409  75.7443258  95.2249028  56.5187358
  75.0491961  95.5559921  56.3695362  66.1297117 106.4607123  62.1840751
  66.7734573 106.9020287  62.5736910  66.4553373 105.6560549  62.0971010
  66.2728946 106.4072317  62.2286229  59.4861422  97.5649820  60.4078229
  59.2511606  96.7317472  60.3010498  59.6247063  97.8454486  59.5939430
  59.4717084  97.4833324  60.2720584  61.7851509  89.7335551  63.3062537
  61.1656541  89.1428198  63.1372552  61.6835373  90.3246986  62.6726860
  61.6789185  89.7339633  63.1867526  66.8317697  99.4719098  57.5560613
  67.1533538 100.0124305  56.9521921  67.4789793  98.9015869  57.6882903
  66.9743752  99.4678273  57.4867649  68.8819405  91.4735092  57.6395000
  69.5799570  91.6523220  58.1316463  69.1971738  90.9505432  57.0165389
  69.0314742  91.4228865  57.6197010  61.5120642  93.2787832  65.5506106
  61.3879339  93.8650278  66.1855925  62.1638927  92.7848028  65.8518381
  61.5894292  93.2926637  65.6892035  69.0707340  97.8605538  57.6274791
  69.5100976  97.2522638  58.0729564  68.9212003  97.4812911  56.8560256
  69.1128806  97.7144009  57.5793959  66.5378983  96.4549549  64.8293617
  67.1827986  95.9621992  64.5104565  66.7780760  96.5974336  65.6559695
  66.6689568  96.4026992  64.9043150  69.0765075  99.3004455  64.4800509
  69.3588318  98.5055861  64.2587265  69.8051235  99.7785043  64.5005570
  69.2254638  99.2539052  64.4503525  67.0546269  86.8427489  61.7216275
  66.7249599  87.2938633  61.0519973  66.3791270  86.7643653  62.2689281
  66.9056705  86.8978624  61.7039498  72.6716677  96.2132719  54.5805561
  72.5867972  97.0693685  54.7255129  73.1601060  95.9377043  55.2487720
  72.7305574  96.2990040  54.7007642  74.2622676  82.8313012  59.9665885
  73.9476117  83.5216491  60.3986308  73.7449618  82.7757794  59.2651386
  74.1387147  82.9247901  59.9262834  73.6035110  92.8317513  56.0803296
  73.0746582  93.0477147  56.7400602  74.1260130  93.5253651  56.0004265
  73.6023563  92.9660650  56.1658895  79.0583163  98.4063817  61.4536340
  78.2280866  98.6174461  61.6169757  79.0092415  97.5800872  61.1778624
  78.9289898  98.3153424  61.4373706  65.4934718  96.7280730  54.8810764
  64.9091933  97.2330761  55.2876628  65.0904813  96.5023117  54.1407356
  65.3474022  96.7688978  54.8315789  61.0478747 102.4435491  61.6834435
  60.5646325 103.1685981  61.6594019  61.8602065 102.7411621  61.7944593
  61.0969494 102.5937845  61.6961714  67.1192901 101.2367672  64.2884250
  66.6019842 100.8775087  63.6845558  67.8167292 100.7129846  64.2990316
  67.1458482 101.1065360  64.2014508  70.7756493 101.6862486  70.2500423
  70.8639838 101.4988626  71.0978633  71.2046205 101.0399915  69.8505270
  70.8518595 101.5625493  70.3172174  68.3426952 100.9693646  69.2318085
  67.7797787 100.5566255  69.7557746  69.1047976 100.8946551  69.6511228
  68.3721401 100.8971046  69.3711085  69.9511932  92.9746382  53.3579684
  70.1907936  93.1824366  52.5455027  70.2727773  92.1703891  53.4668629
  70.0349090  92.8860483  53.2540237  65.2602223  84.9039778  57.2039222
  66.0148191  85.2718095  56.9656272  65.0829757  85.2779332  57.9718402
  65.3456701  85.0137965  57.2824111  63.9022944 102.9591667  61.8354715
  64.6043523 102.4443656  61.8927472  63.8220427 103.2865818  62.6401590
  63.9946704 102.9305893  61.9627507  78.5537121  91.0534218  65.2486762
  77.7165542  91.1236405  65.4834356  78.5225352  91.0558713  64.3761064
  78.4255404  91.0644445  65.1546310  64.9501850  93.1967254  70.9635130
  65.1222354  93.0873148  71.8120412  65.4871208  93.8421659  70.7266322
  65.0546854  93.2759255  71.0540227  63.6159287  87.3110097  53.9017335
  63.4334861  87.5281977  53.0758328  64.4784900  87.4249109  53.9575950
  63.7163877  87.3599994  53.7871822  63.2273719  99.1498019  61.3440323
  64.0662619  99.3820952  61.3914085  63.2585488  98.2802330  61.2747359
  63.3555437  99.0554965  61.3404968  63.8526422  99.5698894  65.6453629
  64.3924647  99.4270025  66.3157001  63.1696369  99.9695645  66.0137655
  63.8318576  99.6078565  65.7988050  69.2959006  84.3136507  56.9366359
  70.0245167  84.1352462  56.4904515  69.3853899  85.1554587  57.1473537
  69.4165669  84.4120386  56.9019877  73.2767307  95.2489895  60.8398653
  74.0324822  95.6821409  60.8787562  73.3829632  94.5994664  61.4133289
  73.4037478  95.2167378  60.9296679  76.3147478  99.0763172  61.5901056
  75.8782710  99.0799914  62.3460027  75.9810394  99.7568671  61.1580633
  76.2010098  99.1775628  61.6381889  70.8876552 101.1171505  72.9144206
  71.6716969 101.2302352  73.2799948  70.6873146 100.2912642  73.1102892
  70.9742577 101.0118224  72.9978592  59.2563567  95.7899185  65.7988050
  58.9901983  94.9738301  65.9579040  59.2702131  95.8352340  64.9283566
  59.2188290  95.6756090  65.6941532  76.2344961  86.1177000  63.8330484
  76.8770870  86.1875104  64.4192399  76.4867982  85.4506223  63.3310026
  76.3667093  86.0303348  63.8457763  63.1621314  90.5884269  52.4139808
  62.4479491  90.3022449  52.8262241  63.6465283  90.9280895  53.0546196
  63.1280678  90.5965919  52.5695443  64.0062174  89.3277563  68.4455058
  63.3133970  88.8574543  68.6915789  64.6222501  89.1015868  69.0196765
  63.9946704  89.2244695  68.5664211  71.0446945 103.0281607  66.5610662
  70.2462191 102.7881107  66.8184531  71.4932957 103.0796000  67.3077710
  70.9921556 103.0003998  66.7095586  79.4491825  95.7944092  60.4820693
  80.1108259  95.2334760  60.3816602  78.8083236  95.2996122  60.8073384
  79.4520692  95.6380501  60.5153033  70.3368632  99.0914223  52.7901616
  70.7519781  98.7599247  52.0986112  69.5060562  98.8583125  52.6621753
  70.2756641  99.0085479  52.6692464  59.6656981  96.5757964  63.0799794
  59.4832554  96.5504850  62.2272087  60.4006650  97.0456902  63.1188703
  59.7471045  96.6419326  62.9597713  75.7356655  96.8109474  60.2232682
  75.9712244  96.9554673  59.3959533  75.8846219  97.5751882  60.6164196
  75.7922458  96.9448529  60.1596286  62.7302733  93.2942967  69.5881903
  63.4542705  93.2795998  70.0746798  62.8318869  94.0038322  69.0903871
  62.8520942  93.3967670  69.5860690  77.5647112  95.6511140  58.0602286
  77.8955329  96.1838780  57.4542381  78.1380200  95.7050028  58.7164237
  77.6980791  95.7380709  58.0680068  70.1047682  96.7742052  74.4530850
  69.3120663  97.0885564  74.6383470  70.2196609  96.9893520  73.6151635
  70.0043093  96.8525888  74.3569185  72.7779001  93.4976043  58.7425866
  72.8725855  94.2365337  59.1965491  72.1537845  93.0693518  59.1760430
  72.6988031  93.5437363  58.8734013  71.0331475  96.6762255  69.3916147
  71.6070337  96.0389500  69.5464711  70.9546279  96.6766338  68.5225804
  71.1064710  96.5827367  69.2862558  59.6327891  93.4551465  63.2298861
  60.2101394  93.3187916  63.8691106  58.9341953  92.9987249  63.4844445
  59.6148913  93.3673731  63.3621151  73.0302022  95.3424783  51.9762818
  72.9482185  95.4126970  52.8417805  73.6681743  95.9054527  51.7846559
  73.1121860  95.4363754  52.0752767  66.3895194  95.1085521  61.4437344
  66.1314438  94.2757255  61.4168644  66.4443676  95.3343134  60.6029845
  66.3594971  95.0183292  61.3157481  71.4696244  87.2113971  61.5441437
  70.7652570  86.7223157  61.7025356  71.5181218  87.2236446  60.6729881
  71.3726295  87.1403619  61.4380777  65.3629906  92.6623283  61.9302239
  64.7879497  92.8215451  62.5666200  64.9865582  92.0258692  61.4670690
  65.2232718  92.5921096  61.9556797  69.0303194  91.1346632  66.7894617
  68.6417627  90.7100850  66.1346809  68.3657893  91.3828782  67.2971644
  68.8750122  91.1085353  66.7682485  78.6726463  90.8921637  59.5642447
  78.4163028  90.0801578  59.3740330  79.5155777  90.8999204  59.3372635
  78.7592489  90.7733634  59.5027265  55.1086725  92.3063358  59.9446680
  55.1946976  91.9295226  60.7260210  55.7362522  91.9323803  59.4666638
  55.2143276  92.1948840  59.9892157  72.8529556  84.8321261  64.3018602
  73.2340068  84.1499432  64.6886476  72.0492840  84.5430863  64.1194266
  72.7906018  84.6888310  64.3322658  70.1342133  95.3645237  54.9871424
  70.9482771  95.6560130  54.8754196  70.0701274  94.7105099  54.4129717
  70.2444872  95.3110432  54.8860262  76.3551623  98.0471233  69.4001000
  76.1190260  97.2159298  69.2813061  76.9994852  97.9956840  69.9855844
  76.4146294  97.9168921  69.4686894  66.0050041  98.8366754  60.1143736
  66.6423988  98.5978502  60.6595530  66.4305112  99.0403913  59.3796897
  66.1626207  98.8317765  60.0860894  60.6962683 101.0755091  63.9978040
  60.7366829 101.3469942  63.1697820  61.2557207 101.5996999  64.4135828
  60.7846029 101.1930846  63.9369928  66.6452856  94.0569044  54.4518626
  67.0298009  93.8376751  55.2035171  66.3964476  94.8831990  54.5819702
  66.6654928  94.1467190  54.5819702  66.8121396  87.3375459  74.1681210
  66.4974837  88.1075022  73.9050773  66.4911329  86.7745715  73.5833437
  66.7180315  87.3685728  74.0422560  77.3788043  97.8315682  65.4629295
  77.0733860  98.5643739  65.8242610  76.6594259  97.4253611  65.1822081
  77.2275386  97.8797415  65.4742432  68.3871513  99.3139177  61.7937523
  68.4610521  99.1514349  62.6479373  69.2041019  99.5029367  61.5498004
  68.5187871  99.3175919  61.8835548  83.0789836  94.4708682  64.7897639
  83.0114336  94.4904642  63.9200225  83.0645498  95.3139010  65.0153309
  83.0668592  94.5982417  64.6950116  62.1477269  99.6597040  58.8231966
  61.3215387  99.9058777  58.6966245  62.2089261  99.5809121  59.6894024
  62.0351436  99.6841989  58.9320911  64.3653293  85.7265981  59.7827406
  63.4975719  85.7988580  59.8485016  64.6528498  86.5288060  59.9715381
  64.2793041  85.8560128  59.8202173  73.4886182  85.8743840  68.1138728
  74.2339774  85.6853651  67.7002154  73.0723487  86.4002078  67.5552585
  73.5371156  85.9245986  67.9703301  66.9276098 102.2773920  56.5250996
  67.2174397 101.8862901  55.8010223  67.6579579 102.4590625  56.9656271
  67.0782983 102.2467734  56.4833803  80.8648453  93.2453069  63.0644233
  81.4156374  92.6121138  63.3041325  80.8492568  93.7768461  63.7559737
  80.9433649  93.2302017  63.2023091  67.5170844  97.0791666  67.6104127
  67.0182537  97.7907434  67.6889015  68.3271068  97.3992333  67.5722289
  67.5626950  97.2318515  67.6160695  64.8682014 104.2541302  59.5911146
  64.6482310 103.9638657  60.3837813  64.6476536 103.5956257  59.0629058
  64.8029608 104.1141011  59.6300055  63.7798961  96.3414619  61.8566848
  63.4912210  95.7152090  62.3912575  64.6482309  96.2834906  61.9231528
  63.8659213  96.2402163  61.9457802  74.5676859  91.4849402  62.1748829
  74.2241625  90.7639738  62.5256079  74.6669902  91.2763254  61.3327188
  74.5318902  91.3473606  62.1020509  67.0349970 105.6270692  58.3741838
  67.6874028 105.0947135  58.6032864  66.3375579 105.2739345  58.7609712
  67.0280688 105.4960215  58.4654006  63.9831235  97.9809870  57.7809213
  64.7377203  98.3622909  57.9944675  63.3901847  98.4321014  58.2355909
  64.0067948  98.1038697  57.8792091  75.0289888  97.9475106  57.7172818
  75.5947921  98.6068316  57.6331360  74.3817792  98.2924804  58.1889220
  75.0168645  98.0957048  57.7745574  66.4437902  89.9372710  72.9066425
  65.6337677  90.2430490  72.7956267  66.9212588  90.6578293  73.0219009
  66.3941380  90.0887312  72.9073496  65.3029461  99.1518431  63.1549328
  64.7810215  99.2918723  63.8401193  65.6903482  98.3929096  63.3451445
  65.2833162  99.0603955  63.2850404  62.2920645  89.2024240  57.2244283
  62.0045441  88.8325511  56.4876230  62.9791114  89.6719095  56.9627988
  62.3509543  89.2171209  57.0759358  71.4996466 100.8913891  57.1409897
  71.2583142 100.1581751  56.7336962  71.6797799 101.4400748  56.4876230
  71.4904090 100.8636282  56.9840120  66.7295787  96.1822450  58.5530819
  66.5338570  96.7897185  57.9591122  66.9530132  95.4890394  58.0722493
  66.7330428  96.1699976  58.3946900  65.1274317  93.0677188  58.6711687
  65.8496969  93.2318346  58.2115493  64.6482310  93.7886853  58.5651027
  65.1638048  93.1975418  58.5877301  73.0867825  89.4040987  64.0508372
  72.2478925  89.4302266  63.8146636  73.1572192  90.0511723  64.6313719
  72.9736218  89.5037113  64.1017489  62.7781934  95.4735261  67.7765827
  63.2903031  95.7519514  67.1274587  62.4918276  96.2124555  68.1428640
  62.8116797  95.6237614  67.7355705  71.5337103  86.3026364  58.7835988
  72.2363456  86.1034112  58.3055946  71.2681291  85.5302306  59.0904832
  71.5983735  86.1589330  58.7581430  76.9625348  94.6108974  61.3369614
  76.8759323  94.7664400  62.1904393  76.5075828  95.2547049  60.9629019
  76.8828605  94.7284729  61.4076721  59.8648840  89.9805453  58.0729564
  59.9664976  90.7831614  58.4010539  60.6604727  89.7792788  57.7752644
  59.9976746  90.0691351  58.0764919  66.2965659  87.5661649  67.8366869
  66.1048856  87.5816784  68.6866292  67.1464255  87.7625324  67.8133524
  66.3941381  87.5976000  67.9590164  60.6812572  90.0952631  65.8150685
  60.5398064  89.2436571  65.9395193  60.9653135  90.1381291  64.9912891
  60.7020418  89.9752381  65.7118309  70.8351164  91.9319721  59.9595174
  70.5885879  91.8515472  60.7931962  71.1636287  91.1473189  59.7657701
  70.8472408  91.8045986  60.0542697  74.7299213  98.6403080  63.7481955
  74.5913572  99.3384126  64.2530697  73.9499211  98.4851737  63.3918137
  74.5942440  98.7203247  63.7708229  73.0677298  94.9399456  70.0004336
  73.0625337  94.0679272  70.0046763  73.7738292  95.1387625  69.5273792
  73.1722302  94.8403330  69.9311372  66.7948192  94.6676440  69.3718157
  66.9391567  95.2477648  68.7361267  67.1423840  95.0452736  70.0768011
  66.8675653  94.8097144  69.3817152  68.9668109  93.8666608  67.1543288
  68.2191423  94.0597622  66.7491566  69.1209634  93.0411827  66.9167410
  68.8790537  93.7731719  67.0588694  65.8675947 102.8579211  66.2379183
  66.0165510 102.2982127  65.5852588  66.6475949 102.9371213  66.6211702
  66.0050040 102.7864777  66.1976133  76.2252586  97.9981334  54.5098454
  75.8459395  97.2118472  54.5027743  75.5618831  98.5468191  54.3670098
  76.0711061  97.9626158  54.4879251  68.3929247 103.0293854  67.5163674
  68.3172918 102.3602665  68.0714463  68.3219106 103.7311642  68.0304341
  68.3709854 103.0338762  67.6740522  69.2069886  87.7617159  68.0438692
  69.6642500  88.4941133  68.1711484  69.2826215  87.3383624  68.8025948
  69.2860856  87.8074397  68.1739768  61.4502877  88.0082978  69.1328136
  60.9145067  87.3963337  69.4488903  61.5120642  88.5831114  69.7861802
  61.3798510  88.0029906  69.2763562  73.6797212  80.9407034  61.9132535
  73.7980780  81.3983497  61.1799838  73.5059388  80.1352295  61.6268753
  73.6716383  80.8900806  61.7633469  69.0499494 101.5494853  58.3487280
  69.8149385 101.2804497  58.0269945  68.9477584 101.0644863  59.0657343
  69.1480990 101.4384418  58.4067108  67.0852264  89.7519263  64.8880516
  66.2948339  89.5710723  65.2097852  67.4812887  88.9746215  64.8710810
  67.0269140  89.6106723  64.9333064  71.5718155  98.5807037  50.3287230
  72.3391140  98.6407162  49.9193081  71.1249464  98.0087478  49.8443548
  71.6191582  98.5043613  50.1964940  72.4695950  97.3861693  62.6139962
  71.7940952  97.1546925  63.1153349  72.4788326  96.7782876  61.9882067
  72.3714455  97.2620618  62.5956114  69.5990094  92.2279522  69.3704015
  69.5349235  93.0889478  69.2424152  69.7387282  91.9111515  68.5699566
  69.6105564  92.3079688  69.2332228  74.4712685 100.2426825  54.8450140
  74.5532522 101.0493811  54.5211591  74.9562427 100.2622784  55.5690913
  74.5549843 100.3647487  54.9037038  68.2809188  94.9211661  63.5120218
  67.8571437  95.1216160  62.7759236  68.1054043  94.0740509  63.6244518
  68.1920069  94.8260442  63.4193908  67.7820882 106.4362174  65.9741675
  68.2716812 105.7372963  65.7917340  67.2105114 106.1386044  66.5617732
  67.7705412 106.2888398  66.0342716  63.5691633  95.4163712  58.9448190
  63.7256252  95.3510515  59.8004182  63.9092226  96.1912265  58.7326870
  63.6424868  95.5212911  59.0402784  70.1070778  94.7921596  57.8141554
  70.6486323  94.2891977  58.2780174  70.4217337  94.7386791  57.0031039
  70.2335175  94.7101017  57.7625366  73.9787885  99.0024243  74.9268466
  74.7922750  98.7309392  75.0873598  73.8182851  98.7031783  74.1228662
  74.0757834  98.9179169  74.8313872  68.2757227 100.1838948  55.0981582
  68.3450048  99.3253486  55.2374582  69.0545683 100.4010828  54.7700606
  68.4010078 100.0891812  55.0698739  71.2560047  89.6857901  67.8663854
  71.4702017  89.0468815  67.3127208  70.6393946  90.1303724  67.4371716
  71.1965376  89.6568044  67.7214285  72.6664715 102.6076649  59.3118075
  72.2744507 102.3043364  58.5940941  72.8217787 103.4445739  59.1223029
  72.6318305 102.6860486  59.1774572  60.1425895  92.5998663  59.2608958
  60.5224859  93.0183208  58.5969225  59.5681259  93.1812119  59.5677801
  60.1137219  92.7476522  59.2085698  73.4199135  91.2946966  68.8047161
  72.6075817  90.9872856  68.8860334  73.8789070  90.8145966  69.3689873
  73.3679520  91.1783458  68.9001755  72.8304390  99.1726638  59.2524105
  72.4719045  99.3441281  60.0288138  72.3443101  99.6339843  58.6952104
  72.7063087  99.2665609  59.2849375  70.6474776  82.7957836  62.8551197
  69.7768334  82.7696557  62.8084506  70.9015117  82.6235028  62.0377042
  70.5568336  82.7667980  62.7271334  67.6192755  94.8525803  51.7924340
  67.9085280  95.6290686  52.0667914  67.7064554  94.3414535  52.4938839
  67.6747011  94.8917721  51.9366838  70.5152643  92.7007037  73.5875863
  70.9852274  93.3249154  73.9743738  70.5614523  92.0324013  74.1469078
  70.5920518  92.6941717  73.7275935  67.6723916  84.8064065  64.3124667
  67.1562405  84.1144256  64.4376246  67.1117845  85.4734842  64.2587266
  67.5130429  84.8027322  64.3230733  69.7416150  85.3457025  66.1417520
  69.3547903  85.3706056  66.9231050  69.2549087  84.7798703  65.6892036
  69.6128659  85.2652776  66.1905423  73.9909129 100.0630534  70.1991306
  74.6288850  99.5690729  69.8653762  73.3483221  99.9907934  69.6143533
  73.9903356  99.9789542  70.0633661  75.7166129  91.9119680  64.7657222
  75.2893737  91.8246028  64.0105321  75.0792182  92.0197455  65.3512066
  75.5595736  91.9152339  64.7402663  69.4073291  82.2324010  68.4327780
  70.0366409  82.7684310  68.1548850  69.5759154  82.1401369  69.2841345
  69.5251086  82.2985372  68.5176308  69.2087206  87.0195205  70.7054191
  70.0360636  86.7480354  70.7612806  69.2295052  87.8156047  71.0618009
  69.3340056  87.0974959  70.7669374  74.0463386 100.7550342  66.8396663
  74.8355764 100.4039407  66.9598745  74.2206984 101.5686730  66.5773297
  74.1883667 100.8236199  66.8184531  63.7856696  94.1659068  63.8924452
  62.9444703  94.0662942  64.1003346  63.9946704  94.9354548  64.2438773
  63.6921389  94.2651111  63.9751767  61.2632263  91.7878605  61.7209203
  60.8688961  91.8621616  60.9459312  60.7072380  92.1736551  62.2717564
  61.1235075  91.8560379  61.6876862  72.8997210  84.7659899  61.4013082
  73.1046803  84.6982207  62.2470079  72.5723634  85.5718720  61.3334259
  72.8812458  84.8745839  61.5172737  67.5973361  92.0940467  63.1422049
  67.2936499  91.5396455  63.7432457  66.8952782  92.2732677  62.6550084
  67.4489571  92.0385249  63.1591755  66.6539458  89.4040987  57.7066751
  66.9299192  88.6859899  57.2944319  67.2538127  90.0025907  57.4987857
  66.7832723  89.3861357  57.6147512  65.6591712  99.3090188  67.8494147
  65.5512067  99.3192250  68.7156205  65.8687494 100.1344968  67.6599101
  65.6741823  99.4331262  67.9498239  76.1530898  85.3191663  60.8815847
  75.5405211  85.8062065  61.2669579  76.2495072  84.6435154  61.4253498
  76.0768795  85.2909972  61.0194705  70.1549979  87.0754504  55.9813346
  70.6093725  87.2465064  56.7061191  70.6290024  86.4622615  55.5811122
  70.2918299  87.0105389  56.0287108  63.6765504  96.5602830  65.3116085
  63.0853437  97.2012328  65.2819100  64.4386528  96.9840447  65.2847384
  63.7013765  96.7178668  65.3031232  64.0726127  87.7204828  65.9784102
  64.5327608  87.7943757  66.7159226  64.1182234  88.5186082  65.6283924
  64.1476682  87.8498975  66.0356859  65.7209477  88.3871523  70.5456130
  65.3295042  87.7404870  70.9811907  65.8895339  88.9782958  71.1650385
  65.6880387  88.3785790  70.7018836  79.7955926  96.3908600  66.3093363
  79.8539049  96.8395248  67.0553340  79.1622393  96.8007412  65.8723443
  79.7107221  96.5182334  66.3545911  73.4355020 102.0112142  62.7448109
  73.2374709 102.5002956  62.0504321  72.8142731 102.2153383  63.3232243
  73.3142585 102.1128680  62.7271333  67.4962999  93.7797038  57.0858354
  68.2405044  94.1671315  57.3241303  67.6423695  92.9354464  57.2498841
  67.6273584  93.7127511  57.1452323  69.4142574  85.5747297  62.1190215
  68.5678619  85.7470105  61.9931565  69.4113707  84.7696641  62.4556043
  69.2889724  85.4808326  62.1501342  70.4840874  89.3522512  62.9852273
  70.0100829  88.8264274  63.4957584  70.8559010  88.8051985  62.4167134
  70.4690763  89.1938508  62.9767420  60.8613905  91.3494018  68.3535819
  61.7239518  91.2489728  68.2673148  60.5305688  90.7688728  67.7921391
  60.9399101  91.2485645  68.2581225  76.7477605  94.4124887  64.3959053
  76.5075828  93.5731303  64.4001480  77.2269612  94.4925054  65.1199827
  76.7829789  94.3006287  64.5033856  72.4124374  90.2459066  56.0478027
  71.8847393  90.3287810  55.3583736  72.8720082  90.9876938  56.0442671
  72.4026225  90.3679729  55.9452722  78.7482792  91.1926345  62.3488312
  78.5092562  91.1522179  61.5109097  78.9116693  92.0397497  62.4754034
  78.7373096  91.3118430  62.2441794  75.3528822  95.5776294  68.2793358
  76.0763021  95.1248820  68.1004378  75.0878785  95.8580960  67.4965686
  75.4210095  95.5527262  68.1372073  64.2215691  90.1736467  65.0146237
  63.5968761  90.1854859  64.4072190  63.8861285  90.6496643  65.6637477
  64.0801182  90.2454984  65.0202805  64.4057439  88.5161586  51.0718922
  64.0570244  89.1681311  51.5350471  63.9253885  88.5018699  50.3442793
  64.2827683  88.6104639  51.0330013  60.9341366  98.2336928  66.4550001
  60.4041291  97.5429366  66.5044976  61.2066459  98.2247113  65.6262710
  60.8966088  98.1304059  66.3397417  71.9661457  98.8162630  55.1787684
  72.6895656  99.2820743  55.0352257  71.5262048  98.8836239  54.4285281
  72.0077149  98.8946467  55.0472465  71.1347612  95.6760172  66.4288373
  70.5204605  95.1318222  66.7237008  71.6514897  95.1624409  65.9494189
  71.1203274  95.5196581  66.4012601  70.3743909  96.7464442  64.1632671
  69.9471517  96.1214161  63.7298107  70.3668853  96.4639364  64.9891679
  70.3103050  96.6117223  64.2212499  63.4906436  91.7829615  67.2321105
  63.6499923  91.0272939  67.6372827  63.3099330  92.3320555  67.8861843
  63.4871795  91.7523429  67.3883811  71.4326739  83.9490851  67.7871895
  70.9367300  84.1454525  67.0963462  72.1895801  84.3483519  67.6160696
  71.4713564  84.0368585  67.6592032  68.7029619  87.6233197  64.3775205
  68.7272106  87.0893309  63.6887985  68.9541092  87.1150506  65.0400796
  68.7439537  87.4694101  64.3739850  56.2137208  94.9064692  63.8118349
  56.1080657  94.8611536  62.9470433  55.4637428  95.2518472  64.0932634
  56.0872811  94.9505600  63.7255679  64.9830941  86.3504015  63.7580950
  65.0229312  86.8513222  64.4715657  64.1580605  86.4414409  63.4886873
  64.8670467  86.4385831  63.8231488  67.1660554  95.9164755  71.8601244
  66.3156184  96.0536469  71.9958889  67.3288681  95.1828533  72.3048946
  67.0644417  95.8278856  71.9456843  66.4045304  92.8664525  66.0554849
  65.5737234  93.0338343  65.8490097  66.3496821  92.4900476  66.8403734
  66.2734719  92.8354256  66.1403377  64.2129087  86.3573418  71.6911259
  64.8381791  85.8135550  71.9640692  63.7579567  85.8768335  71.1219050
  64.2377348  86.2062899  71.6472853  64.7781348  91.1420116  56.5844966
  64.9184309  91.6392581  57.2873608  65.2763881  90.4406411  56.7259180
  64.8722429  91.1122095  56.7096545  64.8081570  92.0087227  53.9137543
  65.4426650  92.6047652  53.8487005  64.8907181  91.7090685  54.7283413
  64.9138121  92.0528135  54.0240630  77.7864136  94.5402705  66.7823907
  78.3781976  95.1799955  66.8142105  78.2223131  93.8425741  67.0715974
  77.9382567  94.5321055  66.8304740  66.3860553  87.9401203  53.8882985
  66.7076394  87.4604285  53.2342248  66.6487497  88.7500849  53.6973797
  66.4726579  87.9891101  53.7638477  69.6157526  98.9620077  67.4081801
  69.1082617  99.5155924  67.8522432  69.3184172  99.0228367  66.5900576
  69.4962411  99.0526388  67.3530258  71.7819708  87.3273397  66.2506464
  72.2074780  86.8745923  65.6389991  71.1676701  86.7733467  66.5271252
  71.7548354  87.1787373  66.2011490  61.3134558  94.2055068  57.1827089
  61.8226788  94.8019576  57.5638395  61.7868831  93.9381042  56.5003509
  61.4577934  94.2540884  57.1381612  72.2265306 102.8783335  55.3385745
  71.5094616 102.7044197  54.8732982  72.8772044 102.6435907  54.8061231
  72.2167157 102.8179127  55.1914963  70.2213931  83.7988497  59.6597041
  69.5782249  83.6486143  60.2282180  69.8813338  83.5530842  58.8946146
  70.0759008  83.7400619  59.6300056  74.8113278  91.7547923  59.0827050
  74.1404467  92.2977626  58.9540115  75.5053028  92.2242779  58.8408745
  74.8142145  91.9046195  59.0282578  68.8600011 103.8944635  64.3138808
  68.6365666 103.1363465  64.6822835  68.3709855 103.9242657  63.5919248
  68.7543460 103.7866860  64.2615549  74.9741405  88.2103807  61.9917423
  75.3269015  87.7833530  62.6663222  74.1156206  88.1254650  62.1218499
  74.8990850  88.1348548  62.1112434  63.6725090  90.8411327  60.0500270
  62.9537079  91.2575459  60.3173133  64.0437452  91.4065565  59.4991908
  63.6217022  90.9860608  60.0083077  72.9724671  91.4739176  65.9402265
  72.9522598  91.2922471  66.7937044  73.0203872  92.3451194  65.9161849
  72.9759312  91.5755714  66.0625560  70.9171001  98.0626368  71.8650742
  70.8766856  97.4176045  71.2795898  71.7294319  98.0062985  72.1776154
  71.0314154  97.9585334  71.8247691  67.5078468 104.1145093  61.7675893
  67.0938867 103.4519224  61.3779734  68.1925842 104.2622952  61.2471587
  67.5476840 104.0385752  61.6332390  70.8743762 103.2735179  62.5199509
  70.4760046 103.3837449  61.7520330  70.2594982 103.4817245  63.1026069
  70.7242652 103.3208747  62.4930809  69.4471664  89.8809327  55.3873649
  68.8536504  90.2026323  54.8358216  69.4846942  89.0350422  55.1794755
  69.3646053  89.8033655  55.2756420  76.4065465  83.3322219  62.9201736
  75.8996330  82.6251358  62.8522913  77.2032899  83.0015408  63.0502812
  76.4492704  83.1795370  62.9300731  72.3229481  89.8388831  58.8175399
  72.0943174  89.8621532  57.9753758  72.5827557  89.0146298  58.9370410
  72.3275669  89.7204911  58.7100597  66.6048709  91.6923304  68.4200500
  66.0927612  91.0844487  68.7785531  66.4328206  92.4079897  68.8874475
  66.5038346  91.7086603  68.5416723  61.4514424  90.1360879  71.0702861
  61.2817014  90.7962254  70.5251068  61.0080374  90.3467441  71.7915350
  61.3613758  90.2646862  71.0964491  65.3774243  88.3765377  60.1129595
  65.8531610  88.7382457  59.4779776  64.8762843  89.0321845  60.3929738
  65.3739602  88.5259566  60.0606336  78.6085605  97.8487145  55.9042600
  78.9919211  98.5978502  56.1340697  77.8129718  98.0952965  55.6454589
  78.5479387  97.9956839  55.9000174  70.4817780  89.6147549  70.8602755
  71.0389210  89.3861358  70.2281221  70.1578845  90.3753214  70.5837967
  70.5164190  89.6931385  70.7259252  58.3516489  93.0407745  66.3291351
  57.8043208  92.3708391  66.4472219  59.1408867  92.6737593  66.3934818
  58.3868672  92.8872731  66.3560052  68.2000897  92.7015202  71.8254762
  68.9512224  93.0166879  72.1394316  68.3923473  92.4994373  70.9988684
  68.3392311  92.7182584  71.7498158  67.4200897  90.5206577  53.4802979
  67.7999861  90.5386206  52.6954094  66.6793493  90.9660566  53.3593826
  67.3669734  90.5888352  53.3466547  75.0486187  88.8288768  59.0678558
  75.0480414  88.6737425  59.9262834  74.8442367  89.6751755  59.0119943
  75.0185965  88.9309389  59.1866497  57.1103458  92.2528553  63.4837374
  56.9325219  91.8005162  64.2092290  56.8222480  93.0554714  63.6675852
  57.0416411  92.3051111  63.6180877  72.7727039  93.5086270  62.7214765
  73.2680704  92.7909265  62.6818785  71.9626815  93.2057068  62.6069251
  72.7270932  93.3583916  62.6988490  68.2185651  97.3584083  54.8711769
  67.4096973  97.0350757  54.8245078  68.7260560  96.6517305  54.8040018
  68.1735317  97.2065400  54.8542063  58.8475928  94.7856277  60.5959133
  57.9821447  94.7741967  60.4841904  58.9474744  94.5986499  61.4430273
  58.7350095  94.7562338  60.7048078  74.8378858  96.2589958  65.4091893
  75.2633930  95.7364379  64.8562318  74.4735778  96.8570795  64.8880516
  74.8465461  96.2700185  65.2500903  64.4732938 104.5554175  64.1689239
  64.7879497 105.3690564  64.1767021  64.8826351 104.1704394  64.8371398
  64.5801036 104.6182878  64.2693330  71.4257457  99.9724222  61.7393051
  71.8968636 100.6864484  61.9083036  71.7617636  99.3722972  62.2752920
  71.5452573  99.9895686  61.8425427  73.5134442 101.5825535  73.9185123
  73.6231408 100.7934096  74.2741870  73.8425339 101.4931471  73.1159461
  73.5786848 101.4531388  73.8527514  68.3426952  84.7451692  68.6951146
  68.4754858  83.9482686  69.0232121  68.7272105  85.2718095  69.2749421
  68.4183281  84.7051609  68.8294648  72.0631404  99.7642156  68.5020743
  71.5152350  99.1400040  68.2340809  72.5244433  99.9536428  67.7864823
  72.0498613  99.7001206  68.3571174  71.4159308  81.6682019  65.2932239
  70.6105271  81.5579748  65.6100077  71.2866043  81.7694474  64.4362105
  71.2779440  81.6665689  65.2140279  74.8725268  87.8327511  65.8871936
  74.2888257  88.3336717  65.4749503  75.1929562  87.3257067  65.2536259
  74.8338443  87.8319346  65.7330443  67.4120067  86.7468105  56.1630611
  68.2335762  86.9166418  55.9212305  66.9489718  86.9015366  55.4396908
  67.4651230  86.7949838  56.0202255  66.0015399  84.7410868  66.9429039
  66.5459812  84.4001994  67.5333381  66.0552335  85.5996329  67.0850324
  66.0904519  84.8166127  67.0510913  61.8145958  98.5027284  63.8167847
  62.4190815  98.4623118  63.1881668  61.6073270  99.3498436  63.8471903
  61.8734855  98.6215286  63.7283964  71.6289730 100.7693229  65.0330085
  72.4488104 100.6256195  65.2946380  71.3483808 101.3939428  65.5746522
  71.7086473 100.8403581  65.1518024  57.0497240  97.4861901  63.6866770
  56.9521518  96.6758173  63.9956827  57.8326110  97.4653694  63.3013038
  57.1513377  97.3628991  63.6753633  88.1003380 108.4258080  57.9972961
  88.0697385 109.2802717  58.1691230  88.6984729 108.1253373  58.5559105
  88.1840538 108.5074577  58.1047763  81.3003065 107.5133731  62.7525891
  80.4440961 107.6742230  62.8035008  81.3470719 106.6425795  62.7730952
  81.1802177 107.4084533  62.7631957  75.6844205 117.0496449  58.5163123
  74.9327105 116.6711988  58.2879168  76.1330217 117.0814883  57.7681933
  75.6393872 116.9982056  58.3720625  84.6096782 113.7820257  72.3586347
  85.3163549 113.2872288  72.4873282  84.7984717 114.2229339  71.6289005
  84.7424687 113.7738607  72.2695393  81.1369165 117.4721819  53.9448670
  80.8020533 118.1498740  53.5092892  81.6496035 117.0827130  53.3565542
  81.1634746 117.5146397  53.7935462  80.6773456 119.4236088  59.8859782
  81.0612836 119.9922986  59.3464557  80.6132597 118.6985598  59.4065598
  80.7246883 119.4011551  59.7353644  84.1454886 109.5725775  65.3957543
  84.6910846 110.2510862  65.4551513  84.0871763 109.4313236  64.5359125
  84.2170801 109.6517777  65.2769604  77.2628961 117.0614841  60.7825895
  77.3639324 116.2515195  61.0923023  76.6670706 116.9671788  60.1525574
  77.1901500 116.9279870  60.7352134  85.9219955 111.0010382  56.2691271
  85.8059481 111.7518069  56.6983409  86.7175842 110.7434336  56.5187358
  86.0224544 111.0745229  56.3695362  77.1029701 121.9792431  62.1840751
  77.7467156 122.4205595  62.5736910  77.4285956 121.1745857  62.0971010
  77.2461529 121.9257625  62.2286229  70.4594006 113.0835128  60.4078229
  70.2244190 112.2502780  60.3010498  70.5979646 113.3639794  59.5939430
  70.4449668 113.0018631  60.2720584  72.7584093 105.2520859  63.3062537
  72.1389125 104.6613506  63.1372552  72.6567957 105.8432294  62.6726860
  72.6521768 105.2524941  63.1867526  77.8050281 114.9904405  57.5560613
  78.1266122 115.5309613  56.9521921  78.4522377 114.4201177  57.6882903
  77.9476336 114.9863581  57.4867649  79.8551989 106.9920400  57.6395000
  80.5532153 107.1708528  58.1316463  80.1704321 106.4690740  57.0165389
  80.0047326 106.9414173  57.6197010  72.4853226 108.7973140  65.5506106
  72.3611923 109.3835586  66.1855925  73.1371510 108.3033336  65.8518381
  72.5626875 108.8111945  65.6892035  80.0439924 113.3790845  57.6274791
  80.4833559 112.7707946  58.0729564  79.8944587 112.9998219  56.8560256
  80.0861390 113.2329317  57.5793959  77.5111567 111.9734857  64.8293617
  78.1560570 111.4807300  64.5104565  77.7513344 112.1159644  65.6559695
  77.6422152 111.9212300  64.9043150  80.0497658 114.8189763  64.4800509
  80.3320901 114.0241169  64.2587265  80.7783819 115.2970351  64.5005570
  80.1987222 114.7724360  64.4503525  78.0278852 102.3612797  61.7216275
  77.6982182 102.8123941  61.0519973  77.3523854 102.2828960  62.2689281
  77.8789288 102.4163932  61.7039498  83.6449261 111.7318027  54.5805561
  83.5600556 112.5878993  54.7255129  84.1333644 111.4562351  55.2487720
  83.7038158 111.8175348  54.7007642  85.2355260  98.3498320  59.9665885
  84.9208701  99.0401799  60.3986308  84.7182202  98.2943102  59.2651386
  85.1119730  98.4433209  59.9262834  84.5767694 108.3502821  56.0803296
  84.0479165 108.5662454  56.7400602  85.0992714 109.0438959  56.0004265
  84.5756147 108.4845958  56.1658895  90.0315747 113.9249125  61.4536340
  89.2013450 114.1359769  61.6169757  89.9824999 113.0986180  61.1778624
  89.9022482 113.8338732  61.4373706  76.4667302 112.2466038  54.8810764
  75.8824517 112.7516069  55.2876628  76.0637397 112.0208425  54.1407356
  76.3206605 112.2874286  54.8315789  72.0211330 117.9620799  61.6834435
  71.5378908 118.6871288  61.6594019  72.8334648 118.2596929  61.7944593
  72.0702078 118.1123153  61.6961714  78.0925484 116.7552980  64.2884250
  77.5752426 116.3960395  63.6845558  78.7899875 116.2315154  64.2990316
  78.1191065 116.6250667  64.2014508  81.7489076 117.2047794  70.2500423
  81.8372422 117.0173934  71.0978633  82.1778789 116.5585223  69.8505270
  81.8251179 117.0810801  70.3172174  79.3159536 116.4878954  69.2318085
  78.7530371 116.0751563  69.7557746  80.0780559 116.4131859  69.6511228
  79.3453985 116.4156354  69.3711085  80.9244516 108.4931690  53.3579684
  81.1640520 108.7009674  52.5455027  81.2460357 107.6889198  53.4668629
  81.0081674 108.4045791  53.2540237  76.2334806 100.4225085  57.2039222
  76.9880774 100.7903403  56.9656272  76.0562341 100.7964640  57.9718402
  76.3189285 100.5323273  57.2824111  74.8755527 118.4776975  61.8354715
  75.5776107 117.9628964  61.8927472  74.7953011 118.8051126  62.6401590
  74.9679288 118.4491201  61.9627507  89.5269705 106.5719526  65.2486762
  88.6898126 106.6421713  65.4834356  89.4957936 106.5744021  64.3761064
  89.3987987 106.5829753  65.1546310  75.9234434 108.7152562  70.9635130
  76.0954938 108.6058456  71.8120412  76.4603792 109.3606967  70.7266322
  76.0279438 108.7944563  71.0540227  74.5891871 102.8295404  53.9017335
  74.4067444 103.0467285  53.0758328  75.4517484 102.9434417  53.9575950
  74.6896460 102.8785302  53.7871822  74.2006303 114.6683327  61.3440323
  75.0395202 114.9006260  61.3914085  74.2318072 113.7987638  61.2747359
  74.3288020 114.5740273  61.3404968  74.8259006 115.0884202  65.6453629
  75.3657231 114.9455333  66.3157001  74.1428952 115.4880953  66.0137655
  74.8051160 115.1263873  65.7988050  80.2691590  99.8321815  56.9366359
  80.9977751  99.6537770  56.4904515  80.3586483 100.6739895  57.1473537
  80.3898252  99.9305694  56.9019877  84.2499891 110.7675203  60.8398653
  85.0057406 111.2006717  60.8787562  84.3562215 110.1179972  61.4133289
  84.3770061 110.7352686  60.9296679  87.2880062 114.5948480  61.5901056
  86.8515294 114.5985222  62.3460027  86.9542977 115.2753979  61.1580633
  87.1742682 114.6960936  61.6381889  81.8609135 116.6356813  72.9144206
  82.6449552 116.7487660  73.2799948  81.6605730 115.8097950  73.1102892
  81.9475161 116.5303532  72.9978592  70.2296151 111.3084493  65.7988050
  69.9634566 110.4923609  65.9579040  70.2434715 111.3537648  64.9283566
  70.1920873 111.1941398  65.6941532  87.2077545 101.6362308  63.8330484
  87.8503453 101.7060412  64.4192399  87.4600565 100.9691531  63.3310026
  87.3399677 101.5488656  63.8457763  74.1353898 106.1069577  52.4139808
  73.4212075 105.8207757  52.8262241  74.6197867 106.4466203  53.0546196
  74.1013261 106.1151227  52.5695443  74.9794757 104.8462871  68.4455058
  74.2866554 104.3759851  68.6915789  75.5955085 104.6201176  69.0196765
  74.9679287 104.7430003  68.5664211  82.0179529 118.5466915  66.5610662
  81.2194775 118.3066415  66.8184531  82.4665540 118.5981308  67.3077710
  81.9654140 118.5189306  66.7095586  90.4224408 111.3129400  60.4820693
  91.0840842 110.7520068  60.3816602  89.7815820 110.8181430  60.8073384
  90.4253276 111.1565809  60.5153033  81.3101216 114.6099531  52.7901616
  81.7252364 114.2784555  52.0986112  80.4793145 114.3768433  52.6621753
  81.2489225 114.5270787  52.6692464  70.6389565 112.0943272  63.0799794
  70.4565138 112.0690158  62.2272087  71.3739234 112.5642210  63.1188703
  70.7203628 112.1604634  62.9597713  86.7089239 112.3294782  60.2232682
  86.9444828 112.4739981  59.3959533  86.8578802 113.0937190  60.6164196
  86.7655042 112.4633836  60.1596286  73.7035316 108.8128275  69.5881903
  74.4275289 108.7981306  70.0746798  73.8051453 109.5223630  69.0903871
  73.8253525 108.9152978  69.5860690  88.5379696 111.1696448  58.0602286
  88.8687913 111.7024088  57.4542381  89.1112784 111.2235336  58.7164237
  88.6713375 111.2566017  58.0680068  81.0780266 112.2927360  74.4530850
  80.2853246 112.6070871  74.6383470  81.1929193 112.5078828  73.6151635
  80.9775676 112.3711196  74.3569185  83.7511585 109.0161351  58.7425866
  83.8458439 109.7550645  59.1965491  83.1270428 108.5878826  59.1760430
  83.6720615 109.0622671  58.8734013  82.0064058 112.1947563  69.3916147
  82.5802920 111.5574808  69.5464711  81.9278862 112.1951646  68.5225804
  82.0797293 112.1012675  69.2862558  70.6060475 108.9736773  63.2298861
  71.1833978 108.8373224  63.8691106  69.9074537 108.5172557  63.4844445
  70.5881496 108.8859039  63.3621151  84.0034606 110.8610091  51.9762818
  83.9214768 110.9312278  52.8417805  84.6414326 111.4239834  51.7846559
  84.0854443 110.9549062  52.0752767  77.3627777 110.6270828  61.4437344
  77.1047021 109.7942563  61.4168644  77.4176260 110.8528441  60.6029845
  77.3327555 110.5368600  61.3157481  82.4428827 102.7299279  61.5441437
  81.7385154 102.2408465  61.7025356  82.4913802 102.7421754  60.6729881
  82.3458879 102.6588927  61.4380777  76.3362489 108.1808591  61.9302239
  75.7612081 108.3400759  62.5666200  75.9598166 107.5444000  61.4670690
  76.1965302 108.1106404  61.9556797  80.0035778 106.6531940  66.7894617
  79.6150211 106.2286158  66.1346809  79.3390476 106.9014090  67.2971644
  79.8482706 106.6270661  66.7682485  89.6459047 106.4106945  59.5642447
  89.3895612 105.5986886  59.3740330  90.4888361 106.4184512  59.3372635
  89.7325072 106.2918942  59.5027265  66.0819308 107.8248666  59.9446680
  66.1679560 107.4480534  60.7260210  66.7095106 107.4509111  59.4666638
  66.1875859 107.7134148  59.9892157  83.8262139 100.3506569  64.3018602
  84.2072651  99.6684740  64.6886476  83.0225424 100.0616171  64.1194266
  83.7638601 100.2073617  64.3322658  81.1074716 110.8830545  54.9871424
  81.9215355 111.1745438  54.8754196  81.0433857 110.2290407  54.4129717
  81.2177455 110.8295740  54.8860262  87.3284206 113.5656541  69.4001000
  87.0922844 112.7344606  69.2813061  87.9727435 113.5142148  69.9855844
  87.3878877 113.4354229  69.4686894  76.9782624 114.3552062  60.1143736
  77.6156571 114.1163810  60.6595530  77.4037696 114.5589221  59.3796897
  77.1358791 114.3503072  60.0860894  71.6695267 116.5940399  63.9978040
  71.7099412 116.8655250  63.1697820  72.2289791 117.1182307  64.4135828
  71.7578613 116.7116154  63.9369928  77.6185439 109.5754352  54.4518626
  78.0030592 109.3562059  55.2035171  77.3697060 110.4017297  54.5819702
  77.6387512 109.6652498  54.5819702  77.7853980 102.8560767  74.1681210
  77.4707421 103.6260330  73.9050773  77.4643912 102.2931023  73.5833437
  77.6912899 102.8871036  74.0422560  88.3520627 113.3500990  65.4629295
  88.0466444 114.0829047  65.8242610  87.6326843 112.9438919  65.1822081
  88.2007969 113.3982723  65.4742432  79.3604096 114.8324485  61.7937523
  79.4343105 114.6699657  62.6479373  80.1773603 115.0214674  61.5498004
  79.4920455 114.8361227  61.8835548  94.0522419 109.9893990  64.7897639
  93.9846919 110.0089950  63.9200225  94.0378082 110.8324318  65.0153309
  94.0401176 110.1167725  64.6950116  73.1209853 115.1782348  58.8231966
  72.2947971 115.4244085  58.6966245  73.1821844 115.0994429  59.6894024
  73.0084020 115.2027297  58.9320911  75.3385877 101.2451289  59.7827406
  74.4708302 101.3173888  59.8485016  75.6261081 102.0473368  59.9715381
  75.2525625 101.3745436  59.8202173  84.4618766 101.3929148  68.1138728
  85.2072358 101.2038958  67.7002154  84.0456070 101.9187386  67.5552585
  84.5103740 101.4431293  67.9703301  77.9008682 117.7959228  56.5250996
  78.1906980 117.4048209  55.8010223  78.6312163 117.9775933  56.9656271
  78.0515566 117.7653042  56.4833803  91.8381036 108.7638377  63.0644233
  92.3888958 108.1306446  63.3041325  91.8225152 109.2953769  63.7559737
  91.9166233 108.7487325  63.2023091  78.4903427 112.5976974  67.6104127
  77.9915121 113.3092742  67.6889015  79.3003652 112.9177640  67.5722289
  78.5359534 112.7503822  67.6160695  75.8414598 119.7726610  59.5911146
  75.6214893 119.4823965  60.3837813  75.6209120 119.1141565  59.0629058
  75.7762192 119.6326319  59.6300055  74.7531545 111.8599927  61.8566848
  74.4644793 111.2337398  62.3912575  75.6214893 111.8020214  61.9231528
  74.8391797 111.7587471  61.9457802  85.5409443 107.0034710  62.1748829
  85.1974209 106.2825045  62.5256079  85.6402485 106.7948561  61.3327188
  85.5051485 106.8658914  62.1020509  78.0082553 121.1456000  58.3741838
  78.6606611 120.6132443  58.6032864  77.3108162 120.7924653  58.7609712
  78.0013271 121.0145523  58.4654006  74.9563818 113.4995178  57.7809213
  75.7109786 113.8808217  57.9944675  74.3634431 113.9506322  58.2355909
  74.9800532 113.6224005  57.8792091  86.0022472 113.4660414  57.7172818
  86.5680504 114.1253624  57.6331360  85.3550375 113.8110112  58.1889220
  85.9901228 113.6142356  57.7745574  77.4170485 105.4558018  72.9066425
  76.6070261 105.7615798  72.7956267  77.8945172 106.1763601  73.0219009
  77.3673964 105.6072619  72.9073496  76.2762045 114.6703739  63.1549328
  75.7542798 114.8104031  63.8401193  76.6636065 113.9114404  63.3451445
  76.2565746 114.5789263  63.2850404  73.2653229 104.7209548  57.2244283
  72.9778025 104.3510818  56.4876230  73.9523697 105.1904403  56.9627988
  73.3242126 104.7356517  57.0759358  82.4729050 116.4099199  57.1409897
  82.2315726 115.6767059  56.7336962  82.6530383 116.9586056  56.4876230
  82.4636674 116.3821590  56.9840120  77.7028370 111.7007758  58.5530819
  77.5071153 112.3082493  57.9591122  77.9262716 111.0075702  58.0722493
  77.7063011 111.6885284  58.3946900  76.1006900 108.5862496  58.6711687
  76.8229552 108.7503654  58.2115493  75.6214893 109.3072161  58.5651027
  76.1370631 108.7160726  58.5877301  84.0600408 104.9226295  64.0508372
  83.2211509 104.9487574  63.8146636  84.1304775 105.5697030  64.6313719
  83.9468802 105.0222421  64.1017489  73.7514517 110.9920569  67.7765827
  74.2635614 111.2704822  67.1274587  73.4650860 111.7309863  68.1428640
  73.7849380 111.1422922  67.7355705  82.5069686 101.8211672  58.7835988
  83.2096039 101.6219420  58.3055946  82.2413875 101.0487614  59.0904832
  82.5716319 101.6774638  58.7581430  87.9357932 110.1294282  61.3369614
  87.8491906 110.2849708  62.1904393  87.4808412 110.7732357  60.9629019
  87.8561189 110.2470037  61.4076721  70.8381423 105.4990760  58.0729564
  70.9397560 106.3016922  58.4010539  71.6337310 105.2978096  57.7752644
  70.9709329 105.5876659  58.0764919  77.2698243 103.0846957  67.8366869
  77.0781440 103.1002092  68.6866292  78.1196839 103.2810632  67.8133524
  77.3673965 103.1161308  67.9590164  71.6545156 105.6137939  65.8150685
  71.5130647 104.7621879  65.9395193  71.9385719 105.6566599  64.9912891
  71.6753002 105.4937689  65.7118309  81.8083748 107.4505029  59.9595174
  81.5618462 107.3700780  60.7931962  82.1368871 106.6658497  59.7657701
  81.8204992 107.3231294  60.0542697  85.7031797 114.1588388  63.7481955
  85.5646156 114.8569434  64.2530697  84.9231795 114.0037045  63.3918137
  85.5675024 114.2388555  63.7708229  84.0409882 110.4584764  70.0004336
  84.0357920 109.5864580  70.0046763  84.7470876 110.6572933  69.5273792
  84.1454886 110.3588638  69.9311372  77.7680775 110.1861747  69.3718157
  77.9124151 110.7662956  68.7361267  78.1156424 110.5638044  70.0768011
  77.8408237 110.3282452  69.3817152  79.9400693 109.3851916  67.1543288
  79.1924007 109.5782930  66.7491566  80.0942218 108.5597135  66.9167410
  79.8523120 109.2917027  67.0588694  76.8408530 118.3764519  66.2379183
  76.9898094 117.8167435  65.5852588  77.6208532 118.4556521  66.6211702
  76.9782624 118.3050085  66.1976133  87.1985170 113.5166642  54.5098454
  86.8191978 112.7303780  54.5027743  86.5351415 114.0653499  54.3670098
  87.0443644 113.4811466  54.4879251  79.3661831 118.5479162  67.5163674
  79.2905502 117.8787973  68.0714463  79.2951690 119.2496950  68.0304341
  79.3442438 118.5524070  67.6740522  80.1802470 103.2802467  68.0438692
  80.6375084 104.0126441  68.1711484  80.2558798 102.8568932  68.8025948
  80.2593439 103.3259705  68.1739768  72.4235461 103.5268286  69.1328136
  71.8877650 102.9148644  69.4488903  72.4853226 104.1016422  69.7861802
  72.3531093 103.5215214  69.2763562  84.6529796  96.4592342  61.9132535
  84.7713364  96.9168805  61.1799838  84.4791971  95.6537603  61.6268753
  84.6448967  96.4086114  61.7633469  80.0232078 117.0680161  58.3487280
  80.7881969 116.7989805  58.0269945  79.9210168 116.5830171  59.0657343
  80.1213573 116.9569726  58.4067108  78.0584848 105.2704571  64.8880516
  77.2680922 105.0896031  65.2097852  78.4545470 104.4931523  64.8710810
  78.0001724 105.1292031  64.9333064  82.5450738 114.0992345  50.3287230
  83.3123723 114.1592470  49.9193081  82.0982047 113.5272786  49.8443548
  82.5924166 114.0228921  50.1964940  83.4428534 112.9047001  62.6139962
  82.7673536 112.6732233  63.1153349  83.4520910 112.2968184  61.9882067
  83.3447038 112.7805926  62.5956114  80.5722678 107.7464830  69.3704015
  80.5081819 108.6074786  69.2424152  80.7119866 107.4296823  68.5699566
  80.5838148 107.8264996  69.2332228  85.4445268 115.7612133  54.8450140
  85.5265106 116.5679119  54.5211591  85.9295011 115.7808092  55.5690913
  85.5282426 115.8832795  54.9037038  79.2541772 110.4396969  63.5120218
  78.8304021 110.6401468  62.7759236  79.0786627 109.5925817  63.6244518
  79.1652652 110.3445750  63.4193908  78.7553465 121.9547482  65.9741675
  79.2449395 121.2558271  65.7917340  78.1837697 121.6571352  66.5617732
  78.7437995 121.8073706  66.0342716  74.5424217 110.9349020  58.9448190
  74.6988836 110.8695823  59.8004182  74.8824810 111.7097573  58.7326870
  74.6157452 111.0398219  59.0402784  81.0803361 110.3106904  57.8141554
  81.6218907 109.8077285  58.2780174  81.3949920 110.2572099  57.0031039
  81.2067758 110.2286325  57.7625366  84.9520469 114.5209551  74.9268466
  85.7655334 114.2494700  75.0873598  84.7915435 114.2217091  74.1228662
  85.0490417 114.4364477  74.8313872  79.2489811 115.7024256  55.0981582
  79.3182631 114.8438794  55.2374582  80.0278266 115.9196136  54.7700606
  79.3742661 115.6077119  55.0698739  82.2292631 105.2043208  67.8663854
  82.4434600 104.5654123  67.3127208  81.6126530 105.6489032  67.4371716
  82.1697960 105.1753352  67.7214285  83.6397299 118.1261957  59.3118075
  83.2477090 117.8228672  58.5940941  83.7950371 118.9631047  59.1223029
  83.6050888 118.2045794  59.1774572  71.1158478 108.1183971  59.2608958
  71.4957443 108.5368516  58.5969225  70.5413843 108.6997427  59.5677801
  71.0869803 108.2661830  59.2085698  84.3931719 106.8132274  68.8047161
  83.5808400 106.5058164  68.8860334  84.8521653 106.3331274  69.3689873
  84.3412103 106.6968766  68.9001755  83.8036973 114.6911946  59.2524105
  83.4451628 114.8626589  60.0288138  83.3175684 115.1525151  58.6952104
  83.6795670 114.7850917  59.2849375  81.6207359  98.3143144  62.8551197
  80.7500917  98.2881865  62.8084506  81.8747701  98.1420336  62.0377042
  81.5300919  98.2853288  62.7271334  78.5925339 110.3711111  51.7924340
  78.8817864 111.1475994  52.0667914  78.6797138 109.8599842  52.4938839
  78.6479595 110.4103029  51.9366838  81.4885226 108.2192345  73.5875863
  81.9584857 108.8434461  73.9743738  81.5347106 107.5509321  74.1469078
  81.5653102 108.2127025  73.7275935  78.6456500 100.3249373  64.3124667
  78.1294988  99.6329564  64.4376246  78.0850429 100.9920150  64.2587266
  78.4863013 100.3212630  64.3230733  80.7148733 100.8642333  66.1417520
  80.3280486 100.8891364  66.9231050  80.2281671 100.2984011  65.6892036
  80.5861242 100.7838083  66.1905423  84.9641713 115.5815842  70.1991306
  85.6021433 115.0876037  69.8653762  84.3215804 115.5093242  69.6143533
  84.9635939 115.4974850  70.0633661  86.6898713 107.4304988  64.7657222
  86.2626321 107.3431336  64.0105321  86.0524766 107.5382763  65.3512066
  86.5328320 107.4337647  64.7402663  80.3805875  97.7509318  68.4327780
  81.0098993  98.2869618  68.1548850  80.5491738  97.6586677  69.2841345
  80.4983670  97.8170680  68.5176308  80.1819790 102.5380513  70.7054191
  81.0093219 102.2665662  70.7612806  80.2027636 103.3341355  71.0618009
  80.3072640 102.6160267  70.7669374  85.0195969 116.2735650  66.8396663
  85.8088347 115.9224715  66.9598745  85.1939567 117.0872038  66.5773297
  85.1616251 116.3421507  66.8184531  74.7589280 109.6844376  63.8924452
  73.9177286 109.5848250  64.1003346  74.9679288 110.4539856  64.2438773
  74.6653972 109.7836419  63.9751767  72.2364847 107.3063913  61.7209203
  71.8421544 107.3806924  60.9459312  71.6804964 107.6921859  62.2717564
  72.0967659 107.3745687  61.6876862  83.8729793 100.2845207  61.4013082
  84.0779387 100.2167514  62.2470079  83.5456217 101.0904028  61.3334259
  83.8545041 100.3931147  61.5172737  78.5705945 107.6125775  63.1422049
  78.2669082 107.0581763  63.7432457  77.8685365 107.7917985  62.6550084
  78.4222154 107.5570557  63.1591755  77.6272042 104.9226295  57.7066751
  77.9031776 104.2045207  57.2944319  78.2270711 105.5211215  57.4987857
  77.7565306 104.9046665  57.6147512  76.6324296 114.8275496  67.8494147
  76.5244651 114.8377558  68.7156205  76.8420077 115.6530276  67.6599101
  76.6474407 114.9516570  67.9498239  87.1263481 100.8376971  60.8815847
  86.5137795 101.3247373  61.2669579  87.2227656 100.1620462  61.4253498
  87.0501379 100.8095280  61.0194705  81.1282562 102.5939812  55.9813346
  81.5826309 102.7650372  56.7061191  81.6022608 101.9807923  55.5811122
  81.2650882 102.5290697  56.0287108  74.6498088 112.0788138  65.3116085
  74.0586021 112.7197636  65.2819100  75.4119111 112.5025755  65.2847384
  74.6746348 112.2363976  65.3031232  75.0458710 103.2390136  65.9784102
  75.5060192 103.3129065  66.7159226  75.0914817 104.0371390  65.6283924
  75.1209266 103.3684283  66.0356859  76.6942060 103.9056831  70.5456130
  76.3027625 103.2590178  70.9811907  76.8627923 104.4968266  71.1650385
  76.6612970 103.8971098  70.7018836  90.7688509 111.9093908  66.3093363
  90.8271633 112.3580556  67.0553340  90.1354977 112.3192720  65.8723443
  90.6839804 112.0367642  66.3545911  84.4087604 117.5297450  62.7448109
  84.2107292 118.0188264  62.0504321  83.7875315 117.7338691  63.3232243
  84.2875168 117.6313988  62.7271333  78.4695582 109.2982346  57.0858354
  79.2137627 109.6856623  57.3241303  78.6156278 108.4539772  57.2498841
  78.6006167 109.2312819  57.1452323  80.3875158 101.0932605  62.1190215
  79.5411203 101.2655413  61.9931565  80.3846290 100.2881949  62.4556043
  80.2622308 100.9993634  62.1501342  81.4573458 104.8707820  62.9852273
  80.9833412 104.3449582  63.4957584  81.8291594 104.3237292  62.4167134
  81.4423347 104.7123816  62.9767420  71.8346488 106.8679326  68.3535819
  72.6972101 106.7675036  68.2673148  71.5038271 106.2874036  67.7921391
  71.9131685 106.7670953  68.2581225  87.7210189 109.9310195  64.3959053
  87.4808411 109.0916610  64.4001480  88.2002196 110.0110362  65.1199827
  87.7562372 109.8191595  64.5033856  83.3856958 105.7644374  56.0478027
  82.8579976 105.8473118  55.3583736  83.8452666 106.5062246  56.0442671
  83.3758808 105.8865037  55.9452722  89.7215376 106.7111653  62.3488312
  89.4825146 106.6707487  61.5109097  89.8849277 107.5582805  62.4754034
  89.7105679 106.8303738  62.2441794  86.3261406 111.0961602  68.2793358
  87.0495605 110.6434128  68.1004378  86.0611368 111.3766267  67.4965686
  86.3942679 111.0712570  68.1372073  75.1948274 105.6921775  65.0146237
  74.5701344 105.7040167  64.4072190  74.8593869 106.1681950  65.6637477
  75.0533766 105.7640292  65.0202805  75.3790023 104.0346894  51.0718922
  75.0302827 104.6866619  51.5350471  74.8986469 104.0204007  50.3442793
  75.2560267 104.1289947  51.0330013  71.9073950 113.7522235  66.4550001
  71.3773874 113.0614674  66.5044976  72.1799043 113.7432421  65.6262710
  71.8698672 113.6489367  66.3397417  82.9394040 114.3347938  55.1787684
  83.6628239 114.8006051  55.0352257  82.4994631 114.4021547  54.4285281
  82.9809732 114.4131774  55.0472465  82.1080195 111.1945480  66.4288373
  81.4937188 110.6503530  66.7237008  82.6247480 110.6809717  65.9494189
  82.0935858 111.0381889  66.4012601  81.3476492 112.2649750  64.1632671
  80.9204100 111.6399469  63.7298107  81.3401437 111.9824672  64.9891679
  81.2835634 112.1302531  64.2212499  74.4639020 107.3014923  67.2321105
  74.6232506 106.5458247  67.6372827  74.2831913 107.8505863  67.8861843
  74.4604379 107.2708737  67.3883811  82.4059323  99.4676159  67.7871895
  81.9099884  99.6639833  67.0963462  83.1628385  99.8668827  67.6160696
  82.4446147  99.5553893  67.6592032  79.6762202 103.1418505  64.3775205
  79.7004689 102.6078617  63.6887985  79.9273676 102.6335813  65.0400796
  79.7172121 102.9879409  64.3739850  67.1869792 110.4250000  63.8118349
  67.0813241 110.3796844  62.9470433  66.4370012 110.7703780  64.0932634
  67.0605395 110.4690908  63.7255679  75.9563524 101.8689323  63.7580950
  75.9961896 102.3698529  64.4715657  75.1313189 101.9599717  63.4886873
  75.8403050 101.9571139  63.8231488  78.1393137 111.4350063  71.8601244
  77.2888768 111.5721777  71.9958889  78.3021265 110.7013841  72.3048946
  78.0377001 111.3464164  71.9456843  77.3777888 108.3849833  66.0554849
  76.5469817 108.5523651  65.8490097  77.3229405 108.0085783  66.8403734
  77.2467303 108.3539564  66.1403377  75.1861671 101.8758726  71.6911259
  75.8114374 101.3320858  71.9640692  74.7312151 101.3953643  71.1219050
  75.2109932 101.7248207  71.6472853  75.7513932 106.6605424  56.5844966
  75.8916893 107.1577888  57.2873608  76.2496464 105.9591719  56.7259180
  75.8455012 106.6307403  56.7096545  75.7814154 107.5272535  53.9137543
  76.4159233 108.1232960  53.8487005  75.8639765 107.2275993  54.7283413
  75.8870705 107.5713443  54.0240630  88.7596720 110.0588013  66.7823907
  89.3514560 110.6985263  66.8142105  89.1955714 109.3611049  67.0715974
  88.9115151 110.0506363  66.8304740  77.3593137 103.4586511  53.8882985
  77.6808978 102.9789593  53.2342248  77.6220081 104.2686157  53.6973797
  77.4459162 103.5076409  53.7638477  80.5890110 114.4805385  67.4081801
  80.0815201 115.0341232  67.8522432  80.2916756 114.5413675  66.5900576
  80.4694995 114.5711696  67.3530258  82.7552292 102.8458705  66.2506464
  83.1807363 102.3931231  65.6389991  82.1409285 102.2918775  66.5271252
  82.7280937 102.6972681  66.2011490  72.2867142 109.7240376  57.1827089
  72.7959371 110.3204884  57.5638395  72.7601414 109.4566350  56.5003509
  72.4310518 109.7726191  57.1381612  83.1997890 118.3968643  55.3385745
  82.4827200 118.2229505  54.8732982  83.8504627 118.1621215  54.8061231
  83.1899740 118.3364435  55.1914963  81.1946515  99.3173804  59.6597041
  80.5514833  99.1671451  60.2282180  80.8545922  99.0716150  58.8946146
  81.0491592  99.2585927  59.6300056  85.7845861 107.2733231  59.0827050
  85.1137051 107.8162934  58.9540115  86.4785611 107.7428087  58.8408745
  85.7874729 107.4231502  59.0282578  79.8332595 119.4129943  64.3138808
  79.6098249 118.6548773  64.6822835  79.3442438 119.4427964  63.5919248
  79.7276044 119.3052168  64.2615549  85.9473989 103.7289115  61.9917423
  86.3001599 103.3018838  62.6663222  85.0888790 103.6439958  62.1218499
  85.8723433 103.6533856  62.1112434  74.6457674 106.3596635  60.0500270
  73.9269663 106.7760767  60.3173133  75.0170036 106.9250873  59.4991908
  74.5949605 106.5045916  60.0083077  83.9457254 106.9924483  65.9402265
  83.9255182 106.8107779  66.7937044  83.9936455 107.8636502  65.9161849
  83.9491895 107.0941022  66.0625560  81.8903584 113.5811675  71.8650742
  81.8499439 112.9361352  71.2795898  82.7026902 113.5248293  72.1776154
  82.0046738 113.4770642  71.8247691  78.4811052 119.6330401  61.7675893
  78.0671450 118.9704532  61.3779734  79.1658426 119.7808260  61.2471587
  78.5209423 119.5571060  61.6332390  81.8476346 118.7920487  62.5199509
  81.4492629 118.9022757  61.7520330  81.2327565 119.0002553  63.1026069
  81.6975235 118.8394055  62.4930809  80.4204248 105.3994634  55.3873649
  79.8269087 105.7211631  54.8358216  80.4579526 104.5535730  55.1794755
  80.3378637 105.3218963  55.2756420  87.3798049  98.8507527  62.9201736
  86.8728913  98.1436666  62.8522913  88.1765482  98.5200716  63.0502812
  87.4225288  98.6980678  62.9300731  83.2962065 105.3574139  58.8175399
  83.0675758 105.3806840  57.9753758  83.5560141 104.5331606  58.9370410
  83.3008253 105.2390219  58.7100597  77.5781293 107.2108612  68.4200500
  77.0660196 106.6029795  68.7785531  77.4060789 107.9265205  68.8874475
  77.4770930 107.2271911  68.5416723  72.4247008 105.6546187  71.0702861
  72.2549598 106.3147562  70.5251068  71.9812958 105.8652749  71.7915350
  72.3346341 105.7832169  71.0964491  76.3506827 103.8950685  60.1129595
  76.8264193 104.2567765  59.4779776  75.8495427 104.5507153  60.3929738
  76.3472186 104.0444874  60.0606336  89.5818189 113.3672453  55.9042600
  89.9651794 114.1163809  56.1340697  88.7862302 113.6138273  55.6454589
  89.5211971 113.5142147  55.9000174  81.4550363 105.1332857  70.8602755
  82.0121793 104.9046666  70.2281221  81.1311428 105.8938522  70.5837967
  81.4896773 105.2116693  70.7259252  69.3249072 108.5593053  66.3291351
  68.7775792 107.8893698  66.4472219  70.1141450 108.1922901  66.3934818
  69.3601256 108.4058039  66.3560052  79.1733481 108.2200510  71.8254762
  79.9244808 108.5352187  72.1394316  79.3656057 108.0179681  70.9988684
  79.3124895 108.2367892  71.7498158  78.3933480 106.0391885  53.4802979
  78.7732445 106.0571514  52.6954094  77.6526076 106.4845874  53.3593826
  78.3402318 106.1073660  53.3466547  86.0218771 104.3474076  59.0678558
  86.0212997 104.1922733  59.9262834  85.8174951 105.1937063  59.0119943
  85.9918549 104.4494697  59.1866497  68.0836042 107.7713861  63.4837374
  67.9057803 107.3190470  64.2092290  67.7955064 108.5740022  63.6675852
  68.0148995 107.8236419  63.6180877  83.7459623 109.0271578  62.7214765
  84.2413288 108.3094573  62.6818785  82.9359398 108.7242376  62.6069251
  83.7003516 108.8769224  62.6988490  79.1918234 112.8769391  54.8711769
  78.3829557 112.5536065  54.8245078  79.6993143 112.1702613  54.8040018
  79.1467901 112.7250708  54.8542063  69.8208512 110.3041584  60.5959133
  68.9554031 110.2927275  60.4841904  69.9207327 110.1171807  61.4430273
  69.7082678 110.2747646  60.7048078  85.8111442 111.7775266  65.4091893
  86.2366513 111.2549687  64.8562318  85.4468361 112.3756103  64.8880516
  85.8198044 111.7885493  65.2500903  75.4465521 120.0739483  64.1689239
  75.7612080 120.8875871  64.1767021  75.8558935 119.6889702  64.8371398
  75.5533619 120.1368185  64.2693330  82.3990041 115.4909530  61.7393051
  82.8701219 116.2049792  61.9083036  82.7350220 114.8908280  62.2752920
  82.5185156 115.5080994  61.8425427  84.4867026 117.1010843  73.9185123
  84.5963991 116.3119404  74.2741870  84.8157922 117.0116779  73.1159461
  84.5519431 116.9716696  73.8527514  79.3159536 100.2637000  68.6951146
  79.4487442  99.4667994  69.0232121  79.7004689 100.7903403  69.2749421
  79.3915865 100.2236917  68.8294648  83.0363987 115.2827464  68.5020743
  82.4884933 114.6585348  68.2340809  83.4977016 115.4721736  67.7864823
  83.0231197 115.2186514  68.3571174  82.3891891  97.1867327  65.2932239
  81.5837855  97.0765056  65.6100077  82.2598627  97.2879782  64.4362105
  82.2512024  97.1850997  65.2140279  85.8457852 103.3512818  65.8871936
  85.2620841 103.8522025  65.4749503  86.1662146 102.8442375  65.2536259
  85.8071027 103.3504653  65.7330443  78.3852651 102.2653413  56.1630611
  79.2068345 102.4351726  55.9212305  77.9222302 102.4200674  55.4396908
  78.4383813 102.3135146  56.0202255  76.9747983 100.2596175  66.9429039
  77.5192396  99.9187302  67.5333381  77.0284919 101.1181637  67.0850324
  77.0637102 100.3351435  67.0510913  72.7878542 114.0212591  63.8167847
  73.3923399 113.9808426  63.1881668  72.5805854 114.8683744  63.8471903
  72.8467439 114.1400594  63.7283964  82.6022314 116.2878537  65.0330085
  83.4220687 116.1441503  65.2946380  82.3216391 116.9124736  65.5746522
  82.6819057 116.3588889  65.1518024  68.0229824 113.0047209  63.6866770
  67.9254102 112.1943481  63.9956827  68.8058694 112.9839002  63.3013038
  68.1245960 112.8814299  63.6753633  99.0735964 123.9443388  57.9972961
  99.0429968 124.7988025  58.1691230  99.6717313 123.6438681  58.5559105
  99.1573122 124.0259885  58.1047763  92.2735649 123.0319039  62.7525891
  91.4173544 123.1927538  62.8035008  92.3203303 122.1611103  62.7730952
  92.1534760 122.9269841  62.7631957  86.6576789 132.5681757  58.5163123
  85.9059688 132.1897296  58.2879168  87.1062800 132.6000191  57.7681933
  86.6126455 132.5167364  58.3720625  95.1187470 125.0911083  65.3957543
  95.6643430 125.7696170  65.4551513  95.0604346 124.9498544  64.5359125
  95.1903384 125.1703085  65.2769604  88.2361545 132.5800149  60.7825895
  88.3371908 131.7700503  61.0923023  87.6403290 132.4857096  60.1525574
  88.1634083 132.4465177  60.7352134  96.8952539 126.5195690  56.2691271
  96.7792064 127.2703376  56.6983409  97.6908425 126.2619644  56.5187358
  96.9957128 126.5930537  56.3695362  81.4326589 128.6020436  60.4078229
  81.1976773 127.7688088  60.3010498  81.5712230 128.8825102  59.5939430
  81.4182252 128.5203939  60.2720584  83.7316677 120.7706167  63.3062537
  83.1121708 120.1798814  63.1372552  83.6300540 121.3617602  62.6726860
  83.6254352 120.7710249  63.1867526  88.7782864 130.5089713  57.5560613
  89.0998705 131.0494921  56.9521921  89.4254961 129.9386485  57.6882903
  88.9208919 130.5048889  57.4867649  90.8284572 122.5105708  57.6395000
  91.5264737 122.6893836  58.1316463  91.1436905 121.9876048  57.0165389
  90.9779909 122.4599480  57.6197010  83.4585810 124.3158448  65.5506106
  83.3344506 124.9020894  66.1855925  84.1104094 123.8218644  65.8518381
  83.5359459 124.3297253  65.6892035  91.0172508 128.8976153  57.6274791
  91.4566143 128.2893254  58.0729564  90.8677170 128.5183527  56.8560256
  91.0593973 128.7514625  57.5793959  88.4844151 127.4920165  64.8293617
  89.1293153 126.9992608  64.5104565  88.7245928 127.6344952  65.6559695
  88.6154736 127.4397607  64.9043150  91.0230242 130.3375071  64.4800509
  91.3053485 129.5426477  64.2587265  91.7516402 130.8155659  64.5005570
  91.1719806 130.2909668  64.4503525  89.0011436 117.8798105  61.7216275
  88.6714766 118.3309249  61.0519973  88.3256438 117.8014268  62.2689281
  88.8521872 117.9349240  61.7039498  94.6181844 127.2503335  54.5805561
  94.5333139 128.1064301  54.7255129  95.1066227 126.9747659  55.2487720
  94.6770741 127.3360656  54.7007642  96.2087844 113.8683628  59.9665885
  95.8941285 114.5587107  60.3986308  95.6914785 113.8128410  59.2651386
  96.0852314 113.9618516  59.9262834  95.5500277 123.8688129  56.0803296
  95.0211749 124.0847762  56.7400602  96.0725297 124.5624267  56.0004265
  95.5488730 124.0031266  56.1658895  87.4399885 127.7651346  54.8810764
  86.8557100 128.2701377  55.2876628  87.0369980 127.5393733  54.1407356
  87.2939189 127.8059594  54.8315789  82.9943914 133.4806107  61.6834435
  82.5111492 134.2056596  61.6594019  83.8067232 133.7782237  61.7944593
  83.0434661 133.6308460  61.6961714  89.0658068 132.2738287  64.2884250
  88.5485009 131.9145702  63.6845558  89.7632459 131.7500462  64.2990316
  89.0923649 132.1435975  64.2014508  90.2892120 132.0064261  69.2318085
  89.7262954 131.5936871  69.7557746  91.0513143 131.9317167  69.6511228
  90.3186568 131.9341662  69.3711085  91.8977100 124.0116998  53.3579684
  92.1373103 124.2194981  52.5455027  92.2192941 123.2074506  53.4668629
  91.9814257 123.9231099  53.2540237  87.2067390 115.9410393  57.2039222
  87.9613358 116.3088711  56.9656272  87.0294924 116.3149948  57.9718402
  87.2921868 116.0508581  57.2824111  85.8488111 133.9962283  61.8354715
  86.5508690 133.4814272  61.8927472  85.7685594 134.3236434  62.6401590
  85.9411871 133.9676509  61.9627507 100.5002289 122.0904834  65.2486762
  99.6630710 122.1607021  65.4834356 100.4690519 122.0929329  64.3761064
 100.3720571 122.1015061  65.1546310  86.8967018 124.2337870  70.9635130
  87.0687521 124.1243764  71.8120412  87.4336375 124.8792275  70.7266322
  87.0012022 124.3129871  71.0540227  85.5624454 118.3480712  53.9017335
  85.3800028 118.5652593  53.0758328  86.4250067 118.4619725  53.9575950
  85.6629044 118.3970610  53.7871822  85.1738886 130.1868635  61.3440323
  86.0127786 130.4191567  61.3914085  85.2050656 129.3172946  61.2747359
  85.3020604 130.0925581  61.3404968  85.7991589 130.6069510  65.6453629
  86.3389814 130.4640641  66.3157001  85.1161536 131.0066261  66.0137655
  85.7783743 130.6449181  65.7988050  91.2424174 115.3507123  56.9366359
  91.9710334 115.1723078  56.4904515  91.3319067 116.1925203  57.1473537
  91.3630836 115.4491002  56.9019877  95.2232474 126.2860510  60.8398653
  95.9789989 126.7192025  60.8787562  95.3294799 125.6365280  61.4133289
  95.3502645 126.2537994  60.9296679  81.2028735 126.8269801  65.7988050
  80.9367150 126.0108917  65.9579040  81.2167299 126.8722956  64.9283566
  81.1653457 126.7126705  65.6941532  98.1810128 117.1547616  63.8330484
  98.8236037 117.2245720  64.4192399  98.4333149 116.4876838  63.3310026
  98.3132260 117.0673964  63.8457763  85.1086481 121.6254885  52.4139808
  84.3944659 121.3393065  52.8262241  85.5930450 121.9651511  53.0546196
  85.0745845 121.6336535  52.5695443  85.9527341 120.3648179  68.4455058
  85.2599138 119.8945159  68.6915789  86.5687668 120.1386483  69.0196765
  85.9411871 120.2615311  68.5664211  92.2833799 130.1284839  52.7901616
  92.6984948 129.7969863  52.0986112  91.4525729 129.8953741  52.6621753
  92.2221808 130.0456095  52.6692464  81.6122148 127.6128580  63.0799794
  81.4297721 127.5875466  62.2272087  82.3471817 128.0827518  63.1188703
  81.6936212 127.6789942  62.9597713  84.6767900 124.3313583  69.5881903
  85.4007872 124.3166614  70.0746798  84.7784036 125.0408938  69.0903871
  84.7986109 124.4338286  69.5860690  92.0512849 127.8112668  74.4530850
  91.2585830 128.1256179  74.6383470  92.1661776 128.0264136  73.6151635
  91.9508260 127.8896504  74.3569185  94.7244168 124.5346659  58.7425866
  94.8191023 125.2735953  59.1965491  94.1003012 124.1064134  59.1760430
  94.6453198 124.5807979  58.8734013  92.9796642 127.7132871  69.3916147
  93.5535504 127.0760115  69.5464711  92.9011446 127.7136954  68.5225804
  93.0529877 127.6197983  69.2862558  81.5793059 124.4922081  63.2298861
  82.1566561 124.3558532  63.8691106  80.8807120 124.0357865  63.4844445
  81.5614080 124.4044347  63.3621151  94.9767190 126.3795398  51.9762818
  94.8947352 126.4497586  52.8417805  95.6146910 126.9425142  51.7846559
  95.0587027 126.4734370  52.0752767  88.3360361 126.1456136  61.4437344
  88.0779605 125.3127871  61.4168644  88.3908844 126.3713749  60.6029845
  88.3060139 126.0553908  61.3157481  93.4161411 118.2484587  61.5441437
  92.7117738 117.7593773  61.7025356  93.4646385 118.2607062  60.6729881
  93.3191462 118.1774235  61.4380777  87.3095073 123.6993899  61.9302239
  86.7344664 123.8586067  62.5666200  86.9330749 123.0629308  61.4670690
  87.1697885 123.6291712  61.9556797  90.9768361 122.1717248  66.7894617
  90.5882794 121.7471466  66.1346809  90.3123060 122.4199398  67.2971644
  90.8215289 122.1455969  66.7682485 100.6191631 121.9292253  59.5642447
 100.3628195 121.1172194  59.3740330 101.4620945 121.9369820  59.3372635
 100.7057656 121.8104250  59.5027265  77.0551892 123.3433974  59.9446680
  77.1412144 122.9665842  60.7260210  77.6827689 122.9694419  59.4666638
  77.1608443 123.2319456  59.9892157  94.7994723 115.8691877  64.3018602
  95.1805235 115.1870048  64.6886476  93.9958007 115.5801479  64.1194266
  94.7371185 115.7258925  64.3322658  92.0807300 126.4015853  54.9871424
  92.8947939 126.6930746  54.8754196  92.0166441 125.7475715  54.4129717
  92.1910039 126.3481047  54.8860262  87.9515208 129.8737370  60.1143736
  88.5889155 129.6349118  60.6595530  88.3770280 130.0774529  59.3796897
  88.1091374 129.8688380  60.0860894  82.6427850 132.1125707  63.9978040
  82.6831996 132.3840558  63.1697820  83.2022374 132.6367615  64.4135828
  82.7311196 132.2301462  63.9369928  88.5918023 125.0939660  54.4518626
  88.9763176 124.8747367  55.2035171  88.3429643 125.9202605  54.5819702
  88.6120096 125.1837806  54.5819702  88.7586563 118.3746075  74.1681210
  88.4440004 119.1445638  73.9050773  88.4376496 117.8116331  73.5833437
  88.6645483 118.4056344  74.0422560  90.3336680 130.3509793  61.7937523
  90.4075688 130.1884965  62.6479373  91.1506186 130.5399982  61.5498004
  90.4653039 130.3546535  61.8835548  84.0942437 130.6967656  58.8231966
  83.2680554 130.9429393  58.6966245  84.1554428 130.6179736  59.6894024
  83.9816604 130.7212605  58.9320911  86.3118460 116.7636597  59.7827406
  85.4440886 116.8359196  59.8485016  86.5993665 117.5658676  59.9715381
  86.2258208 116.8930744  59.8202173  95.4351349 116.9114456  68.1138728
  96.1804941 116.7224266  67.7002154  95.0188654 117.4372694  67.5552585
  95.4836323 116.9616601  67.9703301  89.4636011 128.1162282  67.6104127
  88.9647705 128.8278049  67.6889015  90.2736235 128.4362948  67.5722289
  89.5092118 128.2689130  67.6160695  85.7264128 127.3785235  61.8566848
  85.4377377 126.7522706  62.3912575  86.5947477 127.3205522  61.9231528
  85.8124380 127.2772779  61.9457802  96.5142026 122.5220018  62.1748829
  96.1706792 121.8010353  62.5256079  96.6135069 122.3133869  61.3327188
  96.4784069 122.3844221  62.1020509  85.9296402 129.0180486  57.7809213
  86.6842370 129.3993525  57.9944675  85.3367014 129.4691630  58.2355909
  85.9533115 129.1409313  57.8792091  88.3903069 120.9743326  72.9066425
  87.5802845 121.2801106  72.7956267  88.8677756 121.6948909  73.0219009
  88.3406548 121.1257927  72.9073496  87.2494628 130.1889047  63.1549328
  86.7275382 130.3289339  63.8401193  87.6368649 129.4299711  63.3451445
  87.2298329 130.0974571  63.2850404  84.2385812 120.2394856  57.2244283
  83.9510608 119.8696126  56.4876230  84.9256281 120.7089711  56.9627988
  84.2974710 120.2541825  57.0759358  88.6760954 127.2193066  58.5530819
  88.4803737 127.8267801  57.9591122  88.8995300 126.5261010  58.0722493
  88.6795595 127.2070592  58.3946900  87.0739484 124.1047804  58.6711687
  87.7962136 124.2688962  58.2115493  86.5947477 124.8257469  58.5651027
  87.1103215 124.2346034  58.5877301  95.0332992 120.4411603  64.0508372
  94.1944092 120.4672882  63.8146636  95.1037359 121.0882338  64.6313719
  94.9201385 120.5407729  64.1017489  84.7247101 126.5105877  67.7765827
  85.2368198 126.7890130  67.1274587  84.4383443 127.2495171  68.1428640
  84.7581964 126.6608230  67.7355705  93.4802270 117.3396980  58.7835988
  94.1828623 117.1404728  58.3055946  93.2146459 116.5672922  59.0904832
  93.5448902 117.1959946  58.7581430  98.9090515 125.6479590  61.3369614
  98.8224490 125.8035016  62.1904393  98.4540995 126.2917665  60.9629019
  98.8293772 125.7655345  61.4076721  81.8114007 121.0176068  58.0729564
  81.9130144 121.8202230  58.4010539  82.6069894 120.8163404  57.7752644
  81.9441913 121.1061967  58.0764919  88.2430826 118.6032265  67.8366869
  88.0514023 118.6187400  68.6866292  89.0929422 118.7995939  67.8133524
  88.3406548 118.6346616  67.9590164  82.6277739 121.1323247  65.8150685
  82.4863231 120.2807187  65.9395193  82.9118303 121.1751907  64.9912891
  82.6485585 121.0122997  65.7118309  92.7816332 122.9690337  59.9595174
  92.5351046 122.8886088  60.7931962  93.1101455 122.1843805  59.7657701
  92.7937575 122.8416602  60.0542697  95.0142466 125.9770072  70.0004336
  95.0090504 125.1049888  70.0046763  95.7203459 126.1758241  69.5273792
  95.1187469 125.8773946  69.9311372  88.7413359 125.7047055  69.3718157
  88.8856735 126.2848264  68.7361267  89.0889007 126.0823352  70.0768011
  88.8140820 125.8467759  69.3817152  90.9133276 124.9037224  67.1543288
  90.1656590 125.0968238  66.7491566  91.0674801 124.0782443  66.9167410
  90.8255704 124.8102335  67.0588694  91.1535053 118.7987774  68.0438692
  91.6107667 119.5311749  68.1711484  91.2291382 118.3754240  68.8025948
  91.2326023 118.8445013  68.1739768  83.3968044 119.0453594  69.1328136
  82.8610234 118.4333952  69.4488903  83.4585809 119.6201730  69.7861802
  83.3263677 119.0400522  69.2763562  95.6262379 111.9777650  61.9132535
  95.7445947 112.4354113  61.1799838  95.4524555 111.1722911  61.6268753
  95.6181550 111.9271422  61.7633469  89.0317431 120.7889878  64.8880516
  88.2413506 120.6081339  65.2097852  89.4278054 120.0116831  64.8710810
  88.9734307 120.6477339  64.9333064  93.5183322 129.6177653  50.3287230
  94.2856307 129.6777778  49.9193081  93.0714631 129.0458094  49.8443548
  93.5656749 129.5414228  50.1964940  94.4161117 128.4232309  62.6139962
  93.7406119 128.1917541  63.1153349  94.4253494 127.8153492  61.9882067
  94.3179622 128.2991234  62.5956114  91.5455261 123.2650138  69.3704015
  91.4814403 124.1260094  69.2424152  91.6852449 122.9482131  68.5699566
  91.5570731 123.3450304  69.2332228  90.2274355 125.9582277  63.5120218
  89.8036604 126.1586776  62.7759236  90.0519210 125.1111125  63.6244518
  90.1385236 125.8631058  63.4193908  85.5156800 126.4534328  58.9448190
  85.6721419 126.3881131  59.8004182  85.8557393 127.2282881  58.7326870
  85.5890035 126.5583526  59.0402784  92.0535945 125.8292212  57.8141554
  92.5951490 125.3262593  58.2780174  92.3682504 125.7757407  57.0031039
  92.1800342 125.7471633  57.7625366  90.2222395 131.2209563  55.0981582
  90.2915215 130.3624102  55.2374582  91.0010850 131.4381444  54.7700606
  90.3475245 131.1262427  55.0698739  93.2025214 120.7228516  67.8663854
  93.4167184 120.0839431  67.3127208  92.5859113 121.1674340  67.4371716
  93.1430543 120.6938660  67.7214285  82.0891062 123.6369279  59.2608958
  82.4690027 124.0553824  58.5969225  81.5146427 124.2182734  59.5677801
  82.0602387 123.7847138  59.2085698  95.3664302 122.3317582  68.8047161
  94.5540984 122.0243472  68.8860334  95.8254237 121.8516582  69.3689873
  95.3144687 122.2154074  68.9001755  92.5939943 113.8328452  62.8551197
  91.7233501 113.8067173  62.8084506  92.8480284 113.6605644  62.0377042
  92.5033503 113.8038596  62.7271334  89.5657922 125.8896419  51.7924340
  89.8550447 126.6661301  52.0667914  89.6529721 125.3785150  52.4938839
  89.6212179 125.9288337  51.9366838  92.4617810 123.7377653  73.5875863
  92.9317441 124.3619769  73.9743738  92.5079690 123.0694629  74.1469078
  92.5385686 123.7312333  73.7275935  89.6189083 115.8434680  64.3124667
  89.1027572 115.1514872  64.4376246  89.0583012 116.5105458  64.2587266
  89.4595597 115.8397938  64.3230733  91.6881317 116.3827641  66.1417520
  91.3013070 116.4076672  66.9231050  91.2014254 115.8169319  65.6892036
  91.5593826 116.3023391  66.1905423  97.6631296 122.9490295  64.7657222
  97.2358904 122.8616644  64.0105321  97.0257349 123.0568071  65.3512066
  97.5060904 122.9522955  64.7402663  91.3538459 113.2694626  68.4327780
  91.9831577 113.8054926  68.1548850  91.5224321 113.1771985  69.2841345
  91.4716253 113.3355988  68.5176308  91.1552373 118.0565821  70.7054191
  91.9825803 117.7850970  70.7612806  91.1760220 118.8526662  71.0618009
  91.2805224 118.1345575  70.7669374  85.7321863 125.2029684  63.8924452
  84.8909870 125.1033558  64.1003346  85.9411871 125.9725164  64.2438773
  85.6386556 125.3021727  63.9751767  83.2097430 122.8249220  61.7209203
  82.8154128 122.8992232  60.9459312  82.6537547 123.2107167  62.2717564
  83.0700243 122.8930995  61.6876862  94.8462377 115.8030514  61.4013082
  95.0511970 115.7352822  62.2470079  94.5188801 116.6089336  61.3334259
  94.8277625 115.9116455  61.5172737  89.5438528 123.1311083  63.1422049
  89.2401666 122.5767071  63.7432457  88.8417949 123.3103293  62.6550084
  89.3954738 123.0755865  63.1591755  88.6004625 120.4411603  57.7066751
  88.8764360 119.7230515  57.2944319  89.2003295 121.0396522  57.4987857
  88.7297890 120.4231973  57.6147512  87.6056879 130.3460803  67.8494147
  87.4977234 130.3562866  68.7156205  87.8152661 131.1715584  67.6599101
  87.6206990 130.4701878  67.9498239  98.0996065 116.3562279  60.8815847
  97.4870378 116.8432681  61.2669579  98.1960240 115.6805770  61.4253498
  98.0233962 116.3280587  61.0194705  92.1015146 118.1125120  55.9813346
  92.5558892 118.2835680  56.7061191  92.5755191 117.4993231  55.5811122
  92.2383466 118.0476005  56.0287108  85.6230671 127.5973446  65.3116085
  85.0318604 128.2382944  65.2819100  86.3851695 128.0211063  65.2847384
  85.6478932 127.7549284  65.3031232  86.0191294 118.7575444  65.9784102
  86.4792776 118.8314373  66.7159226  86.0647401 119.5556698  65.6283924
  86.0941849 118.8869591  66.0356859  87.6674644 119.4242138  70.5456130
  87.2760209 118.7775486  70.9811907  87.8360506 120.0153574  71.1650385
  87.6345554 119.4156406  70.7018836  89.4428166 124.8167654  57.0858354
  90.1870211 125.2041931  57.3241303  89.5888862 123.9725080  57.2498841
  89.5738751 124.7498127  57.1452323  91.3607741 116.6117913  62.1190215
  90.5143786 116.7840721  61.9931565  91.3578874 115.8067257  62.4556043
  91.2354891 116.5178942  62.1501342  92.4306042 120.3893128  62.9852273
  91.9565996 119.8634890  63.4957584  92.8024177 119.8422600  62.4167134
  92.4155931 120.2309124  62.9767420  82.8079072 122.3864634  68.3535819
  83.6704685 122.2860343  68.2673148  82.4770855 121.8059344  67.7921391
  82.8864268 122.2856261  68.2581225  98.6942772 125.4495503  64.3959053
  98.4540995 124.6101918  64.4001480  99.1734779 125.5295670  65.1199827
  98.7294956 125.3376903  64.5033856  94.3589541 121.2829682  56.0478027
  93.8312560 121.3658426  55.3583736  94.8185249 122.0247554  56.0442671
  94.3491392 121.4050345  55.9452722 100.6947959 122.2296960  62.3488312
 100.4557729 122.1892795  61.5109097 100.8581860 123.0768112  62.4754034
 100.6838263 122.3489045  62.2441794  97.2993989 126.6146910  68.2793358
  98.0228188 126.1619436  68.1004378  97.0343952 126.8951575  67.4965686
  97.3675263 126.5897878  68.1372073  86.1680858 121.2107083  65.0146237
  85.5433928 121.2225475  64.4072190  85.8326453 121.6867258  65.6637477
  86.0266350 121.2825600  65.0202805  86.3522606 119.5532202  51.0718922
  86.0035411 120.2051927  51.5350471  85.8719052 119.5389315  50.3442793
  86.2292850 119.6475255  51.0330013  82.8806533 129.2707543  66.4550001
  82.3506458 128.5799982  66.5044976  83.1531627 129.2617729  65.6262710
  82.8431256 129.1674675  66.3397417  93.0812779 126.7130788  66.4288373
  92.4669772 126.1688838  66.7237008  93.5980064 126.1995024  65.9494189
  93.0668441 126.5567197  66.4012601  92.3209076 127.7835058  64.1632671
  91.8936684 127.1584777  63.7298107  92.3134020 127.5009980  64.9891679
  92.2568217 127.6487839  64.2212499  85.4371603 122.8200231  67.2321105
  85.5965090 122.0643555  67.6372827  85.2564497 123.3691171  67.8861843
  85.4336962 122.7894045  67.3883811  93.3791906 114.9861467  67.7871895
  92.8832467 115.1825141  67.0963462  94.1360968 115.3854135  67.6160696
  93.4178731 115.0739200  67.6592032  90.6494786 118.6603813  64.3775205
  90.6737273 118.1263925  63.6887985  90.9006259 118.1521121  65.0400796
  90.6904704 118.5064716  64.3739850  78.1602376 125.9435308  63.8118349
  78.0545825 125.8982152  62.9470433  77.4102595 126.2889088  64.0932634
  78.0337978 125.9876216  63.7255679  86.9296108 117.3874631  63.7580950
  86.9694480 117.8883837  64.4715657  86.1045773 117.4785024  63.4886873
  86.8135634 117.4756447  63.8231488  89.1125721 126.9535371  71.8601244
  88.2621351 127.0907085  71.9958889  89.2753849 126.2199149  72.3048946
  89.0109584 126.8649472  71.9456843  88.3510471 123.9035141  66.0554849
  87.5202401 124.0708959  65.8490097  88.2961988 123.5271091  66.8403734
  88.2199886 123.8724872  66.1403377  86.1594255 117.3944034  71.6911259
  86.7846958 116.8506166  71.9640692  85.7044734 116.9138951  71.1219050
  86.1842515 117.2433515  71.6472853  86.7246515 122.1790732  56.5844966
  86.8649476 122.6763196  57.2873608  87.2229048 121.4777027  56.7259180
  86.8187596 122.1492711  56.7096545  86.7546738 123.0457843  53.9137543
  87.3891817 123.6418268  53.8487005  86.8372348 122.7461301  54.7283413
  86.8603288 123.0898751  54.0240630  88.3325720 118.9771819  53.8882985
  88.6541561 118.4974901  53.2342248  88.5952664 119.7871465  53.6973797
  88.4191746 119.0261717  53.7638477  91.5622693 129.9990693  67.4081801
  91.0547784 130.5526540  67.8522432  91.2649339 130.0598983  66.5900576
  91.4427578 130.0897004  67.3530258  93.7284875 118.3644013  66.2506464
  94.1539947 117.9116539  65.6389991  93.1141868 117.8104083  66.5271252
  93.7013521 118.2157989  66.2011490  83.2599725 125.2425684  57.1827089
  83.7691955 125.8390191  57.5638395  83.7333998 124.9751658  56.5003509
  83.4043101 125.2911499  57.1381612  92.1679098 114.8359112  59.6597041
  91.5247416 114.6856759  60.2282180  91.8278505 114.5901458  58.8946146
  92.0224176 114.7771235  59.6300056  96.7578445 122.7918539  59.0827050
  96.0869635 123.3348241  58.9540115  97.4518195 123.2613394  58.8408745
  96.7607312 122.9416810  59.0282578  96.9206572 119.2474423  61.9917423
  97.2734182 118.8204146  62.6663222  96.0621374 119.1625266  62.1218499
  96.8456017 119.1719163  62.1112434  85.6190257 121.8781942  60.0500270
  84.9002246 122.2946075  60.3173133  85.9902619 122.4436181  59.4991908
  85.5682189 122.0231224  60.0083077  94.9189838 122.5109791  65.9402265
  94.8987765 122.3293087  66.7937044  94.9669039 123.3821810  65.9161849
  94.9224479 122.6126330  66.0625560  92.8636168 129.0996983  71.8650742
  92.8232023 128.4546660  71.2795898  93.6759486 129.0433601  72.1776154
  92.9779321 128.9955950  71.8247691  91.3936832 120.9179942  55.3873649
  90.8001671 121.2396939  54.8358216  91.4312109 120.0721038  55.1794755
  91.3111221 120.8404271  55.2756420  98.3530632 114.3692835  62.9201736
  97.8461497 113.6621974  62.8522913  99.1498066 114.0386023  63.0502812
  98.3957871 114.2165986  62.9300731  94.2694648 120.8759447  58.8175399
  94.0408341 120.8992148  57.9753758  94.5292724 120.0516914  58.9370410
  94.2740836 120.7575527  58.7100597  88.5513877 122.7293920  68.4200500
  88.0392780 122.1215103  68.7785531  88.3793373 123.4450512  68.8874475
  88.4503514 122.7457219  68.5416723  83.3979591 121.1731495  71.0702861
  83.2282181 121.8332870  70.5251068  82.9545541 121.3838056  71.7915350
  83.3078925 121.3017477  71.0964491  87.3239411 119.4135993  60.1129595
  87.7996777 119.7753073  59.4779776  86.8228010 120.0692461  60.3929738
  87.3204770 119.5630182  60.0606336  92.4282947 120.6518165  70.8602755
  92.9854377 120.4231974  70.2281221  92.1044012 121.4123830  70.5837967
  92.4629357 120.7302001  70.7259252  80.2981656 124.0778361  66.3291351
  79.7508375 123.4079006  66.4472219  81.0874034 123.7108209  66.3934818
  80.3333839 123.9243347  66.3560052  90.1466064 123.7385818  71.8254762
  90.8977391 124.0537495  72.1394316  90.3388641 123.5364989  70.9988684
  90.2857478 123.7553200  71.7498158  89.3666064 121.5577193  53.4802979
  89.7465029 121.5756822  52.6954094  88.6258660 122.0031182  53.3593826
  89.3134901 121.6258968  53.3466547  96.9951354 119.8659384  59.0678558
  96.9945581 119.7108041  59.9262834  96.7907534 120.7122371  59.0119943
  96.9651132 119.9680005  59.1866497  79.0568625 123.2899169  63.4837374
  78.8790386 122.8375778  64.2092290  78.7687647 124.0925330  63.6675852
  78.9881578 123.3421726  63.6180877  94.7192206 124.5456886  62.7214765
  95.2145872 123.8279881  62.6818785  93.9091982 124.2427684  62.6069251
  94.6736100 124.3954532  62.6988490  90.1650818 128.3954699  54.8711769
  89.3562141 128.0721373  54.8245078  90.6725727 127.6887921  54.8040018
  90.1200485 128.2436016  54.8542063  80.7941095 125.8226892  60.5959133
  79.9286615 125.8112583  60.4841904  80.8939911 125.6357115  61.4430273
  80.6815262 125.7932954  60.7048078  96.7844025 127.2960573  65.4091893
  97.2099097 126.7734995  64.8562318  96.4200945 127.8941411  64.8880516
  96.7930628 127.3070801  65.2500903  90.2892120 115.7822308  68.6951146
  90.4220025 114.9853302  69.0232121  90.6737272 116.3088711  69.2749421
  90.3648448 115.7422225  68.8294648  93.3624475 112.7052634  65.2932239
  92.5570438 112.5950364  65.6100077  93.2331210 112.8065090  64.4362105
  93.2244608 112.7036305  65.2140279  96.8190435 118.8698126  65.8871936
  96.2353424 119.3707333  65.4749503  97.1394729 118.3627683  65.2536259
  96.7803611 118.8689961  65.7330443  89.3585234 117.7838721  56.1630611
  90.1800929 117.9537034  55.9212305  88.8954885 117.9385982  55.4396908
  89.4116397 117.8320454  56.0202255  87.9480566 115.7781483  66.9429039
  88.4924979 115.4372610  67.5333381  88.0017502 116.6366945  67.0850324
  88.0369686 115.8536743  67.0510913  83.7611125 129.5397899  63.8167847
  84.3655982 129.4993734  63.1881668  83.5538438 130.3869051  63.8471903
  83.8200022 129.6585902  63.7283964  78.9962407 128.5232517  63.6866770
  78.8986685 127.7128788  63.9956827  79.7791277 128.5024310  63.3013038
  79.0978544 128.3999607  63.6753633  32.9291287   7.7709672  44.9313008
  32.8985291   8.6254309  45.1031277  33.5272635   7.4704965  45.4899151
  33.0128444   7.8526169  45.0387810  26.1290971   6.8585323  49.6865938
  25.2728867   7.0193821  49.7375055  26.1758625   5.9877387  49.7070999
  26.0090083   6.7536125  49.6972004  20.5132111  16.3948041  45.4503170
  19.7615011  16.0163579  45.2219215  20.9618123  16.4266474  44.7021980
  20.4681778  16.3433648  45.3060672  29.4384688  13.1271849  59.2926394
  30.1451455  12.6323879  59.4213329  29.6272623  13.5680930  58.5629052
  29.5712594  13.1190199  59.2035440  25.9657071  16.8173410  40.8788717
  25.6308439  17.4950332  40.4432939  26.4783941  16.4278722  40.2905588
  25.9922652  16.8597989  40.7275508  25.5061362  18.7687679  46.8199828
  25.8900742  19.3374578  46.2804604  25.4420504  18.0437189  46.3405644
  25.5534789  18.7463142  46.6693691  28.9742792   8.9177367  52.3297590
  29.5198752   9.5962454  52.3891559  28.9159669   8.7764828  51.4699171
  29.0458707   8.9969369  52.2109650  22.0916867  16.4066433  47.7165942
  22.1927230  15.5966787  48.0263070  21.4958613  16.3123379  47.0865621
  22.0189406  16.2731461  47.6692181  30.7507861  10.3461974  43.2031318
  30.6347387  11.0969660  43.6323456  31.5463748  10.0885927  43.4527405
  30.8512451  10.4196821  43.3035409  21.9317607  21.3244022  49.1180798
  22.5755062  21.7657186  49.5076957  22.2573862  20.5197448  49.0311057
  22.0749436  21.2709217  49.1626276  15.2881912  12.4286720  47.3418276
  15.0532096  11.5954372  47.2350545  15.4267552  12.7091385  46.5279477
  15.2737574  12.3470223  47.2060631  22.6338187  14.3355997  44.4900660
  22.9554028  14.8761204  43.8861968  23.2810283  13.7652768  44.6222950
  22.7764242  14.3315172  44.4207695  24.6839895   6.3371992  44.5735047
  25.3820059   6.5160120  45.0656510  24.9992227   5.8142331  43.9505436
  24.8335232   6.2865764  44.5537057  17.3141132   8.1424732  52.4846153
  17.1899829   8.7287177  53.1195971  17.9659417   7.6484928  52.7858428
  17.3914781   8.1563536  52.6232082  24.8727830  12.7242437  44.5614838
  25.3121466  12.1159538  45.0069611  24.7232493  12.3449810  43.7900303
  24.9149296  12.5780908  44.5134006  22.3399473  11.3186449  51.7633664
  22.9848476  10.8258892  51.4444612  22.5801250  11.4611235  52.5899742
  22.4710058  11.2663891  51.8383197  24.8785564  14.1641355  51.4140556
  25.1608807  13.3692760  51.1927312  25.6071725  14.6421942  51.4345617
  25.0275128  14.1175952  51.3843571  28.4737167  11.0769618  41.5145607
  28.3888462  11.9330585  41.6595176  28.9621550  10.8013942  42.1827767
  28.5326064  11.1626940  41.6347689  29.4055600   7.6954412  43.0143343
  28.8767071   7.9114046  43.6740649  29.9280620   8.3890551  42.9344312
  29.4044053   7.8297549  43.0998942  34.8603653  13.2700717  48.3876387
  34.0301356  13.4811361  48.5509804  34.8112905  12.4437771  48.1118671
  34.7310388  13.1790323  48.3713752  21.2955208  11.5917629  41.8150811
  20.7112423  12.0967661  42.2216674  20.8925303  11.3660016  41.0747402
  21.1494511  11.6325878  41.7655836  16.8499236  17.3072390  48.6174482
  16.3666814  18.0322880  48.5934066  17.6622555  17.6048520  48.7284640
  16.8989984  17.4574744  48.6301761  22.9213390  16.1004571  51.2224297
  22.4040332  15.7411986  50.6185605  23.6187782  15.5766746  51.2330363
  22.9478971  15.9702259  51.1354555  26.5776982  16.5499385  57.1840470
  26.6660328  16.3625526  58.0318680  27.0066695  15.9036815  56.7845316
  26.6539085  16.4262393  57.2512221  24.1447442  15.8330545  56.1658132
  23.5818277  15.4203155  56.6897793  24.9068466  15.7583451  56.5851275
  24.1741891  15.7607946  56.3051132  25.7532422   7.8383281  40.2919731
  25.9928426   8.0461265  39.4795074  26.0748263   7.0340790  40.4008676
  25.8369580   7.7497383  40.1880284  19.7043434  17.8228566  48.7694762
  20.4064013  17.3080555  48.8267518  19.6240917  18.1502718  49.5741637
  19.7967194  17.7942792  48.8967554  34.3557611   5.9171118  52.1826808
  33.5186032   5.9873305  52.4174403  34.3245842   5.9195612  51.3101111
  34.2275893   5.9281345  52.0886356  20.7522340   8.0604153  57.8975177
  20.9242844   7.9510048  58.7460458  21.2891698   8.7058559  57.6606369
  20.8567344   8.1396155  57.9880274  19.0294209  14.0134918  48.2780370
  19.8683108  14.2457851  48.3254132  19.0605978  13.1439230  48.2087405
  19.1575927  13.9191865  48.2745015  19.6546912  14.4335793  52.5793675
  20.1945137  14.2906924  53.2497048  18.9716858  14.8332544  52.9477702
  19.6339066  14.4715464  52.7328097  29.0787797  10.1126794  47.7738700
  29.8345312  10.5458308  47.8127609  29.1850121   9.4631564  48.3473336
  29.2057967  10.0804278  47.8636725  32.1167968  13.9400071  48.5241103
  31.6803200  13.9436814  49.2800074  31.7830883  14.6205570  48.0920680
  32.0030588  14.0412527  48.5721935  26.6897042  15.9808404  59.8484253
  27.4737458  16.0939252  60.2139995  26.4893636  15.1549541  60.0442939
  26.7763067  15.8755124  59.9318639  15.0584057  10.6536084  52.7328097
  14.7922472   9.8375201  52.8919087  15.0722621  10.6989240  51.8623613
  15.0208779  10.5392989  52.6281579  32.0365451   0.9813899  50.7670531
  32.6791359   1.0512004  51.3532446  32.2888472   0.3143122  50.2650073
  32.1687583   0.8940248  50.7797810  26.8467435  17.8918506  53.4950709
  26.0482681  17.6518006  53.7524577  27.2953446  17.9432899  54.2417756
  26.7942046  17.8640897  53.6435633  35.2512314  10.6580991  47.4160740
  35.9128748  10.0971660  47.3156649  34.6103726  10.1633022  47.7413431
  35.2541182  10.5017400  47.4493080  26.1389122  13.9551123  39.7241663
  26.5540270  13.6236146  39.0326159  25.3081052  13.7220025  39.5961800
  26.0777131  13.8722379  39.6032511  15.4677471  11.4394864  50.0139841
  15.2853044  11.4141750  49.1612133  16.2027140  11.9093801  50.0528750
  15.5491535  11.5056226  49.8937760  31.5377145  11.6746374  47.1572729
  31.7732734  11.8191573  46.3299579  31.6866709  12.4388782  47.5504242
  31.5942948  11.8085428  47.0936333  18.5323222   8.1579867  56.5221950
  19.2563195   8.1432897  57.0086845  18.6339359   8.8675222  56.0243918
  18.6541431   8.2604570  56.5200737  33.3667602  10.5148040  44.9942333
  33.6975819  11.0475680  44.3882428  33.9400690  10.5686927  45.6504284
  33.5001281  10.6017608  45.0020114  25.9068172  11.6378951  61.3870897
  25.1141153  11.9522463  61.5723517  26.0217099  11.8530420  60.5491682
  25.8063582  11.7162788  61.2909232  28.5799491   8.3612942  45.6765913
  28.6746345   9.1002236  46.1305538  27.9558334   7.9330418  46.1100477
  28.5008521   8.4074263  45.8074060  26.8351965  11.5399155  56.3256194
  27.4090826  10.9026399  56.4804758  26.7566768  11.5403237  55.4565851
  26.9085199  11.4464266  56.2202605  28.8322512  10.2061682  38.9102865
  28.7502675  10.2763869  39.7757852  29.4702233  10.7691426  38.7186605
  28.9142349  10.3000653  39.0092814  22.1915683   9.9722420  48.3777391
  21.9334927   9.1394155  48.3508691  22.2464166  10.1980033  47.5369891
  22.1615461   9.8820191  48.2497528  27.2716733   2.0750871  48.4781484
  26.5673060   1.5860056  48.6365403  27.3201708   2.0873345  47.6069928
  27.1746785   2.0040519  48.3720824  21.1650395   7.5260182  48.8642286
  20.5899987   7.6852351  49.5006247  20.7886072   6.8895592  48.4010736
  21.0253208   7.4557995  48.8896844  24.8323684   5.9983532  53.7234664
  24.4438117   5.5737750  53.0686855  24.1678382   6.2465681  54.2311691
  24.6770612   5.9722253  53.7022532  34.4746953   5.7558536  46.4982494
  34.2183518   4.9438478  46.3080377  35.3176267   5.7636104  46.2712682
  34.5612979   5.6370534  46.4367311  25.9362622  10.2282136  41.9211471
  26.7503261  10.5197029  41.8094243  25.8721763   9.5741999  41.3469764
  26.0465361  10.1747331  41.8200309  32.1572112  12.9108132  56.3341047
  31.9210750  12.0796197  56.2153107  32.8015341  12.8593740  56.9195891
  32.2166783  12.7805820  56.4026940  21.8070530  13.7003654  47.0483783
  22.4444477  13.4615401  47.5935577  22.2325602  13.9040813  46.3136944
  21.9646697  13.6954664  47.0200941  16.4983173  15.9391990  50.9318087
  16.5387318  16.2106841  50.1037867  17.0577697  16.4633898  51.3475875
  16.5866519  16.0567745  50.8709975  22.4473346   8.9205944  41.3858673
  22.8318498   8.7013650  42.1375218  22.1984966   9.7468889  41.5159749
  22.4675418   9.0104090  41.5159749  33.1808533  12.6952581  52.3969341
  32.8754350  13.4280638  52.7582657  32.4614749  12.2890511  52.1162127
  33.0295875  12.7434314  52.4082478  24.1892002  14.1776076  48.7277570
  24.2631011  14.0151248  49.5819419  25.0061509  14.3666266  48.4838051
  24.3208361  14.1812819  48.8175595  38.8810325   9.3345582  51.7237686
  38.8134825   9.3541541  50.8540272  38.8665988  10.1775909  51.9493356
  38.8689082   9.4619317  51.6290162  17.9497759  14.5233939  45.7572013
  17.1235877  14.7695676  45.6306292  18.0109750  14.4446020  46.6234071
  17.8371926  14.5478888  45.8660957  29.2906672   0.7380740  55.0478775
  30.0360264   0.5490550  54.6342200  28.8743976   1.2638978  54.4892631
  29.3391646   0.7882885  54.9043348  22.7296588  17.1410819  43.4591043
  23.0194887  16.7499801  42.7350270  23.4600069  17.3227524  43.8996318
  22.8803472  17.1104633  43.4173850  36.6668942   8.1089968  49.9984280
  37.2176864   7.4758037  50.2381372  36.6513058   8.6405361  50.6899784
  36.7454139   8.0938916  50.1363138  23.3191333  11.9428565  54.5444173
  22.8203027  12.6544333  54.6229062  24.1291558  12.2629232  54.5062336
  23.3647440  12.0955414  54.5500742  20.6702504  19.1178202  46.5251193
  20.4502799  18.8275557  47.3177860  20.4497026  18.4593157  45.9969105
  20.6050098  18.9777910  46.5640101  19.5819451  11.2051518  48.7906894
  19.2932700  10.5788990  49.3252622  20.4502799  11.1471806  48.8571575
  19.6679703  11.1039063  48.8797849  30.3697349   6.3486302  49.1088876
  30.0262115   5.6276637  49.4596126  30.4690391   6.1400153  48.2667234
  30.3339392   6.2110505  49.0360556  22.8370459  20.4907592  45.3081885
  23.4894517  19.9584034  45.5372911  22.1396068  20.1376244  45.6949759
  22.8301177  20.3597115  45.3994053  19.7851724  12.8446769  44.7149259
  20.5397692  13.2259809  44.9284722  19.1922337  13.2957913  45.1695956
  19.8088438  12.9675597  44.8132138  30.8310378  12.8112006  44.6512864
  31.3968410  13.4705216  44.5671407  30.1838281  13.1561704  45.1229266
  30.8189134  12.9593947  44.7085621  22.2458391   4.8009610  59.8406472
  21.4358167   5.1067390  59.7296314  22.7233078   5.5215192  59.9559056
  22.1961870   4.9524211  59.8413543  21.1049951  14.0155331  50.0889375
  20.5830704  14.1555622  50.7741239  21.4923971  13.2565995  50.2791492
  21.0853652  13.9240855  50.2190451  27.3016956  15.7550790  44.0749944
  27.0603632  15.0218651  43.6677009  27.4818289  16.3037647  43.4216277
  27.2924580  15.7273181  43.9180166  22.5316277  11.0459350  45.4870866
  22.3359059  11.6534084  44.8931169  22.7550622  10.3527294  45.0062540
  22.5350918  11.0336875  45.3286947  20.9294807   7.9314088  45.6051734
  21.6517458   8.0955246  45.1455540  20.4502799   8.6523753  45.4991074
  20.9658537   8.0612317  45.5217348  28.8888314   4.2677887  50.9848419
  28.0499415   4.2939165  50.7486682  28.9592681   4.9148622  51.5653766
  28.7756708   4.3674012  51.0357536  18.5802423  10.3372160  54.7105874
  19.0923520  10.6156413  54.0614634  18.2938766  11.0761454  55.0768687
  18.6137286  10.4874514  54.6695752  27.3357592   1.1663264  45.7176035
  28.0383945   0.9671012  45.2395993  27.0701781   0.3939206  46.0244879
  27.4004225   1.0226230  45.6921477  32.7645838   9.4745873  48.2709661
  32.6779812   9.6301299  49.1244440  32.3096318  10.1183949  47.8969066
  32.6849095   9.5921628  48.3416768  26.6371654   6.7956620  46.8935220
  26.3906368   6.7152371  47.7272009  26.9656777   6.0110088  46.6997748
  26.6492898   6.6682886  46.9882743  30.5319703  13.5039980  50.6822002
  30.3934062  14.2021026  51.1870744  29.7519701  13.3488636  50.3258183
  30.3962930  13.5840146  50.7048276  28.8697788   9.8036355  56.9344383
  28.8645826   8.9316172  56.9386810  29.5758782  10.0024524  56.4613839
  28.9742792   9.7040229  56.8651419  22.5968681   9.5313339  56.3058203
  22.7412057  10.1114547  55.6701313  22.9444330   9.9089636  57.0108058
  22.6696143   9.6734043  56.3157198  24.7688599   8.7303507  54.0883335
  24.0211913   8.9234522  53.6831613  24.9230124   7.9048727  53.8507456
  24.6811026   8.6368619  53.9928741  21.6696436  17.7216111  53.1719230
  21.8186000  17.1619027  52.5192635  22.4496438  17.8008113  53.5551749
  21.8070530  17.6501676  53.1316179  32.0273076  12.8618234  41.4438501
  31.6479884  12.0755371  41.4367790  31.3639321  13.4105091  41.3010145
  31.8731550  12.8263058  41.4219298  24.1949737  17.8930754  54.4503721
  24.1193408  17.2239564  55.0054509  24.1239596  18.5948542  54.9644387
  24.1730344  17.8975661  54.6080569  25.0090376   2.6254058  54.9778739
  25.4662990   3.3578032  55.1051531  25.0846704   2.2020523  55.7365995
  25.0881346   2.6711296  55.1079815  24.8519984  16.4131753  45.2827327
  25.6169875  16.1441396  44.9609991  24.7498074  15.9281763  45.9997390
  24.9501479  16.3021317  45.3407155  22.8872754   4.6156162  51.8220563
  22.0968828   4.4347622  52.1437899  23.2833376   3.8383115  51.8050857
  22.8289630   4.4743623  51.8673111  27.3738644  13.4443936  37.2627276
  28.1411629  13.5044061  36.8533128  26.9269953  12.8724378  36.7783595
  27.4212072  13.3680512  37.1304987  28.2716440  12.2498592  49.5480009
  27.5961442  12.0183824  50.0493396  28.2808816  11.6419775  48.9222114
  28.1734944  12.1257517  49.5296161  25.4010584   7.0916421  56.3044062
  25.3369725   7.9526378  56.1764198  25.5407772   6.7748414  55.5039613
  25.4126054   7.1716588  56.1672275  30.2733174  15.1063725  41.7790187
  30.3553012  15.9130711  41.4551638  30.7582917  15.1259684  42.5030960
  30.3570332  15.2284387  41.8377085  24.0829678   9.7848560  50.4460265
  23.6591927   9.9853060  49.7099283  23.9074533   8.9377408  50.5584564
  23.9940558   9.6897342  50.3533955  23.5841371  21.2999073  52.9081722
  24.0737302  20.6009863  52.7257387  23.0125603  21.0022943  53.4957779
  23.5725901  21.1525297  52.9682763  19.3712123  10.2800612  45.8788237
  19.5276742  10.2147415  46.7344229  19.7112716  11.0549164  45.6666917
  19.4445358  10.3849810  45.9742831  25.9091267   9.6558496  44.7481600
  26.4506813   9.1528877  45.2120221  26.2237826   9.6023690  43.9371086
  26.0355664   9.5737916  44.6965412  29.7808375  13.8661143  61.8608513
  30.5943240  13.5946292  62.0213645  29.6203341  13.5668683  61.0568708
  29.8778323  13.7816069  61.7653918  24.0777717  15.0475847  42.0321628
  24.1470537  14.1890386  42.1714629  24.8566172  15.2647728  41.7040653
  24.2030567  14.9528711  42.0038786  27.0580537   4.5494800  54.8003901
  27.2722506   3.9105714  54.2467255  26.4414436   4.9940624  54.3711763
  26.9985866   4.5204944  54.6554332  28.4685205  17.4713548  46.2458122
  28.0764996  17.1680263  45.5280988  28.6238277  18.3082638  46.0563076
  28.4338794  17.5497385  46.1114619  29.2219625   6.1583865  55.7387208
  28.4096306   5.8509756  55.8200381  29.6809559   5.6782865  56.3029920
  29.1700009   6.0420358  55.8341802  28.6324879  14.0363537  46.1864152
  28.2739534  14.2078180  46.9628185  28.1463590  14.4976743  45.6292151
  28.5083576  14.1302508  46.2189421  23.4213245   9.7162703  38.7264387
  23.7105770  10.4927585  39.0007961  23.5085044   9.2051434  39.4278886
  23.4767501   9.7554621  38.8706884  26.3173132   7.5643937  60.5215910
  26.7872763   8.1886053  60.9083784  26.3635012   6.8960912  61.0809125
  26.3941008   7.5578617  60.6615982  29.7929619  14.9267433  57.1331353
  30.4309339  14.4327629  56.7993809  29.1503710  14.8544834  56.5483580
  29.7923845  14.8426442  56.9973708  31.5186619   6.7756579  51.6997269
  31.0914227   6.6882928  50.9445368  30.8812672   6.8834355  52.2852113
  31.3616226   6.7789239  51.6742710  25.0107696   1.8832104  57.6394238
  25.8381125   1.6117253  57.6952853  25.0315542   2.6792946  57.9958056
  25.1360546   1.9611859  57.7009421  29.8483875  15.6187241  53.7736710
  30.6376254  15.2676306  53.8938792  30.0227473  16.4323630  53.5113344
  29.9904157  15.6873099  53.7524578  19.5877186   9.0295967  50.8264499
  18.7465192   8.9299841  51.0343393  19.7967194   9.7991447  51.1778819
  19.4941878   9.1288010  50.9091814  28.7017700  -0.3703202  48.3353128
  28.9067293  -0.4380894  49.1810125  28.3744123   0.4355619  48.2674306
  28.6832947  -0.2617261  48.4512783  23.3993851   6.9577366  50.0762096
  23.0956988   6.4033355  50.6772504  22.6973271   7.1369576  49.5890130
  23.2510060   6.9022149  50.0931802  22.4559948   4.2677886  44.6406798
  22.7319682   3.5496799  44.2284366  23.0558617   4.8662806  44.4327904
  22.5853212   4.2498257  44.5487559  21.4612202  14.1727087  54.7834194
  21.3532557  14.1829149  55.6496252  21.6707983  14.9981867  54.5939148
  21.4762313  14.2968162  54.8838286  31.9551387   0.1828562  47.8155894
  31.3425701   0.6698965  48.2009626  32.0515562  -0.4927947  48.3593545
  31.8789285   0.1546871  47.9534752  25.9570468   1.9391404  42.9153393
  26.4114215   2.1101964  43.6401238  26.4310514   1.3259514  42.5151169
  26.0938788   1.8742289  42.9627155  19.4785994  11.4239729  52.2456132
  18.8873927  12.0649228  52.2159147  20.2407017  11.8477347  52.2187431
  19.5034254  11.5815568  52.2371279  35.5976415  11.2545499  53.2433410
  35.6559539  11.7032148  53.9893386  34.9642883  11.6644312  52.8063490
  35.5127710  11.3819234  53.2885958  29.2375510  16.8749041  49.6788156
  29.0395199  17.3639856  48.9844367  28.6163221  17.0790283  50.2572289
  29.1163074  16.9765579  49.6611379  23.2983488   8.6433938  44.0198400
  24.0425533   9.0308214  44.2581350  23.4444184   7.7991363  44.1838888
  23.4294073   8.5764411  44.0792370  26.2861364   4.2159411  49.9192320
  25.8121318   3.6901173  50.4297631  26.6579500   3.6688884  49.3507181
  26.2711253   4.0575408  49.9107467  32.5498095   9.2761787  51.3299100
  32.3096318   8.4368202  51.3341527  33.0290102   9.3561954  52.0539874
  32.5850278   9.1643187  51.4373903  28.2144864   5.1095966  42.9818074
  27.6867882   5.1924710  42.2923782  28.6740572   5.8513837  42.9782718
  28.2046714   5.2316628  42.8792769  34.5503282   6.0563244  49.2828359
  34.3113052   6.0159078  48.4449144  34.7137183   6.9034396  49.4094080
  34.5393585   6.1755329  49.1781841  31.1549312  10.4413193  55.2133404
  31.8783511   9.9885720  55.0344424  30.8899274  10.7217859  54.4305732
  31.2230585  10.4164162  55.0712120  16.7361856  13.0973827  53.3890048
  16.2061780  12.4066266  53.4385023  17.0086949  13.0884012  52.5602756
  16.6986578  12.9940959  53.2737464  27.7681946  13.6799529  42.1127731
  28.4916145  14.1457642  41.9692304  27.3282537  13.7473139  41.3625328
  27.8097638  13.7583366  41.9812512  26.9368101  10.5397072  53.3628420
  26.3225094   9.9955122  53.6577055  27.4535386  10.0261308  52.8834236
  26.9223764  10.3833481  53.3352648  26.1764398  11.6101342  51.0972718
  25.7492007  10.9851060  50.6638154  26.1689343  11.3276263  51.9231725
  26.1123540  11.4754122  51.1552546  19.2926926   6.6466515  54.1661152
  19.4520412   5.8909839  54.5712874  19.1119819   7.1957454  54.8201890
  19.2892285   6.6160328  54.3223858  24.5050108   2.4870096  51.3115252
  24.5292595   1.9530208  50.6228032  24.7561582   1.9787405  51.9740843
  24.5460027   2.3331000  51.3079897  22.9681043  10.7801654  58.7941291
  22.1176674  10.9173369  58.9298936  23.1309171  10.0465433  59.2388993
  22.8664907  10.6915756  58.8796890  22.2065794   7.7301424  52.9894895
  21.3757723   7.8975242  52.7830144  22.1517311   7.3537375  53.7743781
  22.0755209   7.6991156  53.0743424  20.5801838   6.0057016  43.5185013
  20.7204799   6.5029480  44.2213655  21.0784370   5.3043310  43.6599227
  20.6742919   5.9758995  43.6436592  20.6102060   6.8724127  40.8477590
  21.2447139   7.4684552  40.7827052  20.6927671   6.5727584  41.6623460
  20.7158611   6.9165035  40.9580677  33.5884626   9.4039604  53.7163954
  34.1802466  10.0436855  53.7482152  34.0243620   8.7062641  54.0056021
  33.7403057   9.3957955  53.7644787  25.4178016  13.8256977  54.3421848
  24.9103107  14.3792823  54.7862479  25.1204662  13.8865266  53.5240623
  25.2982901  13.9163288  54.2870305  27.5840198   2.1910296  53.1846511
  28.0095269   1.7382823  52.5730038  26.9697191   1.6370367  53.4611299
  27.5568843   2.0424272  53.1351536  17.1155048   9.0691968  44.1167136
  17.6247277   9.6656475  44.4978442  17.5889320   8.8017941  43.4343556
  17.2598424   9.1177783  44.0721659  28.0285796  17.7420234  42.2725792
  27.3115106  17.5681096  41.8073029  28.6792534  17.5072807  41.7401278
  28.0187646  17.6816027  42.1255010  30.6133767   6.6184823  46.0167097
  29.9424957   7.1614525  45.8880162  31.3073517   7.0879678  45.7748792
  30.6162635   6.7683094  45.9622624  24.6620501  18.7581535  51.2478855
  24.4386155  18.0000364  51.6162881  24.1730344  18.7879556  50.5259295
  24.5563950  18.6503759  51.1955596  30.7761895   3.0740706  48.9257470
  31.1289505   2.6470429  49.6003269  29.9176696   2.9891550  49.0558546
  30.7011339   2.9985447  49.0452480  19.4745580   5.7048226  46.9840316
  18.7557569   6.1212359  47.2513180  19.8457942   6.2702465  46.4331955
  19.4237511   5.8497508  46.9423123  28.7745160   6.3376075  52.8742312
  28.7543088   6.1559370  53.7277091  28.8224361   7.2088094  52.8501896
  28.7779801   6.4392613  52.9965607  26.7191490  12.9263267  58.7990789
  26.6787345  12.2812944  58.2135945  27.5314809  12.8699884  59.1116201
  26.8334644  12.8222234  58.7587738  23.3098958  18.9781993  48.7015940
  22.8959356  18.3156123  48.3119781  23.9946332  19.1259852  48.1811634
  23.3497330  18.9022651  48.5672437  26.6764252  18.1372078  49.4539556
  26.2780535  18.2474349  48.6860376  26.0615472  18.3454144  50.0366116
  26.5263141  18.1845646  49.4270856  25.2492154   4.7446226  42.3213696
  24.6556993   5.0663222  41.7698263  25.2867432   3.8987321  42.1134802
  25.1666543   4.6670554  42.2096467  32.2085955  -1.8040882  49.8541782
  31.7016819  -2.5111742  49.7862960  33.0053388  -2.1347693  49.9842859
  32.2513194  -1.9567730  49.8640777  28.1249971   4.7025730  45.7515446
  27.8963664   4.7258432  44.9093804  28.3848047   3.8783198  45.8710457
  28.1296159   4.5841810  45.6440644  22.4069199   6.5560204  55.3540546
  21.8948102   5.9481387  55.7125578  22.2348695   7.2716796  55.8214522
  22.3058836   6.5723503  55.4756770  34.4106095  12.7124045  42.8382647
  34.7939700  13.4615401  43.0680744  33.6150208  12.9589865  42.5794636
  34.3499877  12.8593739  42.8340220  26.2838269   4.4784448  57.7942802
  26.8409700   4.2498258  57.1621267  25.9599334   5.2390114  57.5178014
  26.3184680   4.5568285  57.6599299  24.0021387   7.5652101  58.7594809
  24.7532714   7.8803778  59.0734363  24.1943963   7.3631272  57.9328731
  24.1412801   7.5819483  58.6838205  23.2221386   5.3843477  40.4143026
  23.6020351   5.4023106  39.6294141  22.4813982   5.8297465  40.2933873
  23.1690224   5.4525251  40.2806594  30.8506677   3.6925668  46.0018604
  30.8500903   3.5374324  46.8602881  30.6462857   4.5388655  45.9459990
  30.8206455   3.7946289  46.1206544  28.5747529   8.3723170  49.6554811
  29.0701194   7.6546165  49.6158832  27.7647305   8.0693967  49.5409298
  28.5291422   8.2220816  49.6328537  24.0206140  12.2220983  41.8051816
  23.2117463  11.8987656  41.7585125  24.5281049  11.5154205  41.7380064
  23.9755807  12.0702299  41.7882110  14.6496418   9.6493176  47.5299180
  13.7841937   9.6378866  47.4181951  14.7495233   9.4623399  48.3770319
  14.5370585   9.6199237  47.6388125  30.6399348  11.1226857  52.3431940
  31.0654419  10.6001279  51.7902365  30.2756268  11.7207695  51.8220563
  30.6485950  11.1337084  52.1840950  20.2753427  19.4191075  51.1029286
  20.5899986  20.2327463  51.1107067  20.6846841  19.0341293  51.7711445
  20.3821525  19.4819777  51.2033377  27.2277947  14.8361121  48.6733098
  27.6989125  15.5501384  48.8423083  27.5638126  14.2359872  49.2092967
  27.3473062  14.8532586  48.7765473  29.3154932  16.4462435  60.8525170
  29.4251897  15.6570995  61.2081917  29.6445828  16.3568371  60.0499508
  29.3807338  16.3168288  60.7867560  27.8651893  14.6279056  55.4360790
  27.3172839  14.0036939  55.1680855  28.3264922  14.8173328  54.7204870
  27.8519103  14.5638106  55.2911221  30.6745758   2.6964410  52.8211982
  30.0908747   3.1973616  52.4089550  30.9950052   2.1893966  52.1876306
  30.6358933   2.6956245  52.6670490  17.6166448  13.3664183  50.7507894
  18.2211305  13.3260017  50.1221715  17.4093760  14.2135335  50.7811950
  17.6755345  13.4852186  50.6624011  27.4310220  15.6330128  51.9670131
  28.2508594  15.4893094  52.2286427  27.1504297  16.2576327  52.5086569
  27.5106963  15.7040480  52.0858071  12.8517730  12.3498801  50.6206817
  12.7542008  11.5395072  50.9296874  13.6346600  12.3290594  50.2353085
  12.9533866  12.2265891  50.6093680  43.9023870  23.2894980  44.9313008
  43.8717874  24.1439617  45.1031277  44.5005219  22.9890272  45.4899151
  43.9861028  23.3711476  45.0387810  37.1023555  22.3770631  49.6865938
  36.2461450  22.5379129  49.7375055  37.1491209  21.5062695  49.7070999
  36.9822666  22.2721433  49.6972004  31.4864695  31.9133349  45.4503170
  30.7347594  31.5348887  45.2219215  31.9350706  31.9451782  44.7021980
  31.4414361  31.8618956  45.3060672  40.4117271  28.6457157  59.2926394
  41.1184039  28.1509187  59.4213329  40.6005207  29.0866238  58.5629052
  40.5445177  28.6375507  59.2035440  36.9389655  32.3358718  40.8788717
  36.6041023  33.0135640  40.4432939  37.4516525  31.9464030  40.2905588
  36.9655236  32.3783297  40.7275508  36.4793946  34.2872987  46.8199828
  36.8633325  34.8559886  46.2804604  36.4153087  33.5622497  46.3405644
  36.5267373  34.2648450  46.6693691  39.9475376  24.4362675  52.3297590
  40.4931336  25.1147761  52.3891559  39.8892252  24.2950136  51.4699171
  40.0191290  24.5154677  52.2109650  33.0649451  31.9251741  47.7165942
  33.1659814  31.1152095  48.0263070  32.4691196  31.8308687  47.0865621
  32.9921989  31.7916769  47.6692181  41.7240445  25.8647282  43.2031318
  41.6079971  26.6154968  43.6323456  42.5196331  25.6071235  43.4527405
  41.8245034  25.9382129  43.3035409  32.9050190  36.8429330  49.1180798
  33.5487646  37.2842494  49.5076957  33.2306446  36.0382756  49.0311057
  33.0482019  36.7894525  49.1626276  26.2614495  27.9472027  47.3418276
  26.0264680  27.1139680  47.2350545  26.4000136  28.2276693  46.5279477
  26.2470158  27.8655531  47.2060631  28.5604583  20.1157758  50.2402584
  27.9409614  19.5250405  50.0712598  28.4588446  20.7069193  49.6066907
  28.4542258  20.1161841  50.1207573  33.6070770  29.8541305  44.4900660
  33.9286611  30.3946512  43.8861968  34.2542867  29.2838076  44.6222950
  33.7496825  29.8500480  44.4207695  35.6572478  21.8557300  44.5735047
  36.3552643  22.0345427  45.0656510  35.9724811  21.3327639  43.9505436
  35.8067815  21.8051072  44.5537057  28.2873716  23.6610040  52.4846153
  28.1632412  24.2472485  53.1195971  28.9392000  23.1670236  52.7858428
  28.3647365  23.6748844  52.6232082  35.8460414  28.2427745  44.5614838
  36.2854049  27.6344845  45.0069611  35.6965076  27.8635118  43.7900303
  35.8881879  28.0966216  44.5134006  33.3132057  26.8371757  51.7633664
  33.9581059  26.3444200  51.4444612  33.5533834  26.9796543  52.5899742
  33.4442642  26.7849199  51.8383197  35.8518148  29.6826663  51.4140556
  36.1341391  28.8878068  51.1927312  36.5804308  30.1607250  51.4345617
  36.0007712  29.6361260  51.3843571  33.8299342  17.2249697  48.6556321
  33.5002672  17.6760840  47.9860020  33.1544344  17.1465860  49.2029328
  33.6809778  17.2800832  48.6379545  39.4469750  26.5954926  41.5145607
  39.3621045  27.4515893  41.6595176  39.9354133  26.3199250  42.1827767
  39.5058647  26.6812248  41.6347689  41.0375750  13.2135219  46.9005932
  40.7229191  13.9038698  47.3326354  40.5202691  13.1580002  46.1991433
  40.9140220  13.3070108  46.8602881  40.3788183  23.2139720  43.0143343
  39.8499655  23.4299354  43.6740649  40.9013203  23.9075859  42.9344312
  40.3776636  23.3482857  43.0998942  45.8336236  28.7886025  48.3876387
  45.0033939  28.9996669  48.5509804  45.7845489  27.9623079  48.1118671
  45.7042972  28.6975631  48.3713752  32.2687791  27.1102937  41.8150811
  31.6845006  27.6152969  42.2216674  31.8657886  26.8845324  41.0747402
  32.1227095  27.1511185  41.7655836  27.8231820  32.8257698  48.6174482
  27.3399398  33.5508188  48.5934066  28.6355138  33.1233828  48.7284640
  27.8722568  32.9760052  48.6301761  33.8945974  31.6189879  51.2224297
  33.3772916  31.2597294  50.6185605  34.5920365  31.0952053  51.2330363
  33.9211555  31.4887567  51.1354555  37.5509566  32.0684693  57.1840470
  37.6392912  31.8810833  58.0318680  37.9799278  31.4222123  56.7845316
  37.6271668  31.9447701  57.2512221  35.1180026  31.3515853  56.1658132
  34.5550860  30.9388463  56.6897793  35.8801049  31.2768759  56.5851275
  35.1474474  31.2793254  56.3051132  36.7265006  23.3568589  40.2919731
  36.9661009  23.5646573  39.4795074  37.0480847  22.5526098  40.4008676
  36.8102164  23.2682690  40.1880284  32.0355296  15.2861985  44.1379269
  32.7901264  15.6540302  43.8996319  31.8582830  15.6601539  44.9058449
  32.1209774  15.3960173  44.2164158  30.6776017  33.3413874  48.7694762
  31.3796596  32.8265863  48.8267518  30.5973500  33.6688026  49.5741637
  30.7699778  33.3128100  48.8967554  45.3290195  21.4356425  52.1826808
  44.4918616  21.5058613  52.4174403  45.2978426  21.4380920  51.3101111
  45.2008477  21.4466653  52.0886356  31.7254924  23.5789461  57.8975177
  31.8975427  23.4695356  58.7460458  32.2624281  24.2243867  57.6606369
  31.8299928  23.6581463  57.9880274  30.3912361  17.6932304  40.8357382
  30.2087934  17.9104185  40.0098375  31.2537974  17.8071317  40.8915996
  30.4916950  17.7422202  40.7211869  30.0026792  29.5320226  48.2780370
  30.8415692  29.7643159  48.3254132  30.0338562  28.6624538  48.2087405
  30.1308510  29.4377173  48.2745015  30.6279496  29.9521101  52.5793675
  31.1677720  29.8092232  53.2497048  29.9449442  30.3517852  52.9477702
  30.6071649  29.9900772  52.7328097  36.0712080  14.6958715  43.8706406
  36.7998240  14.5174670  43.4244562  36.1606973  15.5376794  44.0813584
  36.1918742  14.7942593  43.8359924  40.0520380  25.6312102  47.7738700
  40.8077895  26.0643616  47.8127609  40.1582705  24.9816872  48.3473336
  40.1790551  25.5989586  47.8636725  43.0900551  29.4585379  48.5241103
  42.6535783  29.4622122  49.2800074  42.7563467  30.1390878  48.0920680
  42.9763171  29.5597835  48.5721935  37.6629625  31.4993712  59.8484253
  38.4470042  31.6124560  60.2139995  37.4626220  30.6734849  60.0442939
  37.7495651  31.3940432  59.9318639  26.0316641  26.1721392  52.7328097
  25.7655056  25.3560509  52.8919087  26.0455205  26.2174548  51.8623613
  25.9941363  26.0578297  52.6281579  43.0098034  16.4999207  50.7670531
  43.6523943  16.5697312  51.3532446  43.2621055  15.8328430  50.2650073
  43.1420167  16.4125556  50.7797810  29.9374388  20.9706477  39.3479855
  29.2232565  20.6844656  39.7602288  30.4218356  21.3103102  39.9886243
  29.9033751  20.9788126  39.5035490  30.7815247  19.7099770  55.3795105
  30.0887044  19.2396750  55.6255836  31.3975574  19.4838075  55.9536812
  30.7699777  19.6066902  55.5004257  37.8200018  33.4103814  53.4950709
  37.0215264  33.1703314  53.7524577  38.2686030  33.4618207  54.2417756
  37.7674630  33.3826205  53.6435633  46.2244898  26.1766299  47.4160740
  46.8861332  25.6156968  47.3156649  45.5836310  25.6818330  47.7413431
  46.2273765  26.0202708  47.4493080  37.1121705  29.4736431  39.7241663
  37.5272854  29.1421454  39.0326159  36.2813635  29.2405333  39.5961800
  37.0509714  29.3907687  39.6032511  26.4410054  26.9580172  50.0139841
  26.2585627  26.9327058  49.1612133  27.1759723  27.4279109  50.0528750
  26.5224118  27.0241534  49.8937760  42.5109728  27.1931682  47.1572729
  42.7465318  27.3376880  46.3299579  42.6599292  27.9574090  47.5504242
  42.5675532  27.3270736  47.0936333  29.5055806  23.6765174  56.5221950
  30.2295778  23.6618205  57.0086845  29.6071942  24.3860530  56.0243918
  29.6274015  23.7789878  56.5200737  44.3400185  26.0333347  44.9942333
  44.6708402  26.5660988  44.3882428  44.9133273  26.0872235  45.6504284
  44.4733864  26.1202916  45.0020114  36.8800755  27.1564259  61.3870897
  36.0873736  27.4707771  61.5723517  36.9949682  27.3715727  60.5491682
  36.7796166  27.2348096  61.2909232  39.5532074  23.8798250  45.6765913
  39.6478929  24.6187544  46.1305538  38.9290918  23.4515726  46.1100477
  39.4741104  23.9259571  45.8074060  37.8084548  27.0584463  56.3256194
  38.3823410  26.4211707  56.4804758  37.7299352  27.0588545  55.4565851
  37.8817783  26.9649574  56.2202605  26.4080965  23.8373672  50.1638908
  26.9854467  23.7010123  50.8031153  25.7095026  23.3809456  50.4184492
  26.3901986  23.7495938  50.2961198  39.8055096  25.7246990  38.9102865
  39.7235258  25.7949177  39.7757852  40.4434816  26.2876734  38.7186605
  39.8874933  25.8185961  39.0092814  33.1648267  25.4907728  48.3777391
  32.9067511  24.6579463  48.3508691  33.2196750  25.7165341  47.5369891
  33.1348045  25.4005499  48.2497528  38.2449317  17.5936179  48.4781484
  37.5405644  17.1045364  48.6365403  38.2934291  17.6058653  47.6069928
  38.1479368  17.5225827  48.3720824  32.1382979  23.0445490  48.8642286
  31.5632570  23.2037659  49.5006247  31.7618655  22.4080900  48.4010736
  31.9985791  22.9743303  48.8896844  35.8056268  21.5168840  53.7234664
  35.4170700  21.0923057  53.0686855  35.1410966  21.7650989  54.2311691
  35.6503195  21.4907561  53.7022532  45.4479537  21.2743844  46.4982494
  45.1916102  20.4623786  46.3080377  46.2908851  21.2821412  46.2712682
  45.5345562  21.1555842  46.4367311  21.8839798  22.6885565  46.8786726
  21.9700050  22.3117434  47.6600256  22.5115595  22.3146011  46.4006685
  21.9896349  22.5771047  46.9232204  39.6282629  15.2143468  51.2358648
  40.0093141  14.5321640  51.6226523  38.8245913  14.9253071  51.0534313
  39.5659091  15.0710517  51.2662704  36.9095206  25.7467444  41.9211471
  37.7235845  26.0382337  41.8094243  36.8454347  25.0927307  41.3469764
  37.0197945  25.6932639  41.8200309  43.1304696  28.4293440  56.3341047
  42.8943333  27.5981505  56.2153107  43.7747925  28.3779048  56.9195891
  43.1899367  28.2991128  56.4026940  32.7803114  29.2188962  47.0483783
  33.4177061  28.9800709  47.5935577  33.2058186  29.4226121  46.3136944
  32.9379280  29.2139972  47.0200941  27.4715756  31.4577298  50.9318087
  27.5119902  31.7292149  50.1037867  28.0310281  31.9819206  51.3475875
  27.5599102  31.5753053  50.8709975  33.4205929  24.4391251  41.3858673
  33.8051082  24.2198958  42.1375218  33.1717549  25.2654197  41.5159749
  33.4408002  24.5289398  41.5159749  33.5874469  17.7197667  61.1021257
  33.2727911  18.4897229  60.8390820  33.2664402  17.1567923  60.5173484
  33.4933389  17.7507935  60.9762607  44.1541117  28.2137889  52.3969341
  43.8486934  28.9465946  52.7582657  43.4347332  27.8075819  52.1162127
  44.0028459  28.2619622  52.4082478  35.1624586  29.6961384  48.7277570
  35.2363594  29.5336556  49.5819419  35.9794092  29.8851574  48.4838051
  35.2940945  29.6998127  48.8175595  49.8542909  24.8530890  51.7237686
  49.7867409  24.8726849  50.8540272  49.8398571  25.6961217  51.9493356
  49.8421665  24.9804625  51.6290162  28.9230343  30.0419247  45.7572013
  28.0968460  30.2880984  45.6306292  28.9842334  29.9631328  46.6234071
  28.8104510  30.0664196  45.8660957  31.1406366  16.1088188  46.7167453
  30.2728792  16.1810788  46.7825062  31.4281571  16.9110267  46.9055428
  31.0546115  16.2382335  46.7542220  40.2639255  16.2566048  55.0478775
  41.0092847  16.0675858  54.6342200  39.8476560  16.7824286  54.4892631
  40.3124229  16.3068193  54.9043348  33.7029172  32.6596127  43.4591043
  33.9927470  32.2685109  42.7350270  34.4332653  32.8412832  43.8996318
  33.8536056  32.6289941  43.4173850  47.6401526  23.6275276  49.9984280
  48.1909448  22.9943345  50.2381372  47.6245641  24.1590669  50.6899784
  47.7186722  23.6124224  50.1363138  34.2923917  27.4613873  54.5444173
  33.7935611  28.1729641  54.6229062  35.1024141  27.7814540  54.5062336
  34.3380024  27.6140722  54.5500742  31.6435087  34.6363510  46.5251193
  31.4235383  34.3460865  47.3177860  31.4229609  33.9778465  45.9969105
  31.5782682  34.4963218  46.5640101  30.5552035  26.7236826  48.7906894
  30.2665283  26.0974298  49.3252622  31.4235383  26.6657114  48.8571575
  30.6412286  26.6224371  48.8797849  41.3429932  21.8671610  49.1088876
  40.9994698  21.1461945  49.4596126  41.4422975  21.6585461  48.2667234
  41.3071975  21.7295813  49.0360556  33.8103043  36.0092900  45.3081885
  34.4627101  35.4769342  45.5372911  33.1128652  35.6561552  45.6949759
  33.8033761  35.8782423  45.3994053  30.7584308  28.3632077  44.7149259
  31.5130276  28.7445116  44.9284722  30.1654921  28.8143221  45.1695956
  30.7821021  28.4860905  44.8132138  41.8042961  28.3297314  44.6512864
  42.3700994  28.9890524  44.5671407  41.1570865  28.6747012  45.1229266
  41.7921718  28.4779255  44.7085621  33.2190975  20.3194918  59.8406472
  32.4090751  20.6252697  59.7296314  33.6965662  21.0400500  59.9559056
  33.1694454  20.4709519  59.8413543  32.0782535  29.5340639  50.0889375
  31.5563288  29.6740930  50.7741239  32.4656555  28.7751303  50.2791492
  32.0586235  29.4426163  50.2190451  29.0673719  19.5846447  44.1584329
  28.7798514  19.2147718  43.4216277  29.7544187  20.0541303  43.8968034
  29.1262616  19.5993417  44.0099405  38.2749539  31.2736098  44.0749944
  38.0336215  30.5403959  43.6677009  38.4550872  31.8222955  43.4216277
  38.2657163  31.2458489  43.9180166  33.5048860  26.5644658  45.4870866
  33.3091643  27.1719392  44.8931169  33.7283206  25.8712602  45.0062540
  33.5083501  26.5522183  45.3286947  31.9027390  23.4499396  45.6051734
  32.6250042  23.6140554  45.1455540  31.4235383  24.1709061  45.4991074
  31.9391121  23.5797625  45.5217348  39.8620898  19.7863194  50.9848419
  39.0231998  19.8124473  50.7486682  39.9325265  20.4333930  51.5653766
  39.7489291  19.8859320  51.0357536  29.5535007  25.8557468  54.7105874
  30.0656104  26.1341721  54.0614634  29.2671349  26.5946762  55.0768687
  29.5869870  26.0059822  54.6695752  38.3090176  16.6848571  45.7176035
  39.0116529  16.4856320  45.2395993  38.0434365  15.9124514  46.0244879
  38.3736808  16.5411538  45.6921477  43.7378422  24.9931181  48.2709661
  43.6512396  25.1486607  49.1244440  43.2828901  25.6369257  47.8969066
  43.6581678  25.1106936  48.3416768  26.6401913  20.3627660  45.0069611
  26.7418050  21.1653821  45.3350586  27.4357800  20.1614996  44.7092691
  26.7729819  20.4513559  45.0104966  33.0718732  17.9483857  54.7706916
  32.8801929  17.9638991  55.6206339  33.9217328  18.1447531  54.7473570
  33.1694454  17.9798208  54.8930210  27.4565645  20.4774838  52.7490732
  27.3151137  19.6258779  52.8735240  27.7406209  20.5203499  51.9252938
  27.4773491  20.3574588  52.6458356  37.6104238  22.3141928  46.8935220
  37.3638952  22.2337679  47.7272009  37.9389361  21.5295396  46.6997748
  37.6225481  22.1868194  46.9882743  41.5052286  29.0225288  50.6822002
  41.3666646  29.7206333  51.1870744  40.7252284  28.8673944  50.3258183
  41.3695513  29.1025454  50.7048276  39.8430372  25.3221663  56.9344383
  39.8378410  24.4501480  56.9386810  40.5491365  25.5209832  56.4613839
  39.9475376  25.2225537  56.8651419  33.5701265  25.0498647  56.3058203
  33.7144641  25.6299855  55.6701313  33.9176913  25.4274944  57.0108058
  33.6428726  25.1919351  56.3157198  35.7421182  24.2488815  54.0883335
  34.9944496  24.4419830  53.6831613  35.8962707  23.4234035  53.8507456
  35.6543610  24.1553927  53.9928741  32.6429020  33.2401419  53.1719230
  32.7918584  32.6804335  52.5192635  33.4229022  33.3193420  53.5551749
  32.7803113  33.1686984  53.1316179  43.0005659  28.3803541  41.4438501
  42.6212468  27.5940679  41.4367790  42.3371905  28.9290398  41.3010145
  42.8464134  28.3448365  41.4219298  35.1682320  33.4116062  54.4503721
  35.0925992  32.7424872  55.0054509  35.0972180  34.1133850  54.9644387
  35.1462927  33.4160969  54.6080569  35.9822959  18.1439366  54.9778739
  36.4395573  18.8763340  55.1051531  36.0579288  17.7205831  55.7365995
  36.0613929  18.1896604  55.1079815  28.2255950  18.3905186  56.0668182
  27.6898140  17.7785544  56.3828950  28.2873715  18.9653322  56.7201849
  28.1551583  18.3852114  56.2103609  40.4550285  11.3229241  48.8472582
  40.5733853  11.7805705  48.1139884  40.2812461  10.5174502  48.5608799
  40.4469456  11.2723013  48.6973515  35.8252567  31.9317061  45.2827327
  36.5902459  31.6626704  44.9609991  35.7230657  31.4467071  45.9997390
  35.9234063  31.8206625  45.3407155  33.8605337  20.1341470  51.8220563
  33.0701412  19.9532930  52.1437899  34.2565960  19.3568423  51.8050857
  33.8022213  19.9928931  51.8673111  38.3471228  28.9629244  37.2627276
  39.1144213  29.0229369  36.8533128  37.9002537  28.3909686  36.7783595
  38.3944655  28.8865820  37.1304987  39.2449023  27.7683900  49.5480009
  38.5694025  27.5369132  50.0493396  39.2541400  27.1605083  48.9222114
  39.1467528  27.6442825  49.5296161  36.3743167  22.6101729  56.3044062
  36.3102309  23.4711686  56.1764198  36.5140355  22.2933722  55.5039613
  36.3858638  22.6901896  56.1672275  41.2465758  30.6249032  41.7790187
  41.3285595  31.4316019  41.4551638  41.7315500  30.6444992  42.5030960
  41.3302916  30.7469695  41.8377085  35.0562261  25.3033868  50.4460265
  34.6324510  25.5038367  49.7099283  34.8807117  24.4562716  50.5584564
  34.9673142  25.2082650  50.3533955  34.5573955  36.8184381  52.9081722
  35.0469885  36.1195171  52.7257387  33.9858187  36.5208251  53.4957779
  34.5458485  36.6710605  52.9682763  30.3444706  25.7985920  45.8788237
  30.5009325  25.7332723  46.7344229  30.6845299  26.5734472  45.6666917
  30.4177941  25.9035118  45.9742831  36.8823851  25.1743803  44.7481600
  37.4239396  24.6714185  45.2120221  37.1970410  25.1208998  43.9371086
  37.0088248  25.0923224  44.6965412  40.7540958  29.3846451  61.8608513
  41.5675824  29.1131600  62.0213645  40.5935925  29.0853991  61.0568708
  40.8510907  29.3001377  61.7653918  35.0510301  30.5661155  42.0321628
  35.1203121  29.7075693  42.1714629  35.8298756  30.7833036  41.7040653
  35.1763151  30.4714019  42.0038786  38.0313120  20.0680108  54.8003901
  38.2455090  19.4291022  54.2467255  37.4147019  20.5125932  54.3711763
  37.9718450  20.0390252  54.6554332  39.4417788  32.9898856  46.2458122
  39.0497580  32.6865571  45.5280988  39.5970860  33.8267946  46.0563076
  39.4071378  33.0682693  46.1114619  26.9178968  22.9820870  46.1949004
  27.2977933  23.4005415  45.5309272  26.3434333  23.5634326  46.5017848
  26.8890293  23.1298729  46.1425745  40.1952208  21.6769173  55.7387208
  39.3828890  21.3695064  55.8200381  40.6542143  21.1968173  56.3029920
  40.1432593  21.5605666  55.8341802  39.6057463  29.5548845  46.1864152
  39.2472118  29.7263488  46.9628185  39.1196174  30.0162051  45.6292151
  39.4816160  29.6487816  46.2189421  37.4227849  13.1780044  49.7891244
  36.5521407  13.1518765  49.7424553  37.6768190  13.0057236  48.9717089
  37.3321409  13.1490187  49.6611380  34.3945828  25.2348011  38.7264387
  34.6838353  26.0112893  39.0007961  34.4817627  24.7236742  39.4278886
  34.4500085  25.2739929  38.8706884  37.2905716  23.0829245  60.5215910
  37.7605347  23.7071361  60.9083784  37.3367596  22.4146220  61.0809125
  37.3673592  23.0763925  60.6615982  34.4476989  15.1886272  51.2464714
  33.9315478  14.4966464  51.3716293  33.8870918  15.8557049  51.1927313
  34.2883503  15.1849530  51.2570780  36.5169223  15.7279232  53.0757567
  36.1300976  15.7528264  53.8571096  36.0302160  15.1620911  52.6232083
  36.3881732  15.6474983  53.1245470  40.7662202  30.4452741  57.1331353
  41.4041923  29.9512937  56.7993809  40.1236294  30.3730142  56.5483580
  40.7656429  30.3611750  56.9973708  42.4919202  22.2941887  51.6997269
  42.0646810  22.2068236  50.9445368  41.8545255  22.4019663  52.2852113
  42.3348810  22.2974547  51.6742710  36.1826365  12.6146218  55.3667826
  36.8119483  13.1506518  55.0888897  36.3512227  12.5223577  56.2181392
  36.3004159  12.6807580  55.4516355  35.9840280  17.4017412  57.6394238
  36.8113709  17.1302561  57.6952853  36.0048126  18.1978254  57.9958056
  36.1093130  17.4797167  57.7009421  40.8216459  31.1372549  53.7736710
  41.6108837  30.7861614  53.8938792  40.9960057  31.9508938  53.5113344
  40.9636741  31.2058406  53.7524578  30.5609769  24.5481275  50.8264499
  29.7197776  24.4485149  51.0343393  30.7699777  25.3176755  51.1778819
  30.4674462  24.6473318  50.9091814  28.0385336  22.1700812  48.6549249
  27.6442034  22.2443824  47.8799359  27.4825453  22.5558758  49.2057611
  27.8988149  22.2382587  48.6216909  39.6750283  15.1482106  48.3353128
  39.8799876  15.0804414  49.1810125  39.3476707  15.9540927  48.2674306
  39.6565531  15.2568046  48.4512783  34.3726434  22.4762674  50.0762096
  34.0689572  21.9218663  50.6772504  33.6705855  22.6554884  49.5890130
  34.2242644  22.4207457  50.0931802  33.4292531  19.7863194  44.6406798
  33.7052266  19.0682107  44.2284366  34.0291201  20.3848114  44.4327904
  33.5585796  19.7683565  44.5487559  32.4344785  29.6912395  54.7834194
  32.3265140  29.7014457  55.6496252  32.6440567  30.5167175  54.5939148
  32.4494896  29.8153470  54.8838286  42.9283971  15.7013870  47.8155894
  42.3158284  16.1884272  48.2009626  43.0248146  15.0257361  48.3593545
  42.8521868  15.6732179  47.9534752  36.9303052  17.4576711  42.9153393
  37.3846798  17.6287272  43.6401238  37.4043098  16.8444822  42.5151169
  37.0671372  17.3927597  42.9627155  30.4518577  26.9425037  52.2456132
  29.8606510  27.5834536  52.2159147  31.2139601  27.3662655  52.2187431
  30.4766838  27.1000876  52.2371279  30.8479200  18.1027035  52.9124149
  31.3080682  18.1765965  53.6499273  30.8935307  18.9008289  52.5623971
  30.9229755  18.2321182  52.9696906  32.4962550  18.7693730  57.4796176
  32.1048115  18.1227077  57.9151954  32.6648412  19.3605165  58.0990432
  32.4633460  18.7607998  57.6358882  46.5708999  26.7730807  53.2433410
  46.6292122  27.2217456  53.9893386  45.9375466  27.1829620  52.8063490
  46.4860294  26.9004542  53.2885958  40.2108093  32.3934349  49.6788156
  40.0127782  32.8825163  48.9844367  39.5895805  32.5975590  50.2572289
  40.0895658  32.4950887  49.6611379  34.2716072  24.1619246  44.0198400
  35.0158117  24.5493522  44.2581350  34.4176768  23.3176671  44.1838888
  34.4026657  24.0949719  44.0792370  36.1895647  15.9569505  49.0530262
  35.3431692  16.1292312  48.9271612  36.1866780  15.1518848  49.3896090
  36.0642797  15.8630534  49.0841389  37.2593948  19.7344719  49.9192320
  36.7853902  19.2086481  50.4297631  37.6312083  19.1874192  49.3507181
  37.2443837  19.5760716  49.9107467  27.6366978  21.7316226  55.2875865
  28.4992591  21.6311935  55.2013195  27.3058761  21.1510935  54.7261438
  27.7152174  21.6307853  55.1921271  43.5230678  24.7947095  51.3299100
  43.2828901  23.9553510  51.3341527  44.0022685  24.8747261  52.0539874
  43.5582862  24.6828494  51.4373903  39.1877447  20.6281274  42.9818074
  38.6600466  20.7110018  42.2923782  39.6473155  21.3699145  42.9782718
  39.1779298  20.7501936  42.8792769  45.5235865  21.5748552  49.2828359
  45.2845635  21.5344386  48.4449144  45.6869767  22.4219704  49.4094080
  45.5126169  21.6940637  49.1781841  42.1281895  25.9598501  55.2133404
  42.8516094  25.5071028  55.0344424  41.8631858  26.2403167  54.4305732
  42.1963169  25.9349470  55.0712120  30.9968764  20.5558675  51.9486284
  30.3721834  20.5677067  51.3412236  30.6614359  21.0318850  52.5977524
  30.8554256  20.6277192  51.9542852  31.1810512  18.8983793  38.0058969
  30.8323317  19.5503519  38.4690518  30.7006958  18.8840906  37.2782840
  31.0580756  18.9926847  37.9670060  27.7094439  28.6159135  53.3890048
  27.1794364  27.9251574  53.4385023  27.9819533  28.6069320  52.5602756
  27.6719162  28.5126267  53.2737464  38.7414530  29.1984837  42.1127731
  39.4648729  29.6642950  41.9692304  38.3015121  29.2658447  41.3625328
  38.7830222  29.2768674  41.9812512  37.9100685  26.0582380  53.3628420
  37.2957678  25.5140430  53.6577055  38.4267970  25.5446616  52.8834236
  37.8956347  25.9018789  53.3352648  37.1496982  27.1286650  51.0972718
  36.7224590  26.5036368  50.6638154  37.1421926  26.8461571  51.9231725
  37.0856123  26.9939430  51.1552546  30.2659509  22.1651823  54.1661152
  30.4252996  21.4095147  54.5712874  30.0852403  22.7142762  54.8201890
  30.2624868  22.1345636  54.3223858  38.2079812  14.3313058  54.7211942
  37.7120373  14.5276732  54.0303508  38.9648874  14.7305726  54.5500743
  38.2466637  14.4190792  54.5932078  35.4782692  18.0055404  51.3115252
  35.5025179  17.4715516  50.6228032  35.7294165  17.4972713  51.9740843
  35.5192610  17.8516308  51.3079897  22.9890282  25.2886899  50.7458396
  22.8833731  25.2433743  49.8810480  22.2390502  25.6340680  51.0272681
  22.8625884  25.3327807  50.6595726  31.7584014  16.7326222  50.6920996
  31.7982386  17.2335429  51.4055704  30.9333679  16.8236616  50.4226920
  31.6423540  16.8208039  50.7571535  33.9413627  26.2986962  58.7941291
  33.0909257  26.4358677  58.9298936  34.1041755  25.5650741  59.2388993
  33.8397490  26.2101064  58.8796890  33.1798377  23.2486732  52.9894895
  32.3490307  23.4160550  52.7830144  33.1249895  22.8722683  53.7743781
  33.0487792  23.2176463  53.0743424  30.9882161  16.7395625  58.6251306
  31.6134864  16.1957758  58.8980738  30.5332641  16.2590543  58.0559097
  31.0130421  16.5885106  58.5812900  31.5534421  21.5242324  43.5185013
  31.6937382  22.0214788  44.2213655  32.0516954  20.8228618  43.6599227
  31.6475502  21.4944302  43.6436592  31.5834644  22.3909435  40.8477590
  32.2179723  22.9869860  40.7827052  31.6660254  22.0912892  41.6623460
  31.6891195  22.4350343  40.9580677  44.5617209  24.9224912  53.7163954
  45.1535050  25.5622163  53.7482152  44.9976204  24.2247949  54.0056021
  44.7135641  24.9143262  53.7644787  33.1613626  18.3223410  40.8223032
  33.4829467  17.8426493  40.1682294  33.4240570  19.1323056  40.6313844
  33.2479652  18.3713308  40.6978524  36.3910599  29.3442284  54.3421848
  35.8835690  29.8978131  54.7862479  36.0937245  29.4050574  53.5240623
  36.2715484  29.4348596  54.2870305  38.5572781  17.7095604  53.1846511
  38.9827853  17.2568131  52.5730038  37.9429775  17.1555675  53.4611299
  38.5301427  17.5609580  53.1351536  28.0887631  24.5877275  44.1167136
  28.5979861  25.1841783  44.4978442  28.5621904  24.3203249  43.4343556
  28.2331007  24.6363091  44.0721659  39.0018380  33.2605542  42.2725792
  38.2847689  33.0866404  41.8073029  39.6525117  33.0258114  41.7401278
  38.9920230  33.2001335  42.1255010  36.9967004  14.1810704  46.5937088
  36.3535322  14.0308350  47.1622227  36.6566411  13.9353049  45.8286193
  36.8512082  14.1222826  46.5640103  41.5866351  22.1370131  46.0167097
  40.9157541  22.6799833  45.8880162  42.2806101  22.6064986  45.7748792
  41.5895218  22.2868402  45.9622624  35.6353084  34.2766843  51.2478855
  35.4118739  33.5185672  51.6162881  35.1462928  34.3064864  50.5259295
  35.5296533  34.1689067  51.1955596  41.7494478  18.5926014  48.9257470
  42.1022088  18.1655737  49.6003269  40.8909280  18.5076858  49.0558546
  41.6743923  18.5170755  49.0452480  30.4478163  21.2233534  46.9840316
  29.7290152  21.6397667  47.2513180  30.8190525  21.7887773  46.4331955
  30.3970095  21.3682815  46.9423123  39.7477744  21.8561383  52.8742312
  39.7275671  21.6744678  53.7277091  39.7956945  22.7273401  52.8501896
  39.7512385  21.9577921  52.9965607  37.6924074  28.4448575  58.7990789
  37.6519929  27.7998252  58.2135945  38.5047392  28.3885192  59.1116201
  37.8067227  28.3407542  58.7587738  34.2831541  34.4967301  48.7015940
  33.8691940  33.8341431  48.3119781  34.9678916  34.6445160  48.1811634
  34.3229913  34.4207959  48.5672437  37.6496836  33.6557386  49.4539556
  37.2513119  33.7659656  48.6860376  37.0348055  33.8639452  50.0366116
  37.4995725  33.7030954  49.4270856  36.2224738  20.2631534  42.3213696
  35.6289577  20.5848530  41.7698263  36.2600015  19.4172629  42.1134802
  36.1399127  20.1855862  42.2096467  43.1818538  13.7144426  49.8541782
  42.6749403  13.0073566  49.7862960  43.9785972  13.3837615  49.9842859
  43.2245777  13.5617578  49.8640777  39.0982554  20.2211038  45.7515446
  38.8696247  20.2443740  44.9093804  39.3580630  19.3968505  45.8710457
  39.1028742  20.1027118  45.6440644  33.3801783  22.0745511  55.3540546
  32.8680686  21.4666694  55.7125578  33.2081279  22.7902104  55.8214522
  33.2791420  22.0908811  55.4756770  28.2267497  20.5183087  58.0042908
  28.0570088  21.1784462  57.4591115  27.7833447  20.7289648  58.7255397
  28.1366831  20.6469069  58.0304538  32.1527317  18.7587585  47.0469642
  32.6284683  19.1204665  46.4119823  31.6515916  19.4144052  47.3269785
  32.1492676  18.9081773  46.9946383  45.3838678  28.2309353  42.8382647
  45.7672284  28.9800709  43.0680744  44.5882792  28.4775172  42.5794636
  45.3232460  28.3779047  42.8340220  37.2570853  19.9969756  57.7942802
  37.8142283  19.7683566  57.1621267  36.9331918  20.7575422  57.5178014
  37.2917263  20.0753593  57.6599299  25.1269562  23.4229952  53.2631398
  24.5796281  22.7530598  53.3812266  25.9161940  23.0559800  53.3274865
  25.1621745  23.2694939  53.2900099  34.9753970  23.0837409  58.7594809
  35.7265297  23.3989086  59.0734363  35.1676547  22.8816580  57.9328731
  35.1145384  23.1004791  58.6838205  34.1953970  20.9028785  40.4143026
  34.5752935  20.9208414  39.6294141  33.4546566  21.3482773  40.2933873
  34.1422808  20.9710559  40.2806594  41.8239260  19.2110976  46.0018604
  41.8233487  19.0559632  46.8602881  41.6195440  20.0573963  45.9459990
  41.7939038  19.3131596  46.1206544  23.8856531  22.6350760  50.4177421
  23.7078292  22.1827369  51.1432337  23.5975553  23.4376922  50.6015899
  23.8169484  22.6873318  50.5520924  39.5480112  23.8908478  49.6554811
  40.0433778  23.1731473  49.6158832  38.7379888  23.5879275  49.5409298
  39.5024006  23.7406124  49.6328537  34.9938724  27.7406291  41.8051816
  34.1850047  27.4172964  41.7585125  35.5013633  27.0339513  41.7380064
  34.9488391  27.5887607  41.7882110  25.6229001  25.1678484  47.5299180
  24.7574521  25.1564174  47.4181951  25.7227817  24.9808707  48.3770319
  25.5103168  25.1384545  47.6388125  41.6131931  26.6412165  52.3431940
  42.0387003  26.1186587  51.7902365  41.2488851  27.2393002  51.8220563
  41.6218534  26.6522392  52.1840950  31.2486011  34.9376383  51.1029286
  31.5632570  35.7512771  51.1107067  31.6579424  34.5526601  51.7711445
  31.3554109  35.0005085  51.2033377  38.2010531  30.3546429  48.6733098
  38.6721709  31.0686692  48.8423083  38.5370709  29.7545179  49.2092967
  38.3205646  30.3717894  48.7765473  40.2887515  31.9647743  60.8525170
  40.3984481  31.1756303  61.2081917  40.6178412  31.8753679  60.0499508
  40.3539921  31.8353596  60.7867560  35.1180026  15.1273900  55.6291192
  35.2507931  14.3304893  55.9572168  35.5025178  15.6540303  56.2089468
  35.1936354  15.0873817  55.7634695  38.8384477  30.1464363  55.4360790
  38.2905423  29.5222247  55.1680855  39.2997506  30.3358635  54.7204870
  38.8251686  30.0823414  55.2911221  38.1912381  12.0504226  52.2272286
  37.3858345  11.9401956  52.5440124  38.0619116  12.1516682  51.3702151
  38.0532514  12.0487896  52.1480326  41.6478341  18.2149718  52.8211982
  41.0641330  18.7158924  52.4089550  41.9682635  17.7079274  52.1876306
  41.6091517  18.2141553  52.6670490  34.1873141  17.1290313  43.0970657
  35.0088835  17.2988626  42.8552352  33.7242791  17.2837574  42.3736955
  34.2404303  17.1772046  42.9542302  32.7768472  15.1233075  53.8769086
  33.3212885  14.7824202  54.4673428  32.8305408  15.9818536  54.0190371
  32.8657592  15.1988334  53.9850959  28.5899031  28.8849491  50.7507894
  29.1943889  28.8445325  50.1221715  28.3826344  29.7320643  50.7811950
  28.6487928  29.0037493  50.6624011  38.4042803  31.1515436  51.9670131
  39.2241177  31.0078402  52.2286427  38.1236881  31.7761635  52.5086569
  38.4839547  31.2225788  52.0858071  23.8250313  27.8684109  50.6206817
  23.7274591  27.0580380  50.9296874  24.6079183  27.8475902  50.2353085
  23.9266450  27.7451199  50.6093680  54.8756454  38.8080288  44.9313008
  54.8450458  39.6624925  45.1031277  55.4737802  38.5075580  45.4899151
  54.9593612  38.8896784  45.0387810  48.0756139  37.8955939  49.6865938
  47.2194034  38.0564437  49.7375055  48.1223792  37.0248003  49.7070999
  47.9555250  37.7906741  49.6972004  42.4597278  47.4318657  45.4503170
  41.7080178  47.0534195  45.2219215  42.9083290  47.4637090  44.7021980
  42.4146945  47.3804264  45.3060672  51.3849855  44.1642464  59.2926394
  52.0916622  43.6694495  59.4213329  51.5737791  44.6051546  58.5629052
  51.5177761  44.1560815  59.2035440  47.9122238  47.8544026  40.8788717
  47.5773607  48.5320948  40.4432939  48.4249109  47.4649337  40.2905588
  47.9387819  47.8968604  40.7275508  47.4526529  49.8058295  46.8199828
  47.8365909  50.3745194  46.2804604  47.3885671  49.0807805  46.3405644
  47.4999957  49.7833758  46.6693691  50.9207960  39.9547983  52.3297590
  51.4663920  40.6333069  52.3891559  50.8624836  39.8135444  51.4699171
  50.9923874  40.0339984  52.2109650  44.0382034  47.4437049  47.7165942
  44.1392397  46.6337403  48.0263070  43.4423780  47.3493995  47.0865621
  43.9654573  47.3102077  47.6692181  52.6973028  41.3832590  43.2031318
  52.5812554  42.1340276  43.6323456  53.4928915  41.1256543  43.4527405
  52.7977618  41.4567437  43.3035409  43.8782774  52.3614638  49.1180798
  44.5220229  52.8027802  49.5076957  44.2039030  51.5568064  49.0311057
  44.0214603  52.3079833  49.1626276  37.2347079  43.4657335  47.3418276
  36.9997263  42.6324988  47.2350545  37.3732719  43.7462001  46.5279477
  37.2202741  43.3840839  47.2060631  39.5337166  35.6343066  50.2402584
  38.9142198  35.0435713  50.0712598  39.4321030  36.2254501  49.6066907
  39.4274842  35.6347149  50.1207573  44.5803354  45.3726613  44.4900660
  44.9019195  45.9131820  43.8861968  45.2275450  44.8023384  44.6222950
  44.7229409  45.3685788  44.4207695  46.6305062  37.3742608  44.5735047
  47.3285226  37.5530735  45.0656510  46.9457394  36.8512947  43.9505436
  46.7800399  37.3236380  44.5537057  39.2606299  39.1795348  52.4846153
  39.1364996  39.7657793  53.1195971  39.9124584  38.6855543  52.7858428
  39.3379949  39.1934152  52.6232082  46.8192997  43.7613053  44.5614838
  47.2586633  43.1530153  45.0069611  46.6697660  43.3820426  43.7900303
  46.8614463  43.6151524  44.5134006  44.2864640  42.3557065  51.7633664
  44.9313643  41.8629508  51.4444612  44.5266417  42.4981851  52.5899742
  44.4175225  42.3034507  51.8383197  46.8250732  45.2011971  51.4140556
  47.1073974  44.4063376  51.1927312  47.5536892  45.6792558  51.4345617
  46.9740295  45.1546567  51.3843571  44.8031925  32.7435005  48.6556321
  44.4735255  33.1946148  47.9860020  44.1276927  32.6651168  49.2029328
  44.6542362  32.7986140  48.6379545  50.4202334  42.1140234  41.5145607
  50.3353629  42.9701201  41.6595176  50.9086717  41.8384558  42.1827767
  50.4791231  42.1997556  41.6347689  52.0108333  28.7320527  46.9005932
  51.6961774  29.4224006  47.3326354  51.4935275  28.6765310  46.1991433
  51.8872804  28.8255416  46.8602881  51.3520767  38.7325028  43.0143343
  50.8232238  38.9484662  43.6740649  51.8745787  39.4261167  42.9344312
  51.3509220  38.8668165  43.0998942  56.8068820  44.3071333  48.3876387
  55.9766523  44.5181976  48.5509804  56.7578072  43.4808387  48.1118671
  56.6775555  44.2160939  48.3713752  43.2420375  42.6288245  41.8150811
  42.6577590  43.1338276  42.2216674  42.8390470  42.4030632  41.0747402
  43.0959679  42.6696493  41.7655836  38.7964403  48.3443006  48.6174482
  38.3131982  49.0693496  48.5934066  39.6087722  48.6419136  48.7284640
  38.8455151  48.4945360  48.6301761  44.8678557  47.1375187  51.2224297
  44.3505499  46.7782602  50.6185605  45.5652949  46.6137361  51.2330363
  44.8944139  47.0072875  51.1354555  48.5242149  47.5870001  57.1840470
  48.6125495  47.3996141  58.0318680  48.9531862  46.9407431  56.7845316
  48.6004252  47.4633009  57.2512221  46.0912609  46.8701161  56.1658132
  45.5283444  46.4573771  56.6897793  46.8533633  46.7954067  56.5851275
  46.1207058  46.7978561  56.3051132  47.6997589  38.8753897  40.2919731
  47.9393593  39.0831881  39.4795074  48.0213430  38.0711406  40.4008676
  47.7834747  38.7867998  40.1880284  43.0087879  30.8047293  44.1379269
  43.7633847  31.1725610  43.8996319  42.8315414  31.1786847  44.9058449
  43.0942358  30.9145481  44.2164158  41.6508601  48.8599182  48.7694762
  42.3529180  48.3451171  48.8267518  41.5706084  49.1873333  49.5741637
  41.7432361  48.8313408  48.8967554  56.3022778  36.9541733  52.1826808
  55.4651199  37.0243920  52.4174403  56.2711009  36.9566228  51.3101111
  56.1741061  36.9651960  52.0886356  42.6987507  39.0974769  57.8975177
  42.8708011  38.9880664  58.7460458  43.2356865  39.7429175  57.6606369
  42.8032511  39.1766771  57.9880274  41.3644944  33.2117612  40.8357382
  41.1820517  33.4289493  40.0098375  42.2270557  33.3256625  40.8915996
  41.4649534  33.2607510  40.7211869  40.9759376  45.0505534  48.2780370
  41.8148275  45.2828467  48.3254132  41.0071145  44.1809846  48.2087405
  41.1041094  44.9562481  48.2745015  41.6012079  45.4706409  52.5793675
  42.1410304  45.3277540  53.2497048  40.9182025  45.8703160  52.9477702
  41.5804233  45.5086080  52.7328097  47.0444663  30.2144023  43.8706406
  47.7730824  30.0359978  43.4244562  47.1339556  31.0562102  44.0813584
  47.1651325  30.3127901  43.8359924  51.0252964  41.1497410  47.7738700
  51.7810479  41.5828924  47.8127609  51.1315288  40.5002180  48.3473336
  51.1523135  41.1174894  47.8636725  54.0633135  44.9770687  48.5241103
  53.6268367  44.9807430  49.2800074  53.7296051  45.6576186  48.0920680
  53.9495755  45.0783143  48.5721935  48.6362209  47.0179020  59.8484253
  49.4202625  47.1309868  60.2139995  48.4358803  46.1920157  60.0442939
  48.7228234  46.9125739  59.9318639  37.0049224  41.6906700  52.7328097
  36.7387639  40.8745817  52.8919087  37.0187788  41.7359856  51.8623613
  36.9673946  41.5763605  52.6281579  53.9830618  32.0184515  50.7670531
  54.6256526  32.0882620  51.3532446  54.2353639  31.3513738  50.2650073
  54.1152750  31.9310864  50.7797810  40.9106971  36.4891785  39.3479855
  40.1965148  36.2029964  39.7602288  41.3950940  36.8288410  39.9886243
  40.8766334  36.4973434  39.5035490  41.7547831  35.2285078  55.3795105
  41.0619627  34.7582058  55.6255836  42.3708158  35.0023383  55.9536812
  41.7432360  35.1252210  55.5004257  48.7932602  48.9289122  53.4950709
  47.9947848  48.6888622  53.7524577  49.2418614  48.9803515  54.2417756
  48.7407213  48.9011513  53.6435633  57.1977481  41.6951607  47.4160740
  57.8593915  41.1342276  47.3156649  56.5568893  41.2003638  47.7413431
  57.2006349  41.5388016  47.4493080  48.0854289  44.9921738  39.7241663
  48.5005438  44.6606762  39.0326159  47.2546219  44.7590641  39.5961800
  48.0242298  44.9092994  39.6032511  37.4142638  42.4765480  50.0139841
  37.2318211  42.4512366  49.1612133  38.1492307  42.9464417  50.0528750
  37.4956702  42.5426842  49.8937760  53.4842312  42.7116989  47.1572729
  53.7197901  42.8562188  46.3299579  53.6331876  43.4759398  47.5504242
  53.5408115  42.8456044  47.0936333  40.4788389  39.1950482  56.5221950
  41.2028362  39.1803513  57.0086845  40.5804526  39.9045838  56.0243918
  40.6006599  39.2975186  56.5200737  55.3132769  41.5518655  44.9942333
  55.6440986  42.0846296  44.3882428  55.8865857  41.6057543  45.6504284
  55.4466448  41.6388224  45.0020114  47.8533339  42.6749567  61.3870897
  47.0606320  42.9893079  61.5723517  47.9682266  42.8901035  60.5491682
  47.7528749  42.7533404  61.2909232  50.5264658  39.3983558  45.6765913
  50.6211512  40.1372852  46.1305538  49.9023501  38.9701034  46.1100477
  50.4473688  39.4444879  45.8074060  48.7817132  42.5769771  56.3256194
  49.3555993  41.9397015  56.4804758  48.7031935  42.5773853  55.4565851
  48.8550367  42.4834882  56.2202605  37.3813548  39.3558980  50.1638908
  37.9587051  39.2195431  50.8031153  36.6827610  38.8994764  50.4184492
  37.3634570  39.2681246  50.2961198  50.7787679  41.2432298  38.9102865
  50.6967842  41.3134485  39.7757852  51.4167400  41.8062042  38.7186605
  50.8607517  41.3371269  39.0092814  44.1380850  41.0093036  48.3777391
  43.8800095  40.1764771  48.3508691  44.1929333  41.2350649  47.5369891
  44.1080628  40.9190807  48.2497528  49.2181900  33.1121487  48.4781484
  48.5138227  32.6230672  48.6365403  49.2666875  33.1243961  47.6069928
  49.1211952  33.0411135  48.3720824  43.1115562  38.5630798  48.8642286
  42.5365154  38.7222967  49.5006247  42.7351239  37.9266207  48.4010736
  42.9718375  38.4928611  48.8896844  46.7788851  37.0354148  53.7234664
  46.3903284  36.6108365  53.0686855  46.1143549  37.2836297  54.2311691
  46.6235779  37.0092869  53.7022532  56.4212120  36.7929152  46.4982494
  56.1648685  35.9809094  46.3080377  57.2641434  36.8006719  46.2712682
  56.5078146  36.6741150  46.4367311  32.8572381  38.2070873  46.8786726
  32.9432633  37.8302741  47.6600256  33.4848179  37.8331319  46.4006685
  32.9628932  38.0956355  46.9232204  50.6015213  30.7328776  51.2358648
  50.9825724  30.0506947  51.6226523  49.7978497  30.4438378  51.0534313
  50.5391674  30.5895825  51.2662704  47.8827789  41.2652752  41.9211471
  48.6968428  41.5567645  41.8094243  47.8186931  40.6112615  41.3469764
  47.9930528  41.2117947  41.8200309  54.1037280  43.9478748  56.3341047
  53.8675917  43.1166813  56.2153107  54.7480508  43.8964356  56.9195891
  54.1631950  43.8176436  56.4026940  43.7535698  44.7374270  47.0483783
  44.3909645  44.4986017  47.5935577  44.1790769  44.9411429  46.3136944
  43.9111864  44.7325280  47.0200941  38.4448340  46.9762606  50.9318087
  38.4852485  47.2477457  50.1037867  39.0042864  47.5004514  51.3475875
  38.5331686  47.0938361  50.8709975  44.3938513  39.9576559  41.3858673
  44.7783665  39.7384266  42.1375218  44.1450133  40.7839505  41.5159749
  44.4140585  40.0474706  41.5159749  44.5607053  33.2382975  61.1021257
  44.2460494  34.0082537  60.8390820  44.2396986  32.6753231  60.5173484
  44.4665972  33.2693243  60.9762607  55.1273700  43.7323197  52.3969341
  54.8219517  44.4651254  52.7582657  54.4079916  43.3261127  52.1162127
  54.9761042  43.7804930  52.4082478  46.1357170  45.2146692  48.7277570
  46.2096178  45.0521864  49.5819419  46.9526676  45.4036882  48.4838051
  46.2673528  45.2183435  48.8175595  60.8275492  40.3716198  51.7237686
  60.7599993  40.3912157  50.8540272  60.8131155  41.2146525  51.9493356
  60.8154249  40.4989932  51.6290162  39.8962926  45.5604555  45.7572013
  39.0701044  45.8066292  45.6306292  39.9574917  45.4816636  46.6234071
  39.7837093  45.5849504  45.8660957  42.1138950  31.6273496  46.7167453
  41.2461375  31.6996096  46.7825062  42.4014154  32.4295575  46.9055428
  42.0278698  31.7567643  46.7542220  51.2371839  31.7751355  55.0478775
  51.9825431  31.5861166  54.6342200  50.8209143  32.3009593  54.4892631
  51.2856813  31.8253501  54.9043348  44.6761755  48.1781435  43.4591043
  44.9660054  47.7870417  42.7350270  45.4065236  48.3598140  43.8996318
  44.8268639  48.1475249  43.4173850  58.6134110  39.1460584  49.9984280
  59.1642031  38.5128653  50.2381372  58.5978225  39.6775977  50.6899784
  58.6919306  39.1309532  50.1363138  45.2656500  42.9799181  54.5444173
  44.7668194  43.6914949  54.6229062  46.0756725  43.2999848  54.5062336
  45.3112607  43.1326030  54.5500742  42.6167671  50.1548818  46.5251193
  42.3967966  49.8646172  47.3177860  42.3962193  49.4963773  45.9969105
  42.5515265  50.0148526  46.5640101  41.5284618  42.2422134  48.7906894
  41.2397867  41.6159606  49.3252622  42.3967966  42.1842422  48.8571575
  41.6144870  42.1409679  48.8797849  52.3162516  37.3856918  49.1088876
  51.9727282  36.6647253  49.4596126  52.4155558  37.1770769  48.2667234
  52.2804559  37.2481121  49.0360556  44.7835627  51.5278208  45.3081885
  45.4359685  50.9954650  45.5372911  44.0861235  51.1746860  45.6949759
  44.7766345  51.3967731  45.3994053  41.7316891  43.8817385  44.7149259
  42.4862859  44.2630424  44.9284722  41.1387504  44.3328529  45.1695956
  41.7553605  44.0046213  44.8132138  52.7775545  43.8482622  44.6512864
  53.3433578  44.5075832  44.5671407  52.1303448  44.1932320  45.1229266
  52.7654301  43.9964563  44.7085621  44.1923558  35.8380226  59.8406472
  43.3823334  36.1438005  59.7296314  44.6698245  36.5585808  59.9559056
  44.1427037  35.9894827  59.8413543  43.0515118  45.0525947  50.0889375
  42.5295872  45.1926238  50.7741239  43.4389138  44.2936611  50.2791492
  43.0318819  44.9611470  50.2190451  40.0406302  35.1031755  44.1584329
  39.7531098  34.7333026  43.4216277  40.7276770  35.5726611  43.8968034
  40.0995199  35.1178725  44.0099405  49.2482123  46.7921406  44.0749944
  49.0068799  46.0589267  43.6677009  49.4283456  47.3408263  43.4216277
  49.2389747  46.7643797  43.9180166  44.4781444  42.0829966  45.4870866
  44.2824226  42.6904700  44.8931169  44.7015789  41.3897910  45.0062540
  44.4816085  42.0707491  45.3286947  42.8759974  38.9684704  45.6051734
  43.5982626  39.1325862  45.1455540  42.3967966  39.6894368  45.4991074
  42.9123704  39.0982933  45.5217348  50.8353481  35.3048502  50.9848419
  49.9964582  35.3309781  50.7486682  50.9057849  35.9519238  51.5653766
  50.7221875  35.4044628  51.0357536  40.5267590  41.3742776  54.7105874
  41.0388687  41.6527029  54.0614634  40.2403933  42.1132070  55.0768687
  40.5602454  41.5245130  54.6695752  49.2822760  32.2033879  45.7176035
  49.9849112  32.0041628  45.2395993  49.0166948  31.4309822  46.0244879
  49.3469392  32.0596845  45.6921477  54.7111005  40.5116489  48.2709661
  54.6244980  40.6671915  49.1244440  54.2561485  41.1554565  47.8969066
  54.6314262  40.6292244  48.3416768  37.6134497  35.8812968  45.0069611
  37.7150633  36.6839129  45.3350586  38.4090383  35.6800304  44.7092691
  37.7462402  35.9698867  45.0104966  44.0451316  33.4669165  54.7706916
  43.8534513  33.4824299  55.6206339  44.8949912  33.6632839  54.7473570
  44.1427038  33.4983516  54.8930210  38.4298229  35.9960146  52.7490732
  38.2883721  35.1444087  52.8735240  38.7138792  36.0388807  51.9252938
  38.4506075  35.8759896  52.6458356  48.5836821  37.8327236  46.8935220
  48.3371535  37.7522987  47.7272009  48.9121944  37.0480704  46.6997748
  48.5958065  37.7053502  46.9882743  52.4784870  44.5410596  50.6822002
  52.3399229  45.2391641  51.1870744  51.6984868  44.3859252  50.3258183
  52.3428097  44.6210762  50.7048276  50.8162955  40.8406971  56.9344383
  50.8110994  39.9686788  56.9386810  51.5223949  41.0395140  56.4613839
  50.9207959  40.7410845  56.8651419  44.5433848  40.5683955  56.3058203
  44.6877224  41.1485163  55.6701313  44.8909497  40.9460252  57.0108058
  44.6161310  40.7104659  56.3157198  46.7153766  39.7674123  54.0883335
  45.9677080  39.9605138  53.6831613  46.8695291  38.9419343  53.8507456
  46.6276193  39.6739235  53.9928741  43.6161603  48.7586727  53.1719230
  43.7651167  48.1989643  52.5192635  44.3961606  48.8378728  53.5551749
  43.7535697  48.6872292  53.1316179  53.9738243  43.8988849  41.4438501
  53.5945052  43.1125987  41.4367790  53.3104488  44.4475706  41.3010145
  53.8196718  43.8633673  41.4219298  46.1414904  48.9301370  54.4503721
  46.0658575  48.2610180  55.0054509  46.0704763  49.6319158  54.9644387
  46.1195511  48.9346277  54.6080569  46.9555543  33.6624674  54.9778739
  47.4128157  34.3948648  55.1051531  47.0311872  33.2391139  55.7365995
  47.0346513  33.7081912  55.1079815  39.1988534  33.9090494  56.0668182
  38.6630724  33.2970852  56.3828950  39.2606299  34.4838630  56.7201849
  39.1284167  33.9037421  56.2103609  51.4282869  26.8414549  48.8472582
  51.5466437  27.2991012  48.1139884  51.2545044  26.0359810  48.5608799
  51.4202040  26.7908321  48.6973515  46.7985151  47.4502368  45.2827327
  47.5635042  47.1812012  44.9609991  46.6963241  46.9652379  45.9997390
  46.8966646  47.3391933  45.3407155  44.8337921  35.6526778  51.8220563
  44.0433996  35.4718238  52.1437899  45.2298544  34.8753730  51.8050857
  44.7754797  35.5114239  51.8673111  49.3203812  44.4814552  37.2627276
  50.0876797  44.5414677  36.8533128  48.8735120  43.9094994  36.7783595
  49.3677239  44.4051128  37.1304987  50.2181607  43.2869208  49.5480009
  49.5426609  43.0554440  50.0493396  50.2273983  42.6790391  48.9222114
  50.1200112  43.1628133  49.5296161  47.3475751  38.1287037  56.3044062
  47.2834892  38.9896993  56.1764198  47.4872939  37.8119030  55.5039613
  47.3591221  38.2087204  56.1672275  52.2198342  46.1434340  41.7790187
  52.3018179  46.9501327  41.4551638  52.7048084  46.1630300  42.5030960
  52.3035500  46.2655003  41.8377085  46.0294845  40.8219176  50.4460265
  45.6057094  41.0223675  49.7099283  45.8539700  39.9748024  50.5584564
  45.9405726  40.7267958  50.3533955  45.5306538  52.3369689  52.9081722
  46.0202469  51.6380479  52.7257387  44.9590771  52.0393559  53.4957779
  45.5191068  52.1895913  52.9682763  41.3177290  41.3171228  45.8788237
  41.4741909  41.2518031  46.7344229  41.6577883  42.0919780  45.6666917
  41.3910525  41.4220426  45.9742831  47.8556434  40.6929111  44.7481600
  48.3971980  40.1899492  45.2120221  48.1702994  40.6394306  43.9371086
  47.9820832  40.6108532  44.6965412  51.7273542  44.9031759  61.8608513
  52.5408407  44.6316908  62.0213645  51.5668508  44.6039299  61.0568708
  51.8243490  44.8186685  61.7653918  46.0242884  46.0846463  42.0321628
  46.0935705  45.2261001  42.1714629  46.8031339  46.3018344  41.7040653
  46.1495734  45.9899327  42.0038786  49.0045704  35.5865416  54.8003901
  49.2187673  34.9476330  54.2467255  48.3879603  36.0311240  54.3711763
  48.9451033  35.5575560  54.6554332  50.4150372  48.5084164  46.2458122
  50.0230164  48.2050879  45.5280988  50.5703444  49.3453254  46.0563076
  50.3803962  48.5868001  46.1114619  37.8911551  38.5006178  46.1949004
  38.2710516  38.9190723  45.5309272  37.3166916  39.0819634  46.5017848
  37.8622876  38.6484037  46.1425745  51.1684792  37.1954481  55.7387208
  50.3561474  36.8880371  55.8200381  51.6274726  36.7153481  56.3029920
  51.1165177  37.0790973  55.8341802  50.5790047  45.0734153  46.1864152
  50.2204701  45.2448796  46.9628185  50.0928757  45.5347359  45.6292151
  50.4548743  45.1673124  46.2189421  48.3960433  28.6965352  49.7891244
  47.5253990  28.6704073  49.7424553  48.6500774  28.5242544  48.9717089
  48.3053993  28.6675495  49.6611380  45.3678412  40.7533318  38.7264387
  45.6570937  41.5298201  39.0007961  45.4550211  40.2422050  39.4278886
  45.4232668  40.7925237  38.8706884  48.2638299  38.6014553  60.5215910
  48.7337931  39.2256669  60.9083784  48.3100180  37.9331528  61.0809125
  48.3406175  38.5949233  60.6615982  45.4209573  30.7071580  51.2464714
  44.9048062  30.0151771  51.3716293  44.8603502  31.3742357  51.1927313
  45.2616086  30.7034838  51.2570780  47.4901806  31.2464540  53.0757567
  47.1033560  31.2713572  53.8571096  47.0034744  30.6806219  52.6232083
  47.3614315  31.1660291  53.1245470  51.7394786  45.9638049  57.1331353
  52.3774506  45.4698245  56.7993809  51.0968877  45.8915449  56.5483580
  51.7389012  45.8797057  56.9973708  53.4651786  37.8127195  51.6997269
  53.0379394  37.7253544  50.9445368  52.8277839  37.9204970  52.2852113
  53.3081393  37.8159855  51.6742710  47.1558948  28.1331526  55.3667826
  47.7852066  28.6691826  55.0888897  47.3244811  28.0408884  56.2181392
  47.2736743  28.1992888  55.4516355  46.9572863  32.9202720  57.6394238
  47.7846292  32.6487869  57.6952853  46.9780709  33.7163562  57.9958056
  47.0825713  32.9982474  57.7009421  51.7949042  46.6557857  53.7736710
  52.5841421  46.3046922  53.8938792  51.9692640  47.4694246  53.5113344
  51.9369324  46.7243714  53.7524578  41.5342353  40.0666583  50.8264499
  40.6930359  39.9670457  51.0343393  41.7432361  40.8362063  51.1778819
  41.4407045  40.1658626  50.9091814  39.0117920  37.6886120  48.6549249
  38.6174618  37.7629132  47.8799359  38.4558037  38.0744066  49.2057611
  38.8720732  37.7567895  48.6216909  50.6482867  30.6667414  48.3353128
  50.8532460  30.5989722  49.1810125  50.3209291  31.4726235  48.2674306
  50.6298115  30.7753354  48.4512783  45.3459018  37.9947982  50.0762096
  45.0422155  37.4403970  50.6772504  44.6438439  38.1740192  49.5890130
  45.1975228  37.9392765  50.0931802  44.4025115  35.3048502  44.6406798
  44.6784849  34.5867415  44.2284366  45.0023784  35.9033422  44.4327904
  44.5318380  35.2868873  44.5487559  43.4077369  45.2097703  54.7834194
  43.2997724  45.2199765  55.6496252  43.6173150  46.0352483  54.5939148
  43.4227480  45.3338778  54.8838286  53.9016554  31.2199178  47.8155894
  53.2890868  31.7069580  48.2009626  53.9980729  30.5442669  48.3593545
  53.8254452  31.1917487  47.9534752  47.9035635  32.9762019  42.9153393
  48.3579382  33.1472580  43.6401238  48.3775681  32.3630130  42.5151169
  48.0403956  32.9112905  42.9627155  41.4251161  42.4610345  52.2456132
  40.8339094  43.1019843  52.2159147  42.1872184  42.8847963  52.2187431
  41.4499421  42.6186184  52.2371279  41.8211784  33.6212343  52.9124149
  42.2813265  33.6951272  53.6499273  41.8667890  34.4193597  52.5623971
  41.8962339  33.7506490  52.9696906  43.4695133  34.2879038  57.4796176
  43.0780698  33.6412385  57.9151954  43.6380996  34.8790473  58.0990432
  43.4366044  34.2793306  57.6358882  57.5441582  42.2916115  53.2433410
  57.6024706  42.7402764  53.9893386  56.9108050  42.7014928  52.8063490
  57.4592877  42.4189850  53.2885958  51.1840677  47.9119657  49.6788156
  50.9860366  48.4010471  48.9844367  50.5628388  48.1160898  50.2572289
  51.0628241  48.0136195  49.6611379  45.2448655  39.6804554  44.0198400
  45.9890700  40.0678830  44.2581350  45.3909352  38.8361979  44.1838888
  45.3759240  39.6135027  44.0792370  47.1628231  31.4754813  49.0530262
  46.3164276  31.6477620  48.9271612  47.1599363  30.6704156  49.3896090
  47.0375381  31.3815842  49.0841389  48.2326531  35.2530027  49.9192320
  47.7586485  34.7271789  50.4297631  48.6044667  34.7059500  49.3507181
  48.2176420  35.0946024  49.9107467  38.6099561  37.2501534  55.2875865
  39.4725174  37.1497243  55.2013195  38.2791344  36.6696243  54.7261438
  38.6884758  37.1493160  55.1921271  54.4963262  40.3132403  51.3299100
  54.2561485  39.4738818  51.3341527  54.9755269  40.3932569  52.0539874
  54.5315445  40.2013802  51.4373903  50.1610031  36.1466582  42.9818074
  49.6333050  36.2295326  42.2923782  50.6205739  36.8884453  42.9782718
  50.1511881  36.2687244  42.8792769  56.4968449  37.0933860  49.2828359
  56.2578219  37.0529694  48.4449144  56.6602350  37.9405012  49.4094080
  56.4858752  37.2125945  49.1781841  53.1014479  41.4783809  55.2133404
  53.8248678  41.0256336  55.0344424  52.8364441  41.7588475  54.4305732
  53.1695752  41.4534778  55.0712120  41.9701347  36.0743983  51.9486284
  41.3454418  36.0862375  51.3412236  41.6346942  36.5504158  52.5977524
  41.8286839  36.1462500  51.9542852  42.1543096  34.4169101  38.0058969
  41.8055900  35.0688826  38.4690518  41.6739542  34.4026214  37.2782840
  42.0313340  34.5112155  37.9670060  38.6827023  44.1344443  53.3890048
  38.1526947  43.4436882  53.4385023  38.9552116  44.1254628  52.5602756
  38.6451745  44.0311575  53.2737464  49.7147113  44.7170145  42.1127731
  50.4381312  45.1828258  41.9692304  49.2747704  44.7843755  41.3625328
  49.7562806  44.7953982  41.9812512  48.8833268  41.5767687  53.3628420
  48.2690262  41.0325738  53.6577055  49.4000553  41.0631924  52.8834236
  48.8688931  41.4204096  53.3352648  48.1229566  42.6471957  51.0972718
  47.6957174  42.0221676  50.6638154  48.1154510  42.3646879  51.9231725
  48.0588707  42.5124738  51.1552546  41.2392093  37.6837131  54.1661152
  41.3985579  36.9280455  54.5712874  41.0584986  38.2328070  54.8201890
  41.2357452  37.6530944  54.3223858  49.1812396  29.8498366  54.7211942
  48.6852957  30.0462040  54.0303508  49.9381458  30.2491034  54.5500743
  49.2199220  29.9376100  54.5932078  46.4515275  33.5240712  51.3115252
  46.4757762  32.9900824  50.6228032  46.7026749  33.0158021  51.9740843
  46.4925194  33.3701616  51.3079897  33.9622865  40.8072207  50.7458396
  33.8566314  40.7619051  49.8810480  33.2123085  41.1525988  51.0272681
  33.8358468  40.8513115  50.6595726  42.7316598  32.2511530  50.6920996
  42.7714969  32.7520737  51.4055704  41.9066262  32.3421924  50.4226920
  42.6156123  32.3393347  50.7571535  44.9146210  41.8172270  58.7941291
  44.0641841  41.9543984  58.9298936  45.0774338  41.0836048  59.2388993
  44.8130074  41.7286371  58.8796890  44.1530961  38.7672040  52.9894895
  43.3222891  38.9345858  52.7830144  44.0982478  38.3907991  53.7743781
  44.0220376  38.7361771  53.0743424  41.9614744  32.2580933  58.6251306
  42.5867448  31.7143066  58.8980738  41.5065224  31.7775851  58.0559097
  41.9863005  32.1070414  58.5812900  42.5267005  37.0427632  43.5185013
  42.6669966  37.5400096  44.2213655  43.0249538  36.3413926  43.6599227
  42.6208086  37.0129610  43.6436592  42.5567227  37.9094743  40.8477590
  43.1912307  38.5055168  40.7827052  42.6392838  37.6098200  41.6623460
  42.6623778  37.9535651  40.9580677  55.5349793  40.4410220  53.7163954
  56.1267633  41.0807471  53.7482152  55.9708787  39.7433257  54.0056021
  55.6868224  40.4328570  53.7644787  44.1346210  33.8408718  40.8223032
  44.4562051  33.3611801  40.1682294  44.3973154  34.6508364  40.6313844
  44.2212235  33.8898616  40.6978524  47.3643183  44.8627592  54.3421848
  46.8568274  45.4163439  54.7862479  47.0669829  44.9235882  53.5240623
  47.2448068  44.9533904  54.2870305  49.5305365  33.2280912  53.1846511
  49.9560437  32.7753438  52.5730038  48.9162358  32.6740983  53.4611299
  49.5034010  33.0794888  53.1351536  39.0620215  40.1062583  44.1167136
  39.5712444  40.7027091  44.4978442  39.5354487  39.8388557  43.4343556
  39.2063591  40.1548399  44.0721659  49.9750963  48.7790850  42.2725792
  49.2580273  48.6051712  41.8073029  50.6257701  48.5443422  41.7401278
  49.9652814  48.7186643  42.1255010  47.9699588  29.6996012  46.5937088
  47.3267906  29.5493658  47.1622227  47.6298995  29.4538357  45.8286193
  47.8244665  29.6408134  46.5640103  52.5598934  37.6555439  46.0167097
  51.8890124  38.1985141  45.8880162  53.2538685  38.1250294  45.7748792
  52.5627802  37.8053710  45.9622624  46.6085668  49.7952151  51.2478855
  46.3851322  49.0370980  51.6162881  46.1195511  49.8250172  50.5259295
  46.5029117  49.6874375  51.1955596  52.7227062  34.1111322  48.9257470
  53.0754672  33.6841045  49.6003269  51.8641863  34.0262166  49.0558546
  52.6476506  34.0356063  49.0452480  41.4210747  36.7418842  46.9840316
  40.7022736  37.1582975  47.2513180  41.7923109  37.3073081  46.4331955
  41.3702679  36.8868123  46.9423123  50.7210328  37.3746691  52.8742312
  50.7008255  37.1929986  53.7277091  50.7689528  38.2458709  52.8501896
  50.7244969  37.4763229  52.9965607  48.6656657  43.9633883  58.7990789
  48.6252512  43.3183560  58.2135945  49.4779976  43.9070500  59.1116201
  48.7799811  43.8592850  58.7587738  45.2564125  50.0152609  48.7015940
  44.8424524  49.3526739  48.3119781  45.9411499  50.1630468  48.1811634
  45.2962497  49.9393267  48.5672437  48.6229419  49.1742694  49.4539556
  48.2245702  49.2844964  48.6860376  48.0080639  49.3824760  50.0366116
  48.4728308  49.2216262  49.4270856  47.1957321  35.7816842  42.3213696
  46.6022160  36.1033838  41.7698263  47.2332599  34.9357937  42.1134802
  47.1131710  35.7041170  42.2096467  54.1551122  29.2329734  49.8541782
  53.6481987  28.5258874  49.7862960  54.9518556  28.9022923  49.9842859
  54.1978361  29.0802885  49.8640777  50.0715138  35.7396346  45.7515446
  49.8428831  35.7629048  44.9093804  50.3313214  34.9153813  45.8710457
  50.0761326  35.6212426  45.6440644  44.3534366  37.5930819  55.3540546
  43.8413269  36.9852002  55.7125578  44.1813862  38.3087412  55.8214522
  44.2524003  37.6094119  55.4756770  39.2000081  36.0368395  58.0042908
  39.0302671  36.6969770  57.4591115  38.7566031  36.2474956  58.7255397
  39.1099414  36.1654377  58.0304538  43.1259900  34.2772893  47.0469642
  43.6017266  34.6389972  46.4119823  42.6248500  34.9329360  47.3269785
  43.1225259  34.4267081  46.9946383  56.3571262  43.7494661  42.8382647
  56.7404868  44.4986017  43.0680744  55.5615375  43.9960480  42.5794636
  56.2965044  43.8964355  42.8340220  48.2303436  35.5155064  57.7942802
  48.7874867  35.2868874  57.1621267  47.9064502  36.2760730  57.5178014
  48.2649847  35.5938901  57.6599299  36.1002145  38.9415260  53.2631398
  35.5528865  38.2715906  53.3812266  36.8894524  38.5745108  53.3274865
  36.1354329  38.7880247  53.2900099  45.9486554  38.6022717  58.7594809
  46.6997881  38.9174394  59.0734363  46.1409130  38.4001888  57.9328731
  46.0877968  38.6190099  58.6838205  45.1686553  36.4214092  40.4143026
  45.5485518  36.4393722  39.6294141  44.4279149  36.8668081  40.2933873
  45.1155391  36.4895867  40.2806594  52.7971844  34.7296284  46.0018604
  52.7966070  34.5744940  46.8602881  52.5928024  35.5759271  45.9459990
  52.7671622  34.8316904  46.1206544  34.8589115  38.1536068  50.4177421
  34.6810876  37.7012677  51.1432337  34.5708137  38.9562229  50.6015899
  34.7902068  38.2058626  50.5520924  50.5212696  39.4093785  49.6554811
  51.0166361  38.6916780  49.6158832  49.7112472  39.1064583  49.5409298
  50.4756589  39.2591432  49.6328537  45.9671307  43.2591599  41.8051816
  45.1582630  42.9358272  41.7585125  46.4746216  42.5524821  41.7380064
  45.9220974  43.1072915  41.7882110  36.5961585  40.6863792  47.5299180
  35.7307104  40.6749482  47.4181951  36.6960401  40.4994015  48.3770319
  36.4835752  40.6569853  47.6388125  52.5864515  42.1597473  52.3431940
  53.0119586  41.6371895  51.7902365  52.2221435  42.7578310  51.8220563
  52.5951117  42.1707700  52.1840950  42.2218595  50.4561690  51.1029286
  42.5365154  51.2698079  51.1107067  42.6312008  50.0711909  51.7711445
  42.3286693  50.5190393  51.2033377  49.1743114  45.8731737  48.6733098
  49.6454292  46.5872000  48.8423083  49.5103293  45.2730487  49.2092967
  49.2938229  45.8903201  48.7765473  51.2620099  47.4833051  60.8525170
  51.3717064  46.6941611  61.2081917  51.5910995  47.3938987  60.0499508
  51.3272505  47.3538904  60.7867560  46.0912609  30.6459208  55.6291192
  46.2240515  29.8490201  55.9572168  46.4757762  31.1725611  56.2089468
  46.1668938  30.6059124  55.7634695  49.8117061  45.6649671  55.4360790
  49.2638007  45.0407555  55.1680855  50.2730089  45.8543943  54.7204870
  49.7984270  45.6008722  55.2911221  49.1644964  27.5689534  52.2272286
  48.3590928  27.4587264  52.5440124  49.0351700  27.6701990  51.3702151
  49.0265097  27.5673204  52.1480326  52.6210925  33.7335026  52.8211982
  52.0373914  34.2344232  52.4089550  52.9415219  33.2264582  52.1876306
  52.5824100  33.7326861  52.6670490  45.1605724  32.6475621  43.0970657
  45.9821418  32.8173934  42.8552352  44.6975375  32.8022882  42.3736955
  45.2136886  32.6957354  42.9542302  43.7501056  30.6418383  53.8769086
  44.2945469  30.3009510  54.4673428  43.8037992  31.5003844  54.0190371
  43.8390175  30.7173642  53.9850959  39.5631615  44.4034799  50.7507894
  40.1676472  44.3630633  50.1221715  39.3558927  45.2505951  50.7811950
  39.6220512  44.5222801  50.6624011  49.3775387  46.6700744  51.9670131
  50.1973761  46.5263710  52.2286427  49.0969465  47.2946943  52.5086569
  49.4572130  46.7411096  52.0858071  34.7982897  43.3869416  50.6206817
  34.7007175  42.5765688  50.9296874  35.5811767  43.3661210  50.2353085
  34.8999034  43.2636507  50.6093680  65.8489037  54.3265596  44.9313008
  65.8183042  55.1810232  45.1031277  66.4470386  54.0260888  45.4899151
  65.9326195  54.4082092  45.0387810  59.0488722  53.4141247  49.6865938
  58.1926618  53.5749745  49.7375055  59.0956376  52.5433311  49.7070999
  58.9287834  53.3092049  49.6972004  53.4329862  62.9503965  45.4503170
  52.6812761  62.5719503  45.2219215  53.8815874  62.9822398  44.7021980
  53.3879529  62.8989572  45.3060672  62.3582439  59.6827772  59.2926394
  63.0649206  59.1879803  59.4213329  62.5470374  60.1236854  58.5629052
  62.4910344  59.6746123  59.2035440  58.8854822  63.3729334  40.8788717
  58.5506190  64.0506256  40.4432939  59.3981692  62.9834645  40.2905588
  58.9120403  63.4153912  40.7275508  58.4259113  65.3243603  46.8199828
  58.8098492  65.8930501  46.2804604  58.3618254  64.5993113  46.3405644
  58.4732540  65.3019066  46.6693691  61.8940543  55.4733291  52.3297590
  62.4396503  56.1518377  52.3891559  61.8357419  55.3320752  51.4699171
  61.9656457  55.5525292  52.2109650  55.0114618  62.9622357  47.7165942
  55.1124981  62.1522711  48.0263070  54.4156363  62.8679303  47.0865621
  54.9387157  62.8287385  47.6692181  63.6705612  56.9017898  43.2031318
  63.5545138  57.6525584  43.6323456  64.4661498  56.6441851  43.4527405
  63.7710201  56.9752745  43.3035409  54.8515358  67.8799946  49.1180798
  55.4952813  68.3213110  49.5076957  55.1771613  67.0753372  49.0311057
  54.9947186  67.8265141  49.1626276  48.2079662  58.9842643  47.3418276
  47.9729847  58.1510296  47.2350545  48.3465303  59.2647309  46.5279477
  48.1935325  58.9026147  47.2060631  50.5069750  51.1528374  50.2402584
  49.8874781  50.5621021  50.0712598  50.4053613  51.7439809  49.6066907
  50.4007425  51.1532456  50.1207573  55.5535937  60.8911921  44.4900660
  55.8751778  61.4317128  43.8861968  56.2008034  60.3208692  44.6222950
  55.6961992  60.8871096  44.4207695  57.6037645  52.8927916  44.5735047
  58.3017810  53.0716043  45.0656510  57.9189978  52.3698255  43.9505436
  57.7532983  52.8421688  44.5537057  50.2338883  54.6980656  52.4846153
  50.1097580  55.2843101  53.1195971  50.8857167  54.2040851  52.7858428
  50.3112532  54.7119460  52.6232082  57.7925581  59.2798361  44.5614838
  58.2319216  58.6715461  45.0069611  57.6430244  58.9005734  43.7900303
  57.8347046  59.1336832  44.5134006  55.2597224  57.8742373  51.7633664
  55.9046226  57.3814816  51.4444612  55.4999001  58.0167159  52.5899742
  55.3907809  57.8219815  51.8383197  57.7983315  60.7197278  51.4140556
  58.0806558  59.9248684  51.1927312  58.5269476  61.1977866  51.4345617
  57.9472879  60.6731875  51.3843571  55.7764509  48.2620312  48.6556321
  55.4467839  48.7131456  47.9860020  55.1009511  48.1836476  49.2029328
  55.6274945  48.3171448  48.6379545  61.3934917  57.6325542  41.5145607
  61.3086212  58.4886509  41.6595176  61.8819301  57.3569866  42.1827767
  61.4523815  57.7182863  41.6347689  62.9840917  44.2505835  46.9005932
  62.6694358  44.9409314  47.3326354  62.4667858  44.1950618  46.1991433
  62.8605387  44.3440724  46.8602881  62.3253351  54.2510336  43.0143343
  61.7964822  54.4669970  43.6740649  62.8478370  54.9446475  42.9344312
  62.3241804  54.3853473  43.0998942  54.2152958  58.1473553  41.8150811
  53.6310174  58.6523584  42.2216674  53.8123054  57.9215940  41.0747402
  54.0692262  58.1881801  41.7655836  49.7696987  63.8628314  48.6174482
  49.2864565  64.5878804  48.5934066  50.5820305  64.1604444  48.7284640
  49.8187735  64.0130668  48.6301761  55.8411141  62.6560495  51.2224297
  55.3238083  62.2967910  50.6185605  56.5385532  62.1322669  51.2330363
  55.8676722  62.5258183  51.1354555  58.6730173  54.3939205  40.2919731
  58.9126176  54.6017189  39.4795074  58.9946014  53.5896714  40.4008676
  58.7567331  54.3053306  40.1880284  53.9820463  46.3232601  44.1379269
  54.7366431  46.6910918  43.8996319  53.8047998  46.6972155  44.9058449
  54.0674941  46.4330789  44.2164158  52.6241184  64.3784490  48.7694762
  53.3261764  63.8636479  48.8267518  52.5438667  64.7058641  49.5741637
  52.7164945  64.3498716  48.8967554  53.6720091  54.6160077  57.8975177
  53.8440594  54.5065972  58.7460458  54.2089448  55.2614482  57.6606369
  53.7765095  54.6952079  57.9880274  52.3377528  48.7302920  40.8357382
  52.1553101  48.9474801  40.0098375  53.2003141  48.8441933  40.8915996
  52.4382117  48.7792818  40.7211869  51.9491960  60.5690842  48.2780370
  52.7880859  60.8013775  48.3254132  51.9803729  59.6995153  48.2087405
  52.0773677  60.4747789  48.2745015  52.5744663  60.9891717  52.5793675
  53.1142888  60.8462848  53.2497048  51.8914609  61.3888468  52.9477702
  52.5536817  61.0271388  52.7328097  58.0177247  45.7329331  43.8706406
  58.7463407  45.5545285  43.4244562  58.1072140  46.5747410  44.0813584
  58.1383909  45.8313209  43.8359924  61.9985548  56.6682718  47.7738700
  62.7543063  57.1014232  47.8127609  62.1047872  56.0187488  48.3473336
  62.1255718  56.6360202  47.8636725  65.0365719  60.4955995  48.5241103
  64.6000951  60.4992738  49.2800074  64.7028634  61.1761494  48.0920680
  64.9228339  60.5968451  48.5721935  47.9781808  57.2092008  52.7328097
  47.7120223  56.3931125  52.8919087  47.9920372  57.2545164  51.8623613
  47.9406530  57.0948913  52.6281579  64.9563202  47.5369823  50.7670531
  65.5989110  47.6067928  51.3532446  65.2086222  46.8699046  50.2650073
  65.0885334  47.4496172  50.7797810  51.8839555  52.0077092  39.3479855
  51.1697732  51.7215272  39.7602288  52.3683523  52.3473718  39.9886243
  51.8498918  52.0158742  39.5035490  52.7280414  50.7470386  55.3795105
  52.0352211  50.2767366  55.6255836  53.3440741  50.5208691  55.9536812
  52.7164944  50.6437518  55.5004257  59.7665186  64.4474430  53.4950709
  58.9680431  64.2073930  53.7524577  60.2151197  64.4988823  54.2417756
  59.7139797  64.4196821  53.6435633  68.1710065  57.2136915  47.4160740
  68.8326499  56.6527583  47.3156649  67.5301477  56.7188946  47.7413431
  68.1738932  57.0573324  47.4493080  59.0586873  60.5107046  39.7241663
  59.4738021  60.1792070  39.0326159  58.2278802  60.2775949  39.5961800
  58.9974881  60.4278302  39.6032511  48.3875221  57.9950787  50.0139841
  48.2050795  57.9697673  49.1612133  49.1224890  58.4649725  50.0528750
  48.4689285  58.0612150  49.8937760  64.4574896  58.2302297  47.1572729
  64.6930485  58.3747496  46.3299579  64.6064459  58.9944705  47.5504242
  64.5140699  58.3641352  47.0936333  51.4520973  54.7135790  56.5221950
  52.1760945  54.6988821  57.0086845  51.5537110  55.4231146  56.0243918
  51.5739182  54.8160494  56.5200737  66.2865352  57.0703963  44.9942333
  66.6173569  57.6031603  44.3882428  66.8598440  57.1242851  45.6504284
  66.4199031  57.1573532  45.0020114  61.4997241  54.9168866  45.6765913
  61.5944096  55.6558160  46.1305538  60.8756085  54.4886342  46.1100477
  61.4206272  54.9630187  45.8074060  59.7549715  58.0955079  56.3256194
  60.3288577  57.4582323  56.4804758  59.6764519  58.0959161  55.4565851
  59.8282950  58.0020190  56.2202605  48.3546132  54.8744288  50.1638908
  48.9319634  54.7380739  50.8031153  47.6560193  54.4180072  50.4184492
  48.3367153  54.7866554  50.2961198  61.7520263  56.7617606  38.9102865
  61.6700425  56.8319793  39.7757852  62.3899983  57.3247350  38.7186605
  61.8340100  56.8556577  39.0092814  55.1113434  56.5278344  48.3777391
  54.8532678  55.6950079  48.3508691  55.1661917  56.7535957  47.5369891
  55.0813212  56.4376115  48.2497528  60.1914484  48.6306794  48.4781484
  59.4870811  48.1415980  48.6365403  60.2399458  48.6429269  47.6069928
  60.0944536  48.5596442  48.3720824  54.0848146  54.0816106  48.8642286
  53.5097737  54.2408275  49.5006247  53.7083822  53.4451515  48.4010736
  53.9450958  54.0113919  48.8896844  57.7521435  52.5539456  53.7234664
  57.3635867  52.1293673  53.0686855  57.0876133  52.8021605  54.2311691
  57.5968362  52.5278177  53.7022532  67.3944704  52.3114460  46.4982494
  67.1381269  51.4994402  46.3080377  68.2374018  52.3192027  46.2712682
  67.4810729  52.1926458  46.4367311  43.8304965  53.7256181  46.8786726
  43.9165217  53.3488049  47.6600256  44.4580762  53.3516627  46.4006685
  43.9361516  53.6141663  46.9232204  61.5747796  46.2514084  51.2358648
  61.9558308  45.5692255  51.6226523  60.7711081  45.9623686  51.0534313
  61.5124258  46.1081133  51.2662704  58.8560373  56.7838060  41.9211471
  59.6701012  57.0752953  41.8094243  58.7919514  56.1297922  41.3469764
  58.9663112  56.7303255  41.8200309  65.0769863  59.4664056  56.3341047
  64.8408501  58.6352121  56.2153107  65.7213092  59.4149663  56.9195891
  65.1364534  59.3361744  56.4026940  54.7268281  60.2559578  47.0483783
  55.3642228  60.0171325  47.5935577  55.1523353  60.4596737  46.3136944
  54.8844447  60.2510588  47.0200941  49.4180924  62.4947914  50.9318087
  49.4585069  62.7662765  50.1037867  49.9775448  63.0189822  51.3475875
  49.5064270  62.6123669  50.8709975  55.3671096  55.4761867  41.3858673
  55.7516249  55.2569574  42.1375218  55.1182717  56.3024813  41.5159749
  55.3873169  55.5660014  41.5159749  55.5339637  48.7568283  61.1021257
  55.2193078  49.5267845  60.8390820  55.2129569  48.1938539  60.5173484
  55.4398556  48.7878551  60.9762607  57.1089753  60.7332000  48.7277570
  57.1828761  60.5707172  49.5819419  57.9259259  60.9222190  48.4838051
  57.2406112  60.7368743  48.8175595  50.8695510  61.0789863  45.7572013
  50.0433628  61.3251600  45.6306292  50.9307501  61.0001944  46.6234071
  50.7569677  61.1034812  45.8660957  53.0871534  47.1458804  46.7167453
  52.2193959  47.2181404  46.7825062  53.3746738  47.9480883  46.9055428
  53.0011282  47.2752951  46.7542220  55.6494339  63.6966743  43.4591043
  55.9392637  63.3055725  42.7350270  56.3797820  63.8783448  43.8996318
  55.8001223  63.6660557  43.4173850  69.5866693  54.6645892  49.9984280
  70.1374615  54.0313961  50.2381372  69.5710809  55.1961285  50.6899784
  69.6651890  54.6494840  50.1363138  56.2389084  58.4984489  54.5444173
  55.7400778  59.2100257  54.6229062  57.0489308  58.8185156  54.5062336
  56.2845191  58.6511338  54.5500742  53.5900254  65.6734126  46.5251193
  53.3700550  65.3831480  47.3177860  53.3694776  65.0149081  45.9969105
  53.5247849  65.5333834  46.5640101  52.5017202  57.7607442  48.7906894
  52.2130450  57.1344913  49.3252622  53.3700550  57.7027730  48.8571575
  52.5877454  57.6594986  48.8797849  63.2895099  52.9042226  49.1088876
  62.9459865  52.1832561  49.4596126  63.3888142  52.6956077  48.2667234
  63.2537142  52.7666429  49.0360556  55.7568210  67.0463516  45.3081885
  56.4092268  66.5139958  45.5372911  55.0593819  66.6932168  45.6949759
  55.7498928  66.9153039  45.3994053  52.7049475  59.4002693  44.7149259
  53.4595443  59.7815732  44.9284722  52.1120088  59.8513837  45.1695956
  52.7286189  59.5231521  44.8132138  63.7508129  59.3667930  44.6512864
  64.3166161  60.0261140  44.5671407  63.1036032  59.7117628  45.1229266
  63.7386885  59.5149871  44.7085621  55.1656142  51.3565534  59.8406472
  54.3555918  51.6623313  59.7296314  55.6430829  52.0771116  59.9559056
  55.1159621  51.5080135  59.8413543  54.0247702  60.5711255  50.0889375
  53.5028455  60.7111546  50.7741239  54.4121722  59.8121919  50.2791492
  54.0051403  60.4796778  50.2190451  51.0138886  50.6217063  44.1584329
  50.7263681  50.2518334  43.4216277  51.7009354  51.0911919  43.8968034
  51.0727783  50.6364033  44.0099405  60.2214707  62.3106714  44.0749944
  59.9801383  61.5774575  43.6677009  60.4016040  62.8593571  43.4216277
  60.2122331  62.2829105  43.9180166  55.4514027  57.6015274  45.4870866
  55.2556810  58.2090008  44.8931169  55.6748373  56.9083218  45.0062540
  55.4548668  57.5892799  45.3286947  53.8492557  54.4870012  45.6051734
  54.5715209  54.6511170  45.1455540  53.3700550  55.2079676  45.4991074
  53.8856288  54.6168241  45.5217348  61.8086065  50.8233810  50.9848419
  60.9697165  50.8495089  50.7486682  61.8790432  51.4704546  51.5653766
  61.6954458  50.9229936  51.0357536  51.5000174  56.8928084  54.7105874
  52.0121271  57.1712337  54.0614634  51.2136517  57.6317378  55.0768687
  51.5335037  57.0430438  54.6695752  60.2555343  47.7219187  45.7176035
  60.9581696  47.5226936  45.2395993  59.9899532  46.9495130  46.0244879
  60.3201975  47.5782153  45.6921477  48.5867080  51.3998276  45.0069611
  48.6883217  52.2024437  45.3350586  49.3822967  51.1985612  44.7092691
  48.7194986  51.4884175  45.0104966  55.0183899  48.9854473  54.7706916
  54.8267096  49.0009607  55.6206339  55.8682495  49.1818147  54.7473570
  55.1159621  49.0168824  54.8930210  49.4030812  51.5145454  52.7490732
  49.2616304  50.6629395  52.8735240  49.6871376  51.5574115  51.9252938
  49.4238658  51.3945204  52.6458356  59.5569405  53.3512544  46.8935220
  59.3104119  53.2708295  47.7272009  59.8854528  52.5666012  46.6997748
  59.5690648  53.2238810  46.9882743  61.7895539  56.3592279  56.9344383
  61.7843577  55.4872095  56.9386810  62.4956533  56.5580448  56.4613839
  61.8940543  56.2596153  56.8651419  55.5166432  56.0869263  56.3058203
  55.6609808  56.6670471  55.6701313  55.8642081  56.4645560  57.0108058
  55.5893893  56.2289967  56.3157198  57.6886349  55.2859431  54.0883335
  56.9409663  55.4790446  53.6831613  57.8427875  54.4604651  53.8507456
  57.6008777  55.1924543  53.9928741  54.5894187  64.2772035  53.1719230
  54.7383751  63.7174950  52.5192635  55.3694189  64.3564036  53.5551749
  54.7268281  64.2057600  53.1316179  64.9470826  59.4174157  41.4438501
  64.5677635  58.6311295  41.4367790  64.2837072  59.9661014  41.3010145
  64.7929301  59.3818981  41.4219298  57.1147488  64.4486678  54.4503721
  57.0391159  63.7795488  55.0054509  57.0437347  65.1504466  54.9644387
  57.0928095  64.4531585  54.6080569  57.9288126  49.1809982  54.9778739
  58.3860741  49.9133956  55.1051531  58.0044455  48.7576447  55.7365995
  58.0079096  49.2267220  55.1079815  50.1721118  49.4275802  56.0668182
  49.6363307  48.8156160  56.3828950  50.2338882  50.0023938  56.7201849
  50.1016750  49.4222729  56.2103609  62.4015452  42.3599857  48.8472582
  62.5199020  42.8176320  48.1139884  62.2277628  41.5545118  48.5608799
  62.3934623  42.3093629  48.6973515  57.7717735  62.9687676  45.2827327
  58.5367626  62.6997320  44.9609991  57.6695825  62.4837687  45.9997390
  57.8699230  62.8577241  45.3407155  55.8070504  51.1712086  51.8220563
  55.0166579  50.9903546  52.1437899  56.2031127  50.3939038  51.8050857
  55.7487381  51.0299547  51.8673111  60.2936395  59.9999860  37.2627276
  61.0609380  60.0599985  36.8533128  59.8467704  59.4280302  36.7783595
  60.3409822  59.9236436  37.1304987  61.1914191  58.8054516  49.5480009
  60.5159192  58.5739748  50.0493396  61.2006567  58.1975699  48.9222114
  61.0932695  58.6813441  49.5296161  58.3208335  53.6472345  56.3044062
  58.2567476  54.5082301  56.1764198  58.4605522  53.3304338  55.5039613
  58.3323805  53.7272512  56.1672275  63.1930925  61.6619648  41.7790187
  63.2750763  62.4686635  41.4551638  63.6780667  61.6815608  42.5030960
  63.2768083  61.7840311  41.8377085  57.0027429  56.3404484  50.4460265
  56.5789678  56.5408983  49.7099283  56.8272284  55.4933332  50.5584564
  56.9138309  56.2453266  50.3533955  56.5039122  67.8554997  52.9081722
  56.9935052  67.1565786  52.7257387  55.9323354  67.5578867  53.4957779
  56.4923652  67.7081221  52.9682763  52.2909873  56.8356536  45.8788237
  52.4474493  56.7703339  46.7344229  52.6310467  57.6105088  45.6666917
  52.3643108  56.9405734  45.9742831  58.8289018  56.2114419  44.7481600
  59.3704564  55.7084800  45.2120221  59.1435577  56.1579614  43.9371086
  58.9553415  56.1293840  44.6965412  62.7006125  60.4217067  61.8608513
  63.5140991  60.1502216  62.0213645  62.5401092  60.1224607  61.0568708
  62.7976074  60.3371993  61.7653918  56.9975468  61.6031771  42.0321628
  57.0668288  60.7446309  42.1714629  57.7763923  61.8203652  41.7040653
  57.1228318  61.5084635  42.0038786  59.9778287  51.1050724  54.8003901
  60.1920257  50.4661638  54.2467255  59.3612187  51.5496548  54.3711763
  59.9183617  51.0760867  54.6554332  61.3882955  64.0269472  46.2458122
  60.9962747  63.7236187  45.5280988  61.5436028  64.8638562  46.0563076
  61.3536545  64.1053309  46.1114619  48.8644135  54.0191486  46.1949004
  49.2443100  54.4376031  45.5309272  48.2899500  54.6004942  46.5017848
  48.8355460  54.1669345  46.1425745  62.1417375  52.7139789  55.7387208
  61.3294057  52.4065679  55.8200381  62.6007310  52.2338789  56.3029920
  62.0897760  52.5976281  55.8341802  61.5522630  60.5919461  46.1864152
  61.1937285  60.7634104  46.9628185  61.0661341  61.0532667  45.6292151
  61.4281327  60.6858432  46.2189421  59.3693016  44.2150659  49.7891244
  58.4986574  44.1889381  49.7424553  59.6233357  44.0427852  48.9717089
  59.2786576  44.1860803  49.6611380  56.3410996  56.2718626  38.7264387
  56.6303520  57.0483509  39.0007961  56.4282794  55.7607358  39.4278886
  56.3965252  56.3110545  38.8706884  59.2370883  54.1199860  60.5215910
  59.7070514  54.7441977  60.9083784  59.2832763  53.4516836  61.0809125
  59.3138759  54.1134541  60.6615982  56.3942157  46.2256888  51.2464714
  55.8780645  45.5337079  51.3716293  55.8336085  46.8927665  51.1927313
  56.2348670  46.2220146  51.2570780  58.4634390  46.7649848  53.0757567
  58.0766143  46.7898879  53.8571096  57.9767327  46.1991527  52.6232083
  58.3346899  46.6845599  53.1245470  62.7127369  61.4823357  57.1331353
  63.3507090  60.9883553  56.7993809  62.0701461  61.4100757  56.5483580
  62.7121596  61.3982365  56.9973708  58.1291532  43.6516833  55.3667826
  58.7584650  44.1877133  55.0888897  58.2977394  43.5594192  56.2181392
  58.2469326  43.7178196  55.4516355  57.9305447  48.4388028  57.6394238
  58.7578876  48.1673177  57.6952853  57.9513293  49.2348870  57.9958056
  58.0558297  48.5167782  57.7009421  62.7681626  62.1743165  53.7736710
  63.5574004  61.8232230  53.8938792  62.9425224  62.9879554  53.5113344
  62.9101908  62.2429022  53.7524578  52.5074937  55.5851891  50.8264499
  51.6662943  55.4855765  51.0343393  52.7164944  56.3547371  51.1778819
  52.4139629  55.6843934  50.9091814  49.9850503  53.2071428  48.6549249
  49.5907201  53.2814440  47.8799359  49.4290620  53.5929374  49.2057611
  49.8453316  53.2753203  48.6216909  61.6215450  46.1852722  48.3353128
  61.8265044  46.1175030  49.1810125  61.2941874  46.9911543  48.2674306
  61.6030698  46.2938662  48.4512783  56.3191601  53.5133290  50.0762096
  56.0154739  52.9589278  50.6772504  55.6171022  53.6925500  49.5890130
  56.1707811  53.4578072  50.0931802  55.3757698  50.8233810  44.6406798
  55.6517433  50.1052722  44.2284366  55.9756368  51.4218730  44.4327904
  55.5050963  50.8054181  44.5487559  54.3809952  60.7283011  54.7834194
  54.2730307  60.7385073  55.6496252  54.5905734  61.5537791  54.5939148
  54.3960063  60.8524086  54.8838286  64.8749138  46.7384486  47.8155894
  64.2623452  47.2254888  48.2009626  64.9713313  46.0627977  48.3593545
  64.7987036  46.7102795  47.9534752  58.8768219  48.4947327  42.9153393
  59.3311966  48.6657888  43.6401238  59.3508265  47.8815438  42.5151169
  59.0136539  48.4298213  42.9627155  52.3983744  57.9795653  52.2456132
  51.8071678  58.6205151  52.2159147  53.1604768  58.4033271  52.2187431
  52.4232005  58.1371492  52.2371279  52.7944367  49.1397651  52.9124149
  53.2545849  49.2136580  53.6499273  52.8400474  49.9378905  52.5623971
  52.8694922  49.2691798  52.9696906  54.4427717  49.8064346  57.4796176
  54.0513282  49.1597693  57.9151954  54.6113580  50.3975781  58.0990432
  54.4098627  49.7978614  57.6358882  56.2181239  55.1989862  44.0198400
  56.9623284  55.5864138  44.2581350  56.3641935  54.3547287  44.1838888
  56.3491824  55.1320334  44.0792370  58.1360814  46.9940121  49.0530262
  57.2896859  47.1662928  48.9271612  58.1331947  46.1889464  49.3896090
  58.0107964  46.9001149  49.0841389  59.2059115  50.7715335  49.9192320
  58.7319069  50.2457097  50.4297631  59.5777251  50.2244808  49.3507181
  59.1909004  50.6131332  49.9107467  49.5832145  52.7686842  55.2875865
  50.4457758  52.6682551  55.2013195  49.2523928  52.1881551  54.7261438
  49.6617341  52.6678468  55.1921271  61.1342614  51.6651890  42.9818074
  60.6065633  51.7480634  42.2923782  61.5938323  52.4069761  42.9782718
  61.1244465  51.7872552  42.8792769  67.4701032  52.6119168  49.2828359
  67.2310802  52.5715002  48.4449144  67.6334934  53.4590320  49.4094080
  67.4591336  52.7311253  49.1781841  52.9433931  51.5929291  51.9486284
  52.3187001  51.6047683  51.3412236  52.6079526  52.0689466  52.5977524
  52.8019423  51.6647808  51.9542852  53.1275680  49.9354409  38.0058969
  52.7788484  50.5874134  38.4690518  52.6472125  49.9211522  37.2782840
  53.0045924  50.0297463  37.9670060  49.6559606  59.6529751  53.3890048
  49.1259531  58.9622190  53.4385023  49.9284700  59.6439936  52.5602756
  49.6184329  59.5496883  53.2737464  60.6879697  60.2355453  42.1127731
  61.4113896  60.7013566  41.9692304  60.2480288  60.3029063  41.3625328
  60.7295389  60.3139290  41.9812512  59.8565852  57.0952995  53.3628420
  59.2422845  56.5511046  53.6577055  60.3733137  56.5817232  52.8834236
  59.8421514  56.9389404  53.3352648  59.0962149  58.1657265  51.0972718
  58.6689757  57.5406984  50.6638154  59.0887094  57.8832187  51.9231725
  59.0321290  58.0310046  51.1552546  52.2124676  53.2022438  54.1661152
  52.3718163  52.4465763  54.5712874  52.0317570  53.7513378  54.8201890
  52.2090035  53.1716252  54.3223858  60.1544979  45.3683674  54.7211942
  59.6585541  45.5647348  54.0303508  60.9114041  45.7676342  54.5500743
  60.1931804  45.4561408  54.5932078  57.4247859  49.0426020  51.3115252
  57.4490346  48.5086132  50.6228032  57.6759333  48.5343329  51.9740843
  57.4657778  48.8886924  51.3079897  44.9355449  56.3257515  50.7458396
  44.8298898  56.2804359  49.8810480  44.1855669  56.6711295  51.0272681
  44.8091052  56.3698423  50.6595726  53.7049181  47.7696838  50.6920996
  53.7447553  48.2706045  51.4055704  52.8798846  47.8607232  50.4226920
  53.5888707  47.8578654  50.7571535  55.1263545  54.2857348  52.9894895
  54.2955474  54.4531166  52.7830144  55.0715062  53.9093299  53.7743781
  54.9952959  54.2547079  53.0743424  52.9347328  47.7766241  58.6251306
  53.5600031  47.2328374  58.8980738  52.4797808  47.2961159  58.0559097
  52.9595588  47.6255722  58.5812900  53.4999588  52.5612940  43.5185013
  53.6402549  53.0585404  44.2213655  53.9982121  51.8599234  43.6599227
  53.5940669  52.5314918  43.6436592  53.5299811  53.4280051  40.8477590
  54.1644890  54.0240476  40.7827052  53.6125422  53.1283508  41.6623460
  53.6356362  53.4720959  40.9580677  55.1078794  49.3594026  40.8223032
  55.4294635  48.8797109  40.1682294  55.3705737  50.1693672  40.6313844
  55.1944819  49.4083924  40.6978524  58.3375766  60.3812900  54.3421848
  57.8300857  60.9348747  54.7862479  58.0402413  60.4421190  53.5240623
  58.2180651  60.4719212  54.2870305  60.5037949  48.7466220  53.1846511
  60.9293020  48.2938746  52.5730038  59.8894942  48.1926291  53.4611299
  60.4766594  48.5980196  53.1351536  50.0352799  55.6247891  44.1167136
  50.5445028  56.2212399  44.4978442  50.5087071  55.3573865  43.4343556
  50.1796174  55.6733707  44.0721659  60.9483547  64.2976158  42.2725792
  60.2312856  64.1237020  41.8073029  61.5990284  64.0628730  41.7401278
  60.9385397  64.2371951  42.1255010  58.9432171  45.2181320  46.5937088
  58.3000489  45.0678966  47.1622227  58.6031578  44.9723665  45.8286193
  58.7977249  45.1593442  46.5640103  63.5331518  53.1740747  46.0167097
  62.8622708  53.7170449  45.8880162  64.2271268  53.6435602  45.7748792
  63.5360385  53.3239018  45.9622624  57.5818252  65.3137459  51.2478855
  57.3583906  64.5556288  51.6162881  57.0928095  65.3435480  50.5259295
  57.4761701  65.2059683  51.1955596  63.6959645  49.6296630  48.9257470
  64.0487255  49.2026353  49.6003269  62.8374447  49.5447474  49.0558546
  63.6209090  49.5541371  49.0452480  52.3943330  52.2604150  46.9840316
  51.6755319  52.6768282  47.2513180  52.7655693  52.8258389  46.4331955
  52.3435262  52.4053431  46.9423123  61.6942911  52.8931999  52.8742312
  61.6740838  52.7115294  53.7277091  61.7422112  53.7644017  52.8501896
  61.6977552  52.9948537  52.9965607  56.2296709  65.5337917  48.7015940
  55.8157107  64.8712047  48.3119781  56.9144083  65.6815775  48.1811634
  56.2695080  65.4578575  48.5672437  59.5962003  64.6928002  49.4539556
  59.1978286  64.8030272  48.6860376  58.9813222  64.9010068  50.0366116
  59.4460892  64.7401570  49.4270856  58.1689905  51.3002150  42.3213696
  57.5754744  51.6219146  41.7698263  58.2065182  50.4543245  42.1134802
  58.0864294  51.2226478  42.2096467  65.1283705  44.7515042  49.8541782
  64.6214570  44.0444182  49.7862960  65.9251139  44.4208231  49.9842859
  65.1710945  44.5988193  49.8640777  61.0447721  51.2581654  45.7515446
  60.8161414  51.2814356  44.9093804  61.3045797  50.4339121  45.8710457
  61.0493909  51.1397734  45.6440644  55.3266950  53.1116127  55.3540546
  54.8145853  52.5037310  55.7125578  55.1546446  53.8272720  55.8214522
  55.2256587  53.1279427  55.4756770  50.1732664  51.5553703  58.0042908
  50.0035255  52.2155077  57.4591115  49.7298614  51.7660264  58.7255397
  50.0831998  51.6839685  58.0304538  54.0992484  49.7958201  47.0469642
  54.5749850  50.1575280  46.4119823  53.5981083  50.4514668  47.3269785
  54.0957843  49.9452389  46.9946383  67.3303845  59.2679969  42.8382647
  67.7137451  60.0171325  43.0680744  66.5347959  59.5145788  42.5794636
  67.2697628  59.4149663  42.8340220  59.2036020  51.0340372  57.7942802
  59.7607450  50.8054182  57.1621267  58.8797085  51.7946038  57.5178014
  59.2382430  51.1124209  57.6599299  47.0734729  54.4600568  53.2631398
  46.5261448  53.7901214  53.3812266  47.8627107  54.0930416  53.3274865
  47.1086913  54.3065555  53.2900099  56.9219137  54.1208025  58.7594809
  57.6730464  54.4359702  59.0734363  57.1141714  53.9187196  57.9328731
  57.0610551  54.1375407  58.6838205  56.1419137  51.9399400  40.4143026
  56.5218102  51.9579030  39.6294141  55.4011733  52.3853389  40.2933873
  56.0887975  52.0081175  40.2806594  63.7704427  50.2481592  46.0018604
  63.7698654  50.0930248  46.8602881  63.5660608  51.0944579  45.9459990
  63.7404205  50.3502212  46.1206544  45.8321698  53.6721376  50.4177421
  45.6543460  53.2197985  51.1432337  45.5440721  54.4747537  50.6015899
  45.7634652  53.7243934  50.5520924  61.4945280  54.9279093  49.6554811
  61.9898945  54.2102088  49.6158832  60.6845055  54.6249891  49.5409298
  61.4489173  54.7776740  49.6328537  56.9403891  58.7776907  41.8051816
  56.1315214  58.4543580  41.7585125  57.4478800  58.0710129  41.7380064
  56.8953558  58.6258223  41.7882110  47.5694168  56.2049100  47.5299180
  46.7039688  56.1934790  47.4181951  47.6692984  56.0179323  48.3770319
  47.4568335  56.1755161  47.6388125  53.1951178  65.9746998  51.1029286
  53.5097737  66.7883387  51.1107067  53.6044592  65.5897217  51.7711445
  53.3019276  66.0375701  51.2033377  60.1475698  61.3917045  48.6733098
  60.6186876  62.1057308  48.8423083  60.4835876  60.7915795  49.2092967
  60.2670813  61.4088509  48.7765473  62.2352682  63.0018359  60.8525170
  62.3449648  62.2126919  61.2081917  62.5643579  62.9124295  60.0499508
  62.3005088  62.8724211  60.7867560  57.0645193  46.1644516  55.6291192
  57.1973098  45.3675509  55.9572168  57.4490346  46.6910919  56.2089468
  57.1401522  46.1244432  55.7634695  60.7849644  61.1834979  55.4360790
  60.2370590  60.5592863  55.1680855  61.2462673  61.3729251  54.7204870
  60.7716854  61.1194029  55.2911221  60.1377548  43.0874842  52.2272286
  59.3323512  42.9772571  52.5440124  60.0084283  43.1887298  51.3702151
  59.9997681  43.0858512  52.1480326  63.5943509  49.2520334  52.8211982
  63.0106497  49.7529540  52.4089550  63.9147803  48.7449890  52.1876306
  63.5556684  49.2512169  52.6670490  56.1338308  48.1660929  43.0970657
  56.9554002  48.3359241  42.8552352  55.6707959  48.3208190  42.3736955
  56.1869470  48.2142662  42.9542302  54.7233640  46.1603691  53.8769086
  55.2678053  45.8194818  54.4673428  54.7770575  47.0189152  54.0190371
  54.8122759  46.2358950  53.9850959  50.5364198  59.9220107  50.7507894
  51.1409056  59.8815941  50.1221715  50.3291511  60.7691259  50.7811950
  50.5953096  60.0408109  50.6624011  60.3507970  62.1886052  51.9670131
  61.1706344  62.0449018  52.2286427  60.0702048  62.8132251  52.5086569
  60.4304714  62.2596404  52.0858071  45.7715481  58.9054724  50.6206817
  45.6739759  58.0950996  50.9296874  46.5544350  58.8846518  50.2353085
  45.8731617  58.7821815  50.6093680  76.8221621  69.8450904  44.9313008
  76.7915625  70.6995540  45.1031277  77.4202970  69.5446196  45.4899151
  76.9058779  69.9267400  45.0387810  70.0221306  68.9326555  49.6865938
  69.1659201  69.0935053  49.7375055  70.0688959  68.0618619  49.7070999
  69.9020417  68.8277357  49.6972004  64.4062445  78.4689273  45.4503170
  63.6545345  78.0904811  45.2219215  64.8548457  78.5007706  44.7021980
  64.3612112  78.4174880  45.3060672  73.3315022  75.2013080  59.2926394
  74.0381789  74.7065111  59.4213329  73.5202958  75.6422162  58.5629052
  73.4642928  75.1931431  59.2035440  69.8587405  78.8914642  40.8788717
  69.5238774  79.5691564  40.4432939  70.3714276  78.5019953  40.2905588
  69.8852986  78.9339220  40.7275508  69.3991697  80.8428911  46.8199828
  69.7831076  81.4115809  46.2804604  69.3350838  80.1178421  46.3405644
  69.4465124  80.8204374  46.6693691  72.8673127  70.9918599  52.3297590
  73.4129087  71.6703685  52.3891559  72.8090003  70.8506059  51.4699171
  72.9389041  71.0710600  52.2109650  65.9847202  78.4807665  47.7165942
  66.0857565  77.6708019  48.0263070  65.3888947  78.3864611  47.0865621
  65.9119740  78.3472693  47.6692181  74.6438195  72.4203206  43.2031318
  74.5277721  73.1710892  43.6323456  75.4394082  72.1627159  43.4527405
  74.7442785  72.4938053  43.3035409  65.8247941  83.3985254  49.1180798
  66.4685397  83.8398418  49.5076957  66.1504197  82.5938680  49.0311057
  65.9679770  83.3450449  49.1626276  59.1812246  74.5027951  47.3418276
  58.9462430  73.6695604  47.2350545  59.3197887  74.7832617  46.5279477
  59.1667908  74.4211455  47.2060631  66.5268521  76.4097229  44.4900660
  66.8484362  76.9502436  43.8861968  67.1740617  75.8394000  44.6222950
  66.6694576  76.4056404  44.4207695  68.5770229  68.4113224  44.5735047
  69.2750394  68.5901351  45.0656510  68.8922561  67.8883563  43.9505436
  68.7265566  68.3606996  44.5537057  61.2071466  70.2165964  52.4846153
  61.0830163  70.8028409  53.1195971  61.8589751  69.7226159  52.7858428
  61.2845116  70.2304768  52.6232082  68.7658164  74.7983669  44.5614838
  69.2051800  74.1900769  45.0069611  68.6162827  74.4191042  43.7900303
  68.8079630  74.6522140  44.5134006  66.2329807  73.3927681  51.7633664
  66.8778810  72.9000124  51.4444612  66.4731584  73.5352467  52.5899742
  66.3640392  73.3405123  51.8383197  68.7715899  76.2382586  51.4140556
  69.0539142  75.4433992  51.1927312  69.5002059  76.7163174  51.4345617
  68.9205462  76.1917183  51.3843571  72.3667501  73.1510850  41.5145607
  72.2818796  74.0071817  41.6595176  72.8551884  72.8755174  42.1827767
  72.4256398  73.2368171  41.6347689  73.2985934  69.7695644  43.0143343
  72.7697406  69.9855278  43.6740649  73.8210954  70.4631783  42.9344312
  73.2974387  69.9038781  43.0998942  78.7533987  75.3441949  48.3876387
  77.9231690  75.5552592  48.5509804  78.7043239  74.5179003  48.1118671
  78.6240722  75.2531555  48.3713752  65.1885542  73.6658861  41.8150811
  64.6042757  74.1708892  42.2216674  64.7855637  73.4401248  41.0747402
  65.0424846  73.7067109  41.7655836  60.7429571  79.3813622  48.6174482
  60.2597149  80.1064112  48.5934066  61.5552889  79.6789752  48.7284640
  60.7920318  79.5315976  48.6301761  66.8143725  78.1745803  51.2224297
  66.2970666  77.8153218  50.6185605  67.5118116  77.6507977  51.2330363
  66.8409306  78.0443491  51.1354555  70.4707317  78.6240617  57.1840470
  70.5590662  78.4366757  58.0318680  70.8997029  77.9778046  56.7845316
  70.5469419  78.5003625  57.2512221  68.0377776  77.9071777  56.1658132
  67.4748611  77.4944387  56.6897793  68.7998800  77.8324682  56.5851275
  68.0672225  77.8349177  56.3051132  69.6462756  69.9124513  40.2919731
  69.8858760  70.1202497  39.4795074  69.9678597  69.1082022  40.4008676
  69.7299914  69.8238614  40.1880284  64.9553047  61.8417909  44.1379269
  65.7099015  62.2096226  43.8996319  64.7780581  62.2157463  44.9058449
  65.0407525  61.9516097  44.2164158  63.5973768  79.8969798  48.7694762
  64.2994347  79.3821787  48.8267518  63.5171251  80.2243949  49.5741637
  63.6897528  79.8684024  48.8967554  78.2487945  67.9912349  52.1826808
  77.4116366  68.0614536  52.4174403  78.2176176  67.9936844  51.3101111
  78.1206228  68.0022576  52.0886356  64.6452674  70.1345385  57.8975177
  64.8173178  70.0251280  58.7460458  65.1822032  70.7799790  57.6606369
  64.7497678  70.2137387  57.9880274  63.3110111  64.2488228  40.8357382
  63.1285684  64.4660109  40.0098375  64.1735724  64.3627240  40.8915996
  63.4114701  64.2978126  40.7211869  62.9224543  76.0876150  48.2780370
  63.7613443  76.3199083  48.3254132  62.9536312  75.2180461  48.2087405
  63.0506261  75.9933096  48.2745015  63.5477246  76.5077025  52.5793675
  64.0875471  76.3648156  53.2497048  62.8647193  76.9073776  52.9477702
  63.5269400  76.5456696  52.7328097  68.9909830  61.2514638  43.8706406
  69.7195991  61.0730593  43.4244562  69.0804723  62.0932718  44.0813584
  69.1116493  61.3498517  43.8359924  72.9718131  72.1868026  47.7738700
  73.7275646  72.6199540  47.8127609  73.0780456  71.5372796  48.3473336
  73.0988302  72.1545510  47.8636725  76.0098302  76.0141303  48.5241103
  75.5733534  76.0178045  49.2800074  75.6761218  76.6946802  48.0920680
  75.8960922  76.1153759  48.5721935  70.5827376  78.0549636  59.8484253
  71.3667792  78.1680484  60.2139995  70.3823970  77.2290773  60.0442939
  70.6693401  77.9496355  59.9318639  58.9514391  72.7277316  52.7328097
  58.6852807  71.9116433  52.8919087  58.9652955  72.7730472  51.8623613
  58.9139114  72.6134221  52.6281579  62.8572138  67.5262400  39.3479855
  62.1430315  67.2400580  39.7602288  63.3416107  67.8659026  39.9886243
  62.8231502  67.5344050  39.5035490  63.7012998  66.2655694  55.3795105
  63.0084794  65.7952674  55.6255836  64.3173325  66.0393999  55.9536812
  63.6897528  66.1622826  55.5004257  70.7397769  79.9659738  53.4950709
  69.9413015  79.7259238  53.7524577  71.1883781  80.0174131  54.2417756
  70.6872380  79.9382129  53.6435633  79.1442648  72.7322223  47.4160740
  79.8059083  72.1712891  47.3156649  78.5034060  72.2374254  47.7413431
  79.1471516  72.5758632  47.4493080  70.0319456  76.0292354  39.7241663
  70.4470605  75.6977378  39.0326159  69.2011386  75.7961257  39.5961800
  69.9707465  75.9463610  39.6032511  59.3607805  73.5136095  50.0139841
  59.1783378  73.4882981  49.1612133  60.0957474  73.9835033  50.0528750
  59.4421869  73.5797458  49.8937760  75.4307479  73.7487605  47.1572729
  75.6663068  73.8932804  46.3299579  75.5797043  74.5130013  47.5504242
  75.4873282  73.8826660  47.0936333  62.4253557  70.2321098  56.5221950
  63.1493529  70.2174129  57.0086845  62.5269693  70.9416453  56.0243918
  62.5471766  70.3345801  56.5200737  77.2597936  72.5889271  44.9942333
  77.5906153  73.1216911  44.3882428  77.8331024  72.6428159  45.6504284
  77.3931615  72.6758840  45.0020114  69.7998506  73.7120183  61.3870897
  69.0071487  74.0263695  61.5723517  69.9147433  73.9271651  60.5491682
  69.6993917  73.7904020  61.2909232  72.4729825  70.4354174  45.6765913
  72.5676679  71.1743468  46.1305538  71.8488669  70.0071649  46.1100477
  72.3938855  70.4815495  45.8074060  70.7282299  73.6140387  56.3256194
  71.3021161  72.9767631  56.4804758  70.6497103  73.6144469  55.4565851
  70.8015534  73.5205498  56.2202605  59.3278715  70.3929596  50.1638908
  59.9052218  70.2566047  50.8031153  58.6292777  69.9365380  50.4184492
  59.3099737  70.3051862  50.2961198  72.7252846  72.2802914  38.9102865
  72.6433009  72.3505101  39.7757852  73.3632567  72.8432658  38.7186605
  72.8072684  72.3741885  39.0092814  66.0846017  72.0463652  48.3777391
  65.8265262  71.2135387  48.3508691  66.1394500  72.2721265  47.5369891
  66.0545795  71.9561423  48.2497528  65.0580730  69.6001414  48.8642286
  64.4830321  69.7593583  49.5006247  64.6816406  68.9636823  48.4010736
  64.9183542  69.5299227  48.8896844  78.3677287  67.8299768  46.4982494
  78.1113852  67.0179710  46.3080377  79.2106601  67.8377335  46.2712682
  78.4543313  67.7111766  46.4367311  54.8037549  69.2441489  46.8786726
  54.8897800  68.8673357  47.6600256  55.4313346  68.8701935  46.4006685
  54.9094099  69.1326971  46.9232204  69.8292957  72.3023368  41.9211471
  70.6433595  72.5938261  41.8094243  69.7652098  71.6483230  41.3469764
  69.9395696  72.2488563  41.8200309  76.0502447  74.9849364  56.3341047
  75.8141084  74.1537429  56.2153107  76.6945676  74.9334971  56.9195891
  76.1097117  74.8547052  56.4026940  65.7000865  75.7744886  47.0483783
  66.3374812  75.5356633  47.5935577  66.1255936  75.9782044  46.3136944
  65.8577031  75.7695896  47.0200941  60.3913507  78.0133222  50.9318087
  60.4317652  78.2848073  50.1037867  60.9508031  78.5375130  51.3475875
  60.4796853  78.1308977  50.8709975  66.3403680  70.9947175  41.3858673
  66.7248833  70.7754882  42.1375218  66.0915300  71.8210121  41.5159749
  66.3605752  71.0845322  41.5159749  77.0738867  74.7693813  52.3969341
  76.7684684  75.5021870  52.7582657  76.3545083  74.3631742  52.1162127
  76.9226210  74.8175546  52.4082478  68.0822337  76.2517308  48.7277570
  68.1561345  76.0892480  49.5819419  68.8991843  76.4407498  48.4838051
  68.2138695  76.2554050  48.8175595  82.7740659  71.4086814  51.7237686
  82.7065160  71.4282773  50.8540272  82.7596322  72.2517141  51.9493356
  82.7619416  71.5360548  51.6290162  61.8428093  76.5975171  45.7572013
  61.0166211  76.8436908  45.6306292  61.9040085  76.5187252  46.6234071
  61.7302260  76.6220120  45.8660957  66.6226922  79.2152051  43.4591043
  66.9125221  78.8241033  42.7350270  67.3530403  79.3968756  43.8996318
  66.7733807  79.1845865  43.4173850  80.5599277  70.1831200  49.9984280
  81.1107198  69.5499269  50.2381372  80.5443392  70.7146593  50.6899784
  80.6384473  70.1680148  50.1363138  67.2121668  74.0169797  54.5444173
  66.7133361  74.7285565  54.6229062  68.0221892  74.3370464  54.5062336
  67.2577774  74.1696646  54.5500742  64.5632838  81.1919434  46.5251193
  64.3433133  80.9016788  47.3177860  64.3427360  80.5334389  45.9969105
  64.4980432  81.0519142  46.5640101  63.4749785  73.2792750  48.7906894
  63.1863034  72.6530221  49.3252622  64.3433133  73.2213038  48.8571575
  63.5610037  73.1780294  48.8797849  74.2627683  68.4227534  49.1088876
  73.9192449  67.7017869  49.4596126  74.3620726  68.2141385  48.2667234
  74.2269726  68.2851737  49.0360556  66.7300794  82.5648824  45.3081885
  67.3824852  82.0325266  45.5372911  66.0326402  82.2117476  45.6949759
  66.7231512  82.4338347  45.3994053  63.6782059  74.9188001  44.7149259
  64.4328027  75.3001040  44.9284722  63.0852671  75.3699145  45.1695956
  63.7018772  75.0416829  44.8132138  74.7240712  74.8853238  44.6512864
  75.2898745  75.5446447  44.5671407  74.0768616  75.2302936  45.1229266
  74.7119469  75.0335179  44.7085621  66.1388726  66.8750842  59.8406472
  65.3288501  67.1808621  59.7296314  66.6163412  67.5956424  59.9559056
  66.0892204  67.0265443  59.8413543  64.9980285  76.0896563  50.0889375
  64.4761039  76.2296854  50.7741239  65.3854306  75.3307227  50.2791492
  64.9783986  75.9982086  50.2190451  61.9871469  66.1402371  44.1584329
  61.6996265  65.7703642  43.4216277  62.6741937  66.6097227  43.8968034
  62.0460367  66.1549341  44.0099405  71.1947290  77.8292022  44.0749944
  70.9533966  77.0959882  43.6677009  71.3748623  78.3778879  43.4216277
  71.1854914  77.8014413  43.9180166  66.4246611  73.1200582  45.4870866
  66.2289393  73.7275316  44.8931169  66.6480956  72.4268526  45.0062540
  66.4281252  73.1078107  45.3286947  64.8225141  70.0055319  45.6051734
  65.5447793  70.1696478  45.1455540  64.3433134  70.7264984  45.4991074
  64.8588872  70.1353549  45.5217348  62.4732758  72.4113392  54.7105874
  62.9853854  72.6897645  54.0614634  62.1869100  73.1502686  55.0768687
  62.5067621  72.5615746  54.6695752  76.6576172  71.5487105  48.2709661
  76.5710147  71.7042531  49.1244440  76.2026652  72.1925181  47.8969066
  76.5779429  71.6662860  48.3416768  59.5599664  66.9183584  45.0069611
  59.6615800  67.7209745  45.3350586  60.3555551  66.7170920  44.7092691
  59.6927569  67.0069483  45.0104966  60.3763396  67.0330762  52.7490732
  60.2348888  66.1814703  52.8735240  60.6603959  67.0759423  51.9252938
  60.3971242  66.9130512  52.6458356  70.5301988  68.8697852  46.8935220
  70.2836703  68.7893603  47.7272009  70.8587111  68.0851320  46.6997748
  70.5423232  68.7424117  46.9882743  74.4250037  75.5781211  50.6822002
  74.2864396  76.2762257  51.1870744  73.6450035  75.4229868  50.3258183
  74.2893264  75.6581378  50.7048276  72.7628122  71.8777587  56.9344383
  72.7576161  71.0057403  56.9386810  73.4689116  72.0765756  56.4613839
  72.8673126  71.7781461  56.8651419  66.4899016  71.6054571  56.3058203
  66.6342391  72.1855779  55.6701313  66.8374664  71.9830867  57.0108058
  66.5626477  71.7475275  56.3157198  68.6618933  70.8044739  54.0883335
  67.9142247  70.9975753  53.6831613  68.8160458  69.9789959  53.8507456
  68.5741361  70.7109851  53.9928741  65.5626771  79.7957343  53.1719230
  65.7116334  79.2360258  52.5192635  66.3426773  79.8749344  53.5551749
  65.7000864  79.7242908  53.1316179  75.9203410  74.9359465  41.4438501
  75.5410219  74.1496603  41.4367790  75.2569655  75.4846322  41.3010145
  75.7661885  74.9004289  41.4219298  68.0880071  79.9671985  54.4503721
  68.0123742  79.2980796  55.0054509  68.0169930  80.6689774  54.9644387
  68.0660678  79.9716893  54.6080569  61.1453701  64.9461110  56.0668182
  60.6095891  64.3341468  56.3828950  61.2071466  65.5209246  56.7201849
  61.0749334  64.9408037  56.2103609  73.3748036  57.8785165  48.8472582
  73.4931604  58.3361628  48.1139884  73.2010212  57.0730426  48.5608799
  73.3667207  57.8278937  48.6973515  68.7450318  78.4872984  45.2827327
  69.5100209  78.2182628  44.9609991  68.6428408  78.0022995  45.9997390
  68.8431814  78.3762549  45.3407155  71.2668979  75.5185168  37.2627276
  72.0341964  75.5785293  36.8533128  70.8200288  74.9465609  36.7783595
  71.3142406  75.4421744  37.1304987  72.1646774  74.3239824  49.5480009
  71.4891776  74.0925056  50.0493396  72.1739150  73.7161007  48.9222114
  72.0665279  74.1998749  49.5296161  69.2940918  69.1657653  56.3044062
  69.2300059  70.0267609  56.1764198  69.4338106  68.8489646  55.5039613
  69.3056388  69.2457820  56.1672275  74.1663509  77.1804956  41.7790187
  74.2483346  77.9871942  41.4551638  74.6513251  77.2000916  42.5030960
  74.2500667  77.3025619  41.8377085  67.9760012  71.8589792  50.4460265
  67.5522261  72.0594291  49.7099283  67.8004867  71.0118640  50.5584564
  67.8870893  71.7638574  50.3533955  67.4771706  83.3740305  52.9081722
  67.9667636  82.6751094  52.7257387  66.9055938  83.0764175  53.4957779
  67.4656235  83.2266529  52.9682763  63.2642457  72.3541844  45.8788237
  63.4207076  72.2888646  46.7344229  63.6043050  73.1290396  45.6666917
  63.3375692  72.4591042  45.9742831  69.8021602  71.7299727  44.7481600
  70.3437147  71.2270108  45.2120221  70.1168161  71.6764922  43.9371086
  69.9285999  71.6479148  44.6965412  73.6738709  75.9402375  61.8608513
  74.4873574  75.6687523  62.0213645  73.5133675  75.6409915  61.0568708
  73.7708658  75.8557301  61.7653918  67.9708051  77.1217079  42.0321628
  68.0400872  76.2631617  42.1714629  68.7496507  77.3388960  41.7040653
  68.0960901  77.0269943  42.0038786  72.3615539  79.5454780  46.2458122
  71.9695331  79.2421495  45.5280988  72.5168611  80.3823870  46.0563076
  72.3269129  79.6238617  46.1114619  59.8376719  69.5376794  46.1949004
  60.2175683  69.9561339  45.5309272  59.2632083  70.1190250  46.5017848
  59.8088043  69.6854653  46.1425745  73.1149959  68.2325097  55.7387208
  72.3026641  67.9250987  55.8200381  73.5739894  67.7524097  56.3029920
  73.0630344  68.1161589  55.8341802  72.5255214  76.1104769  46.1864152
  72.1669868  76.2819412  46.9628185  72.0393924  76.5717975  45.6292151
  72.4013911  76.2043740  46.2189421  67.3143579  71.7903934  38.7264387
  67.6036104  72.5668817  39.0007961  67.4015378  71.2792666  39.4278886
  67.3697835  71.8295853  38.8706884  70.2103467  69.6385168  60.5215910
  70.6803098  70.2627285  60.9083784  70.2565347  68.9702144  61.0809125
  70.2871342  69.6319849  60.6615982  73.6859953  77.0008665  57.1331353
  74.3239674  76.5068860  56.7993809  73.0434045  76.9286065  56.5483580
  73.6854180  76.9167673  56.9973708  75.4116953  68.8497811  51.6997269
  74.9844561  68.7624159  50.9445368  74.7743006  68.9575586  52.2852113
  75.2546560  68.8530471  51.6742710  73.7414210  77.6928473  53.7736710
  74.5306588  77.3417538  53.8938792  73.9157807  78.5064862  53.5113344
  73.8834491  77.7614330  53.7524578  63.4807520  71.1037199  50.8264499
  62.6395527  71.0041073  51.0343393  63.6897528  71.8732679  51.1778819
  63.3872213  71.2029242  50.9091814  60.9583087  68.7256736  48.6549249
  60.5639785  68.7999748  47.8799359  60.4023204  69.1114682  49.2057611
  60.8185899  68.7938510  48.6216909  66.3490282  66.3419118  44.6406798
  66.6250016  65.6238030  44.2284366  66.9488951  66.9404038  44.4327904
  66.4783547  66.3239489  44.5487559  65.3542536  76.2468319  54.7834194
  65.2462891  76.2570381  55.6496252  65.5638317  77.0723099  54.5939148
  65.3692647  76.3709394  54.8838286  69.8500803  64.0132635  42.9153393
  70.3044549  64.1843196  43.6401238  70.3240848  63.4000746  42.5151169
  69.9869123  63.9483520  42.9627155  63.3716328  73.4980961  52.2456132
  62.7804261  74.1390459  52.2159147  64.1337352  73.9218578  52.2187431
  63.3964589  73.6556800  52.2371279  79.4906750  73.3286731  53.2433410
  79.5489873  73.7773380  53.9893386  78.8573217  73.7385544  52.8063490
  79.4058045  73.4560466  53.2885958  73.1305844  78.9490273  49.6788156
  72.9325533  79.4381087  48.9844367  72.5093555  79.1531514  50.2572289
  73.0093409  79.0506811  49.6611379  67.1913823  70.7175170  44.0198400
  67.9355867  71.1049446  44.2581350  67.3374519  69.8732595  44.1838888
  67.3224408  70.6505642  44.0792370  60.5564729  68.2872150  55.2875865
  61.4190342  68.1867859  55.2013195  60.2256512  67.7066859  54.7261438
  60.6349925  68.1863776  55.1921271  76.4428429  71.3503019  51.3299100
  76.2026652  70.5109434  51.3341527  76.9220436  71.4303185  52.0539874
  76.4780613  71.2384418  51.4373903  72.1075198  67.1837197  42.9818074
  71.5798217  67.2665941  42.2923782  72.5670906  67.9255069  42.9782718
  72.0977049  67.3057860  42.8792769  78.4433616  68.1304476  49.2828359
  78.2043386  68.0900310  48.4449144  78.6067517  68.9775628  49.4094080
  78.4323919  68.2496561  49.1781841  75.0479646  72.5154425  55.2133404
  75.7713845  72.0626951  55.0344424  74.7829608  72.7959091  54.4305732
  75.1160919  72.4905394  55.0712120  64.1008263  65.4539717  38.0058969
  63.7521068  66.1059442  38.4690518  63.6204709  65.4396830  37.2782840
  63.9778507  65.5482771  37.9670060  60.6292190  75.1715059  53.3890048
  60.0992115  74.4807498  53.4385023  60.9017283  75.1625244  52.5602756
  60.5916912  75.0682191  53.2737464  71.6612281  75.7540761  42.1127731
  72.3846479  76.2198874  41.9692304  71.2212872  75.8214371  41.3625328
  71.7027973  75.8324598  41.9812512  70.8298436  72.6138303  53.3628420
  70.2155429  72.0696354  53.6577055  71.3465721  72.1002540  52.8834236
  70.8154098  72.4574712  53.3352648  70.0694733  73.6842573  51.0972718
  69.6422341  73.0592292  50.6638154  70.0619677  73.4017495  51.9231725
  70.0053874  73.5495354  51.1552546  63.1857260  68.7207746  54.1661152
  63.3450747  67.9651071  54.5712874  63.0050153  69.2698686  54.8201890
  63.1822619  68.6901560  54.3223858  55.9088032  71.8442823  50.7458396
  55.8031481  71.7989667  49.8810480  55.1588252  72.1896603  51.0272681
  55.7823635  71.8883731  50.6595726  66.8611378  72.8542886  58.7941291
  66.0107008  72.9914600  58.9298936  67.0239505  72.1206664  59.2388993
  66.7595241  72.7656987  58.8796890  66.0996128  69.8042656  52.9894895
  65.2688058  69.9716474  52.7830144  66.0447645  69.4278607  53.7743781
  65.9685543  69.7732387  53.0743424  63.9079911  63.2951549  58.6251306
  64.5332615  62.7513682  58.8980738  63.4530391  62.8146466  58.0559097
  63.9328172  63.1441030  58.5812900  64.4732172  68.0798247  43.5185013
  64.6135133  68.5770712  44.2213655  64.9714705  67.3784542  43.6599227
  64.5673253  68.0500226  43.6436592  64.5032394  68.9465359  40.8477590
  65.1377474  69.5425784  40.7827052  64.5858005  68.6468816  41.6623460
  64.6088945  68.9906267  40.9580677  77.4814960  71.4780836  53.7163954
  78.0732800  72.1178087  53.7482152  77.9173955  70.7803873  54.0056021
  77.6333391  71.4699186  53.7644787  66.0811377  64.8779334  40.8223032
  66.4027218  64.3982416  40.1682294  66.3438321  65.6878980  40.6313844
  66.1677403  64.9269232  40.6978524  69.3108350  75.8998208  54.3421848
  68.8033441  76.4534055  54.7862479  69.0134996  75.9606498  53.5240623
  69.1913235  75.9904519  54.2870305  61.0085382  71.1433199  44.1167136
  61.5177612  71.7397707  44.4978442  61.4819654  70.8759173  43.4343556
  61.1528758  71.1919015  44.0721659  71.9216130  79.8161466  42.2725792
  71.2045440  79.6422328  41.8073029  72.5722868  79.5814038  41.7401278
  71.9117981  79.7557258  42.1255010  69.9164755  60.7366628  46.5937088
  69.2733073  60.5864274  47.1622227  69.5764162  60.4908973  45.8286193
  69.7709832  60.6778750  46.5640103  74.5064101  68.6926054  46.0167097
  73.8355291  69.2355757  45.8880162  75.2003852  69.1620910  45.7748792
  74.5092969  68.8424326  45.9622624  68.5550835  80.8322766  51.2478855
  68.3316490  80.0741596  51.6162881  68.0660678  80.8620788  50.5259295
  68.4494284  80.7244991  51.1955596  72.6675495  68.4117307  52.8742312
  72.6473422  68.2300602  53.7277091  72.7154695  69.2829325  52.8501896
  72.6710136  68.5133845  52.9965607  70.6121825  75.0004499  58.7990789
  70.5717679  74.3554176  58.2135945  71.4245143  74.9441116  59.1116201
  70.7264978  74.8963466  58.7587738  67.2029292  81.0523225  48.7015940
  66.7889691  80.3897355  48.3119781  67.8876666  81.2001083  48.1811634
  67.2427664  80.9763883  48.5672437  70.5694586  80.2113310  49.4539556
  70.1710869  80.3215580  48.6860376  69.9545806  80.4195376  50.0366116
  70.4193476  80.2586878  49.4270856  69.1422488  66.8187458  42.3213696
  68.5487328  67.1404454  41.7698263  69.1797766  65.9728553  42.1134802
  69.0596877  66.7411786  42.2096467  72.0180305  66.7766962  45.7515446
  71.7893998  66.7999664  44.9093804  72.2778381  65.9524429  45.8710457
  72.0226493  66.6583042  45.6440644  66.2999533  68.6301435  55.3540546
  65.7878436  68.0222618  55.7125578  66.1279029  69.3458028  55.8214522
  66.1989170  68.6464735  55.4756770  61.1465248  67.0739011  58.0042908
  60.9767838  67.7340385  57.4591115  60.7031198  67.2845572  58.7255397
  61.0564582  67.2024993  58.0304538  78.3036429  74.7865277  42.8382647
  78.6870035  75.5356633  43.0680744  77.5080542  75.0331096  42.5794636
  78.2430211  74.9334970  42.8340220  70.1768604  66.5525680  57.7942802
  70.7340034  66.3239489  57.1621267  69.8529669  67.3131346  57.5178014
  70.2115014  66.6309517  57.6599299  58.0467313  69.9785876  53.2631398
  57.4994032  69.3086522  53.3812266  58.8359691  69.6115724  53.3274865
  58.0819496  69.8250863  53.2900099  67.8951721  69.6393333  58.7594809
  68.6463048  69.9545010  59.0734363  68.0874297  69.4372504  57.9328731
  68.0343135  69.6560715  58.6838205  67.1151721  67.4584708  40.4143026
  67.4950685  67.4764337  39.6294141  66.3744317  67.9038697  40.2933873
  67.0620558  67.5266483  40.2806594  74.7437011  65.7666900  46.0018604
  74.7431237  65.6115556  46.8602881  74.5393191  66.6129887  45.9459990
  74.7136789  65.8687520  46.1206544  56.8054282  69.1906684  50.4177421
  56.6276043  68.7383293  51.1432337  56.5173304  69.9932845  50.6015899
  56.7367235  69.2429242  50.5520924  72.4677863  70.4464401  49.6554811
  72.9631528  69.7287396  49.6158832  71.6577639  70.1435199  49.5409298
  72.4221756  70.2962048  49.6328537  67.9136475  74.2962215  41.8051816
  67.1047797  73.9728888  41.7585125  68.4211383  73.5895437  41.7380064
  67.8686141  74.1443531  41.7882110  58.5426752  71.7234408  47.5299180
  57.6772271  71.7120098  47.4181951  58.6425568  71.5364631  48.3770319
  58.4300919  71.6940469  47.6388125  74.5329682  73.1968089  52.3431940
  74.9584754  72.6742511  51.7902365  74.1686602  73.7948926  51.8220563
  74.5416285  73.2078316  52.1840950  64.1683762  81.4932306  51.1029286
  64.4830321  82.3068695  51.1107067  64.5777175  81.1082525  51.7711445
  64.2751860  81.5561009  51.2033377  71.1208281  76.9102353  48.6733098
  71.5919460  77.6242616  48.8423083  71.4568460  76.3101103  49.2092967
  71.2403396  76.9273817  48.7765473  73.2085266  78.5203666  60.8525170
  73.3182231  77.7312227  61.2081917  73.5376163  78.4309603  60.0499508
  73.2737672  78.3909519  60.7867560  71.7582228  76.7020287  55.4360790
  71.2103174  76.0778171  55.1680855  72.2195256  76.8914559  54.7204870
  71.7449437  76.6379337  55.2911221  74.5676092  64.7705642  52.8211982
  73.9839081  65.2714848  52.4089550  74.8880386  64.2635198  52.1876306
  74.5289267  64.7697477  52.6670490  67.1070891  63.6846237  43.0970657
  67.9286586  63.8544549  42.8552352  66.6440542  63.8393497  42.3736955
  67.1602053  63.7327969  42.9542302  61.5096782  75.4405415  50.7507894
  62.1141639  75.4001249  50.1221715  61.3024094  76.2876567  50.7811950
  61.5685679  75.5593417  50.6624011  71.3240554  77.7071360  51.9670131
  72.1438928  77.5634326  52.2286427  71.0434632  78.3317559  52.5086569
  71.4037297  77.7781712  52.0858071  56.7448064  74.4240032  50.6206817
  56.6472342  73.6136304  50.9296874  57.5276934  74.4031826  50.2353085
  56.8464201  74.3007122  50.6093680  87.7954204  85.3636212  44.9313008
  87.7648209  86.2180848  45.1031277  88.3935553  85.0631504  45.4899151
  87.8791362  85.4452708  45.0387810  80.9953889  84.4511863  49.6865938
  80.1391785  84.6120361  49.7375055  81.0421543  83.5803927  49.7070999
  80.8753001  84.3462665  49.6972004  75.3795029  93.9874581  45.4503170
  74.6277929  93.6090119  45.2219215  75.8281041  94.0193014  44.7021980
  75.3344696  93.9360188  45.3060672  84.3047606  90.7198388  59.2926394
  85.0114373  90.2250419  59.4213329  84.4935541  91.1607470  58.5629052
  84.4375511  90.7116739  59.2035440  80.8319989  94.4099950  40.8788717
  80.4971357  95.0876872  40.4432939  81.3446859  94.0205261  40.2905588
  80.8585570  94.4524528  40.7275508  80.3724280  96.3614219  46.8199828
  80.7563659  96.9301117  46.2804604  80.3083421  95.6363729  46.3405644
  80.4197707  96.3389682  46.6693691  83.8405710  86.5103907  52.3297590
  84.3861670  87.1888993  52.3891559  83.7822587  86.3691367  51.4699171
  83.9121625  86.5895908  52.2109650  76.9579785  93.9992973  47.7165942
  77.0590148  93.1893327  48.0263070  76.3621530  93.9049919  47.0865621
  76.8852324  93.8658001  47.6692181  85.6170779  87.9388514  43.2031318
  85.5010305  88.6896200  43.6323456  86.4126666  87.6812467  43.4527405
  85.7175368  88.0123361  43.3035409  76.7980525  98.9170562  49.1180798
  77.4417980  99.3583726  49.5076957  77.1236780  98.1123988  49.0311057
  76.9412353  98.8635757  49.1626276  70.1544829  90.0213259  47.3418276
  69.9195014  89.1880912  47.2350545  70.2930470  90.3017925  46.5279477
  70.1400492  89.9396763  47.2060631  72.4534917  82.1898990  50.2402584
  71.8339949  81.5991637  50.0712598  72.3518780  82.7810425  49.6066907
  72.3472592  82.1903072  50.1207573  77.5001104  91.9282537  44.4900660
  77.8216946  92.4687744  43.8861968  78.1473201  91.3579308  44.6222950
  77.6427160  91.9241712  44.4207695  79.5502813  83.9298532  44.5735047
  80.2482977  84.1086659  45.0656510  79.8655145  83.4068871  43.9505436
  79.6998150  83.8792304  44.5537057  72.1804050  85.7351272  52.4846153
  72.0562747  86.3213717  53.1195971  72.8322334  85.2411467  52.7858428
  72.2577699  85.7490076  52.6232082  79.7390748  90.3168977  44.5614838
  80.1784383  89.7086077  45.0069611  79.5895411  89.9376350  43.7900303
  79.7812214  90.1707448  44.5134006  77.2062391  88.9112988  51.7633664
  77.8511393  88.4185432  51.4444612  77.4464168  89.0537775  52.5899742
  77.3372976  88.8590431  51.8383197  79.7448482  91.7567894  51.4140556
  80.0271725  90.9619300  51.1927312  80.4734643  92.2348482  51.4345617
  79.8938046  91.7102491  51.3843571  77.7229676  79.2990928  48.6556321
  77.3933006  79.7502072  47.9860020  77.0474678  79.2207092  49.2029328
  77.5740112  79.3542063  48.6379545  83.3400084  88.6696158  41.5145607
  83.2551380  89.5257125  41.6595176  83.8284468  88.3940482  42.1827767
  83.3988982  88.7553479  41.6347689  84.9306084  75.2876451  46.9005932
  84.6159525  75.9779930  47.3326354  84.4133026  75.2321233  46.1991433
  84.8070554  75.3811340  46.8602881  84.2718518  85.2880952  43.0143343
  83.7429989  85.5040586  43.6740649  84.7943538  85.9817091  42.9344312
  84.2706971  85.4224089  43.0998942  89.7266571  90.8627257  48.3876387
  88.8964274  91.0737900  48.5509804  89.6775823  90.0364311  48.1118671
  89.5973306  90.7716863  48.3713752  76.1618125  89.1844169  41.8150811
  75.5775341  89.6894200  42.2216674  75.7588221  88.9586556  41.0747402
  76.0157429  89.2252417  41.7655836  71.7162154  94.8998930  48.6174482
  71.2329732  95.6249420  48.5934066  72.5285472  95.1975060  48.7284640
  71.7652902  95.0501284  48.6301761  77.7876308  93.6931111  51.2224297
  77.2703250  93.3338526  50.6185605  78.4850699  93.1693285  51.2330363
  77.8141889  93.5628799  51.1354555  81.4439900  94.1425925  57.1840470
  81.5323246  93.9552065  58.0318680  81.8729613  93.4963354  56.7845316
  81.5202003  94.0188932  57.2512221  79.0110360  93.4257085  56.1658132
  78.4481195  93.0129695  56.6897793  79.7731383  93.3509990  56.5851275
  79.0404809  93.3534485  56.3051132  80.6195340  85.4309821  40.2919731
  80.8591344  85.6387805  39.4795074  80.9411181  84.6267330  40.4008676
  80.7032498  85.3423922  40.1880284  75.9285630  77.3603217  44.1379269
  76.6831598  77.7281534  43.8996319  75.7513165  77.7342771  44.9058449
  76.0140109  77.4701405  44.2164158  74.5706351  95.4155106  48.7694762
  75.2726931  94.9007095  48.8267518  74.4903834  95.7429257  49.5741637
  74.6630112  95.3869332  48.8967554  89.2220529  83.5097657  52.1826808
  88.3848950  83.5799844  52.4174403  89.1908760  83.5122152  51.3101111
  89.0938811  83.5207884  52.0886356  75.6185258  85.6530693  57.8975177
  75.7905762  85.5436587  58.7460458  76.1554615  86.2985098  57.6606369
  75.7230262  85.7322695  57.9880274  74.2842695  79.7673536  40.8357382
  74.1018268  79.9845417  40.0098375  75.1468308  79.8812548  40.8915996
  74.3847284  79.8163434  40.7211869  73.8957127  91.6061458  48.2780370
  74.7346026  91.8384391  48.3254132  73.9268896  90.7365769  48.2087405
  74.0238844  91.5118404  48.2745015  74.5209830  92.0262333  52.5793675
  75.0608055  91.8833464  53.2497048  73.8379776  92.4259084  52.9477702
  74.5001984  92.0642004  52.7328097  79.9642414  76.7699946  43.8706406
  80.6928574  76.5915901  43.4244562  80.0537307  77.6118026  44.0813584
  80.0849076  76.8683825  43.8359924  83.9450715  87.7053334  47.7738700
  84.7008230  88.1384848  47.8127609  84.0513039  87.0558103  48.3473336
  84.0720885  87.6730818  47.8636725  86.9830886  91.5326611  48.5241103
  86.5466118  91.5363353  49.2800074  86.6493801  92.2132110  48.0920680
  86.8693506  91.6339067  48.5721935  81.5559959  93.5734944  59.8484253
  82.3400376  93.6865792  60.2139995  81.3556554  92.7476081  60.0442939
  81.6425985  93.4681663  59.9318639  69.9246975  88.2462624  52.7328097
  69.6585390  87.4301741  52.8919087  69.9385539  88.2915779  51.8623613
  69.8871697  88.1319529  52.6281579  86.9028369  78.5740439  50.7670531
  87.5454277  78.6438543  51.3532446  87.1551389  77.9069662  50.2650073
  87.0350501  78.4866787  50.7797810  73.8304722  83.0447708  39.3479855
  73.1162899  82.7585888  39.7602288  74.3148691  83.3844334  39.9886243
  73.7964085  83.0529358  39.5035490  74.6745581  81.7841002  55.3795105
  73.9817378  81.3137982  55.6255836  75.2905909  81.5579307  55.9536812
  74.6630111  81.6808134  55.5004257  81.7130353  95.4845046  53.4950709
  80.9145599  95.2444546  53.7524577  82.1616364  95.5359439  54.2417756
  81.6604964  95.4567437  53.6435633  90.1175232  88.2507531  47.4160740
  90.7791666  87.6898199  47.3156649  89.4766644  87.7559562  47.7413431
  90.1204100  88.0943940  47.4493080  81.0052040  91.5477662  39.7241663
  81.4203188  91.2162686  39.0326159  80.1743969  91.3146565  39.5961800
  80.9440048  91.4648918  39.6032511  70.3340389  89.0321403  50.0139841
  70.1515962  89.0068289  49.1612133  71.0690057  89.5020341  50.0528750
  70.4154452  89.0982766  49.8937760  86.4040063  89.2672913  47.1572729
  86.6395652  89.4118112  46.3299579  86.5529626  90.0315321  47.5504242
  86.4605866  89.4011968  47.0936333  73.3986140  85.7506406  56.5221950
  74.1226113  85.7359437  57.0086845  73.5002277  86.4601761  56.0243918
  73.5204349  85.8531109  56.5200737  88.2330519  88.1074579  44.9942333
  88.5638737  88.6402219  44.3882428  88.8063608  88.1613467  45.6504284
  88.3664199  88.1944148  45.0020114  80.7731090  89.2305491  61.3870897
  79.9804070  89.5449003  61.5723517  80.8880017  89.4456959  60.5491682
  80.6726500  89.3089327  61.2909232  83.4462409  85.9539482  45.6765913
  83.5409263  86.6928776  46.1305538  82.8221252  85.5256957  46.1100477
  83.3671439  86.0000802  45.8074060  81.7014882  89.1325695  56.3256194
  82.2753744  88.4952939  56.4804758  81.6229686  89.1329777  55.4565851
  81.7748117  89.0390806  56.2202605  70.3011299  85.9114904  50.1638908
  70.8784801  85.7751355  50.8031153  69.6025361  85.4550688  50.4184492
  70.2832320  85.8237170  50.2961198  83.6985430  87.7988222  38.9102865
  83.6165592  87.8690409  39.7757852  84.3365150  88.3617966  38.7186605
  83.7805267  87.8927193  39.0092814  77.0578601  87.5648960  48.3777391
  76.7997845  86.7320695  48.3508691  77.1127084  87.7906573  47.5369891
  77.0278379  87.4746731  48.2497528  82.1379651  79.6677410  48.4781484
  81.4335978  79.1786596  48.6365403  82.1864626  79.6799885  47.6069928
  82.0409703  79.5967058  48.3720824  76.0313313  85.1186722  48.8642286
  75.4562904  85.2778890  49.5006247  75.6548989  84.4822131  48.4010736
  75.8916126  85.0484535  48.8896844  79.6986602  83.5910071  53.7234664
  79.3101035  83.1664289  53.0686855  79.0341300  83.8392221  54.2311691
  79.5433530  83.5648792  53.7022532  89.3409871  83.3485076  46.4982494
  89.0846436  82.5365018  46.3080377  90.1839185  83.3562643  46.2712682
  89.4275896  83.2297074  46.4367311  65.7770132  84.7626797  46.8786726
  65.8630384  84.3858665  47.6600256  66.4045930  84.3887243  46.4006685
  65.8826683  84.6512279  46.9232204  83.5212963  77.2884700  51.2358648
  83.9023475  76.6062871  51.6226523  82.7176248  76.9994302  51.0534313
  83.4589425  77.1451749  51.2662704  80.8025540  87.8208676  41.9211471
  81.6166179  88.1123569  41.8094243  80.7384681  87.1668538  41.3469764
  80.9128279  87.7673871  41.8200309  87.0235030  90.5034672  56.3341047
  86.7873668  89.6722737  56.2153107  87.6678259  90.4520279  56.9195891
  87.0829701  90.3732360  56.4026940  76.6733448  91.2930193  47.0483783
  77.3107395  91.0541941  47.5935577  77.0988520  91.4967352  46.3136944
  76.8309615  91.2881204  47.0200941  71.3646091  93.5318530  50.9318087
  71.4050236  93.8033381  50.1037867  71.9240615  94.0560438  51.3475875
  71.4529437  93.6494285  50.8709975  77.3136263  86.5132483  41.3858673
  77.6981416  86.2940190  42.1375218  77.0647884  87.3395429  41.5159749
  77.3338336  86.6030629  41.5159749  77.4804804  79.7938898  61.1021257
  77.1658245  80.5638461  60.8390820  77.1594736  79.2309154  60.5173484
  77.3863723  79.8249167  60.9762607  88.0471451  90.2879121  52.3969341
  87.7417268  91.0207178  52.7582657  87.3277667  89.8817050  52.1162127
  87.8958793  90.3360854  52.4082478  79.0554920  91.7702616  48.7277570
  79.1293929  91.6077788  49.5819419  79.8724427  91.9592806  48.4838051
  79.1871279  91.7739358  48.8175595  93.7473243  86.9272122  51.7237686
  93.6797743  86.9468081  50.8540272  93.7328905  87.7702449  51.9493356
  93.7351999  87.0545856  51.6290162  72.8160677  92.1160479  45.7572013
  71.9898795  92.3622216  45.6306292  72.8772668  92.0372560  46.6234071
  72.7034844  92.1405428  45.8660957  75.0336701  78.1829420  46.7167453
  74.1659126  78.2552019  46.7825062  75.3211905  78.9851499  46.9055428
  74.9476449  78.3123567  46.7542220  84.1569590  78.3307279  55.0478775
  84.9023182  78.1417090  54.6342200  83.7406894  78.8565517  54.4892631
  84.2054564  78.3809425  54.9043348  77.5959506  94.7337359  43.4591043
  77.8857804  94.3426340  42.7350270  78.3262987  94.9154064  43.8996318
  77.7466390  94.7031173  43.4173850  91.5331860  85.7016508  49.9984280
  92.0839782  85.0684577  50.2381372  91.5175976  86.2331901  50.6899784
  91.6117057  85.6865456  50.1363138  78.1854251  89.5355105  54.5444173
  77.6865945  90.2470873  54.6229062  78.9954475  89.8555772  54.5062336
  78.2310358  89.6881954  54.5500742  75.5365422  96.7104742  46.5251193
  75.3165717  96.4202096  47.3177860  75.3159944  96.0519697  45.9969105
  75.4713016  96.5704450  46.5640101  74.4482369  88.7978058  48.7906894
  74.1595617  88.1715529  49.3252622  75.3165717  88.7398345  48.8571575
  74.5342621  88.6965602  48.8797849  85.2360267  83.9412841  49.1088876
  84.8925032  83.2203177  49.4596126  85.3353309  83.7326693  48.2667234
  85.2002309  83.8037045  49.0360556  77.7033377  98.0834131  45.3081885
  78.3557435  97.5510574  45.5372911  77.0058986  97.7302784  45.6949759
  77.6964095  97.9523654  45.3994053  74.6514642  90.4373309  44.7149259
  75.4060610  90.8186348  44.9284722  74.0585255  90.8884453  45.1695956
  74.6751356  90.5602136  44.8132138  85.6973296  90.4038546  44.6512864
  86.2631328  91.0631755  44.5671407  85.0501199  90.7488244  45.1229266
  85.6852052  90.5520487  44.7085621  77.1121309  82.3936149  59.8406472
  76.3021085  82.6993929  59.7296314  77.5895996  83.1141732  59.9559056
  77.0624788  82.5450751  59.8413543  75.9712869  91.6081870  50.0889375
  75.4493622  91.7482162  50.7741239  76.3586889  90.8492535  50.2791492
  75.9516570  91.5167394  50.2190451  72.9604053  81.6587679  44.1584329
  72.6728849  81.2888950  43.4216277  73.6474521  82.1282535  43.8968034
  73.0192950  81.6734649  44.0099405  82.1679874  93.3477330  44.0749944
  81.9266550  92.6145190  43.6677009  82.3481207  93.8964187  43.4216277
  82.1587498  93.3199721  43.9180166  77.3979194  88.6385889  45.4870866
  77.2021977  89.2460624  44.8931169  77.6213540  87.9453833  45.0062540
  77.4013835  88.6263415  45.3286947  75.7957724  85.5240627  45.6051734
  76.5180376  85.6881786  45.1455540  75.3165717  86.2450292  45.4991074
  75.8321455  85.6538857  45.5217348  83.7551232  81.8604426  50.9848419
  82.9162333  81.8865705  50.7486682  83.8255599  82.5075162  51.5653766
  83.6419625  81.9600552  51.0357536  73.4465341  87.9298700  54.7105874
  73.9586438  88.2082953  54.0614634  73.1601684  88.6687994  55.0768687
  73.4800204  88.0801053  54.6695752  82.2020510  78.7589803  45.7176035
  82.9046863  78.5597552  45.2395993  81.9364699  77.9865746  46.0244879
  82.2667143  78.6152769  45.6921477  87.6308756  87.0672413  48.2709661
  87.5442730  87.2227839  49.1244440  87.1759236  87.7110488  47.8969066
  87.5512012  87.1848168  48.3416768  70.5332247  82.4368892  45.0069611
  70.6348384  83.2395053  45.3350586  71.3288134  82.2356228  44.7092691
  70.6660153  82.5254790  45.0104966  76.9649066  80.0225088  54.7706916
  76.7732264  80.0380223  55.6206339  77.8147662  80.2188763  54.7473570
  77.0624788  80.0539440  54.8930210  71.3495980  82.5516070  52.7490732
  71.2081471  81.7000011  52.8735240  71.6336543  82.5944731  51.9252938
  71.3703826  82.4315820  52.6458356  81.5034572  84.3883160  46.8935220
  81.2569286  84.3078911  47.7272009  81.8319695  83.6036628  46.6997748
  81.5155815  84.2609425  46.9882743  85.3982621  91.0966519  50.6822002
  85.2596980  91.7947565  51.1870744  84.6182619  90.9415176  50.3258183
  85.2625848  91.1766686  50.7048276  83.7360706  87.3962895  56.9344383
  83.7308744  86.5242711  56.9386810  84.4421700  87.5951064  56.4613839
  83.8405710  87.2966769  56.8651419  77.4631599  87.1239879  56.3058203
  77.6074975  87.7041087  55.6701313  77.8107248  87.5016175  57.0108058
  77.5359061  87.2660583  56.3157198  79.6351517  86.3230047  54.0883335
  78.8874831  86.5161061  53.6831613  79.7893042  85.4975267  53.8507456
  79.5473944  86.2295158  53.9928741  76.5359354  95.3142650  53.1719230
  76.6848918  94.7545566  52.5192635  77.3159356  95.3934652  53.5551749
  76.6733448  95.2428216  53.1316179  86.8935994  90.4544773  41.4438501
  86.5142802  89.6681911  41.4367790  86.2302239  91.0031630  41.3010145
  86.7394468  90.4189597  41.4219298  79.0612655  95.4857293  54.4503721
  78.9856326  94.8166104  55.0054509  78.9902514  96.1875082  54.9644387
  79.0393262  95.4902201  54.6080569  79.8753294  80.2180598  54.9778739
  80.3325908  80.9504572  55.1051531  79.9509622  79.7947063  55.7365995
  79.9544263  80.2637836  55.1079815  72.1186285  80.4646417  56.0668182
  71.5828474  79.8526776  56.3828950  72.1804050  81.0394553  56.7201849
  72.0481917  80.4593345  56.2103609  84.3480619  73.3970473  48.8472582
  84.4664188  73.8546936  48.1139884  84.1742795  72.5915734  48.5608799
  84.3399790  73.3464245  48.6973515  79.7182902  94.0058292  45.2827327
  80.4832793  93.7367936  44.9609991  79.6160992  93.5208303  45.9997390
  79.8164397  93.8947857  45.3407155  77.7535671  82.2082702  51.8220563
  76.9631746  82.0274162  52.1437899  78.1496294  81.4309654  51.8050857
  77.6952548  82.0670163  51.8673111  82.2401562  91.0370476  37.2627276
  83.0074547  91.0970601  36.8533128  81.7932871  90.4650917  36.7783595
  82.2874989  90.9607052  37.1304987  83.1379358  89.8425132  49.5480009
  82.4624360  89.6110364  50.0493396  83.1471734  89.2346315  48.9222114
  83.0397862  89.7184057  49.5296161  80.2673502  84.6842961  56.3044062
  80.2032643  85.5452917  56.1764198  80.4070689  84.3674954  55.5039613
  80.2788972  84.7643127  56.1672275  85.1396092  92.6990264  41.7790187
  85.2215930  93.5057250  41.4551638  85.6245835  92.7186223  42.5030960
  85.2233250  92.8210927  41.8377085  78.9492596  87.3775100  50.4460265
  78.5254845  87.5779599  49.7099283  78.7737451  86.5303948  50.5584564
  78.8603476  87.2823882  50.3533955  78.4504289  98.8925613  52.9081722
  78.9400219  98.1936402  52.7257387  77.8788521  98.5949483  53.4957779
  78.4388819  98.7451837  52.9682763  74.2375041  87.8727152  45.8788237
  74.3939660  87.8073954  46.7344229  74.5775634  88.6475704  45.6666917
  74.3108275  87.9776350  45.9742831  80.7754185  87.2485035  44.7481600
  81.3169731  86.7455416  45.2120221  81.0900744  87.1950230  43.9371086
  80.9018582  87.1664456  44.6965412  84.6471293  91.4587682  61.8608513
  85.4606158  91.1872831  62.0213645  84.4866259  91.1595222  61.0568708
  84.7441241  91.3742609  61.7653918  78.9440635  92.6402387  42.0321628
  79.0133455  91.7816925  42.1714629  79.7229090  92.8574268  41.7040653
  79.0693485  92.5455251  42.0038786  81.9243455  82.1421340  54.8003901
  82.1385424  81.5032254  54.2467255  81.3077354  82.5867164  54.3711763
  81.8648784  82.1131483  54.6554332  83.3348123  95.0640088  46.2458122
  82.9427914  94.7606803  45.5280988  83.4901195  95.9009178  46.0563076
  83.3001712  95.1423925  46.1114619  70.8109302  85.0562102  46.1949004
  71.1908267  85.4746647  45.5309272  70.2364667  85.6375558  46.5017848
  70.7820627  85.2039961  46.1425745  84.0882543  83.7510405  55.7387208
  83.2759224  83.4436295  55.8200381  84.5472477  83.2709405  56.3029920
  84.0362927  83.6346897  55.8341802  83.4987797  91.6290077  46.1864152
  83.1402452  91.8004720  46.9628185  83.0126508  92.0903282  45.6292151
  83.3746494  91.7229048  46.2189421  81.3158183  75.2521275  49.7891244
  80.4451741  75.2259996  49.7424553  81.5698525  75.0798467  48.9717089
  81.2251743  75.2231419  49.6611380  78.2876163  87.3089242  38.7264387
  78.5768688  88.0854125  39.0007961  78.3747962  86.7977974  39.4278886
  78.3430419  87.3481161  38.8706884  81.1836050  85.1570476  60.5215910
  81.6535681  85.7812593  60.9083784  81.2297930  84.4887452  61.0809125
  81.2603926  85.1505157  60.6615982  78.3407324  77.2627504  51.2464714
  77.8245812  76.5707695  51.3716293  77.7801253  77.9298281  51.1927313
  78.1813837  77.2590761  51.2570780  80.4099557  77.8020464  53.0757567
  80.0231310  77.8269495  53.8571096  79.9232494  77.2362142  52.6232083
  80.2812066  77.7216215  53.1245470  84.6592537  92.5193973  57.1331353
  85.2972257  92.0254168  56.7993809  84.0166628  92.4471373  56.5483580
  84.6586763  92.4352981  56.9973708  86.3849537  84.3683119  51.6997269
  85.9577145  84.2809467  50.9445368  85.7475590  84.4760894  52.2852113
  86.2279144  84.3715779  51.6742710  80.0756699  74.6887449  55.3667826
  80.7049817  75.2247749  55.0888897  80.2442562  74.5964808  56.2181392
  80.1934493  74.7548812  55.4516355  79.8770614  79.4758644  57.6394238
  80.7044043  79.2043793  57.6952853  79.8978460  80.2719486  57.9958056
  80.0023464  79.5538398  57.7009421  84.7146793  93.2113781  53.7736710
  85.5039171  92.8602846  53.8938792  84.8890391  94.0250169  53.5113344
  84.8567075  93.2799638  53.7524578  74.4540104  86.6222507  50.8264499
  73.6128110  86.5226381  51.0343393  74.6630112  87.3917987  51.1778819
  74.3604796  86.7214550  50.9091814  71.9315671  84.2442044  48.6549249
  71.5372368  84.3185056  47.8799359  71.3755787  84.6299990  49.2057611
  71.7918483  84.3123818  48.6216909  83.5680617  77.2223338  48.3353128
  83.7730211  77.1545646  49.1810125  83.2407041  78.0282159  48.2674306
  83.5495865  77.3309278  48.4512783  78.2656769  84.5503906  50.0762096
  77.9619906  83.9959894  50.6772504  77.5636189  84.7296116  49.5890130
  78.1172978  84.4948688  50.0931802  77.3222866  81.8604426  44.6406798
  77.5982600  81.1423338  44.2284366  77.9221535  82.4589346  44.4327904
  77.4516130  81.8424797  44.5487559  76.3275120  91.7653627  54.7834194
  76.2195474  91.7755689  55.6496252  76.5370901  92.5908407  54.5939148
  76.3425231  91.8894701  54.8838286  86.8214305  77.7755102  47.8155894
  86.2088619  78.2625504  48.2009626  86.9178480  77.0998593  48.3593545
  86.7452203  77.7473411  47.9534752  80.8233386  79.5317943  42.9153393
  81.2777133  79.7028504  43.6401238  81.2973432  78.9186054  42.5151169
  80.9601706  79.4668828  42.9627155  74.3448912  89.0166269  52.2456132
  73.7536845  89.6575767  52.2159147  75.1069935  89.4403886  52.2187431
  74.3697172  89.1742108  52.2371279  74.7409534  80.1768267  52.9124149
  75.2011016  80.2507196  53.6499273  74.7865641  80.9749521  52.5623971
  74.8160090  80.3062414  52.9696906  76.3892884  80.8434962  57.4796176
  75.9978449  80.1968309  57.9151954  76.5578747  81.4346397  58.0990432
  76.3563794  80.8349230  57.6358882  90.4639333  88.8472039  53.2433410
  90.5222457  89.2958688  53.9893386  89.8305801  89.2570852  52.8063490
  90.3790628  88.9745773  53.2885958  84.1038428  94.4675581  49.6788156
  83.9058116  94.9566395  48.9844367  83.4826139  94.6716822  50.2572289
  83.9825992  94.5692119  49.6611379  78.1646406  86.2360477  44.0198400
  78.9088451  86.6234754  44.2581350  78.3107102  85.3917903  44.1838888
  78.2956991  86.1690950  44.0792370  80.0825982  78.0310736  49.0530262
  79.2362027  78.2033544  48.9271612  80.0797114  77.2260080  49.3896090
  79.9573131  77.9371765  49.0841389  81.1524282  81.8085951  49.9192320
  80.6784236  81.2827713  50.4297631  81.5242418  81.2615424  49.3507181
  81.1374171  81.6501947  49.9107467  71.5297312  83.8057458  55.2875865
  72.3922925  83.7053167  55.2013195  71.1989095  83.2252167  54.7261438
  71.6082508  83.7049084  55.1921271  87.4161013  86.8688326  51.3299100
  87.1759235  86.0294742  51.3341527  87.8953020  86.9488493  52.0539874
  87.4513196  86.7569726  51.4373903  83.0807782  82.7022505  42.9818074
  82.5530800  82.7851249  42.2923782  83.5403490  83.4440377  42.9782718
  83.0709632  82.8243168  42.8792769  89.4166200  83.6489784  49.2828359
  89.1775970  83.6085618  48.4449144  89.5800101  84.4960936  49.4094080
  89.4056503  83.7681869  49.1781841  86.0212230  88.0339733  55.2133404
  86.7446429  87.5812259  55.0344424  85.7562192  88.3144399  54.4305732
  86.0893503  88.0090701  55.0712120  74.8899098  82.6299907  51.9486284
  74.2652168  82.6418298  51.3412236  74.5544693  83.1060082  52.5977524
  74.7484590  82.7018424  51.9542852  75.0740847  80.9725025  38.0058969
  74.7253651  81.6244750  38.4690518  74.5937293  80.9582138  37.2782840
  74.9511091  81.0668079  37.9670060  71.6024774  90.6900367  53.3890048
  71.0724698  89.9992806  53.4385023  71.8749867  90.6810552  52.5602756
  71.5649496  90.5867498  53.2737464  82.6344864  91.2726069  42.1127731
  83.3579063  91.7384182  41.9692304  82.1945455  91.3399679  41.3625328
  82.6760556  91.3509906  41.9812512  81.8031019  88.1323611  53.3628420
  81.1888012  87.5881662  53.6577055  82.3198304  87.6187848  52.8834236
  81.7886682  87.9760020  53.3352648  81.0427316  89.2027881  51.0972718
  80.6154924  88.5777600  50.6638154  81.0352261  88.9202803  51.9231725
  80.9786458  89.0680662  51.1552546  74.1589843  84.2393054  54.1661152
  74.3183330  83.4836378  54.5712874  73.9782737  84.7883994  54.8201890
  74.1555202  84.2086868  54.3223858  82.1010146  76.4054290  54.7211942
  81.6050708  76.6017964  54.0303508  82.8579208  76.8046958  54.5500743
  82.1396971  76.4932024  54.5932078  79.3713026  80.0796636  51.3115252
  79.3955513  79.5456748  50.6228032  79.6224500  79.5713945  51.9740843
  79.4122945  79.9257540  51.3079897  66.8820616  87.3628131  50.7458396
  66.7764065  87.3174975  49.8810480  66.1320836  87.7081911  51.0272681
  66.7556219  87.4069039  50.6595726  75.6514348  78.8067454  50.6920996
  75.6912720  79.3076661  51.4055704  74.8264013  78.8977848  50.4226920
  75.5353874  78.8949270  50.7571535  77.8343961  88.3728194  58.7941291
  76.9839592  88.5099908  58.9298936  77.9972089  87.6391972  59.2388993
  77.7327825  88.2842295  58.8796890  77.0728712  85.3227964  52.9894895
  76.2420641  85.4901782  52.7830144  77.0180229  84.9463915  53.7743781
  76.9418127  85.2917695  53.0743424  74.8812495  78.8136857  58.6251306
  75.5065198  78.2698990  58.8980738  74.4262975  78.3331774  58.0559097
  74.9060756  78.6626338  58.5812900  75.4464755  83.5983555  43.5185013
  75.5867717  84.0956020  44.2213655  75.9447288  82.8969850  43.6599227
  75.5405836  83.5685534  43.6436592  75.4764978  84.4650666  40.8477590
  76.1110057  85.0611091  40.7827052  75.5590589  84.1654124  41.6623460
  75.5821529  84.5091575  40.9580677  88.4547544  86.9966144  53.7163954
  89.0465384  87.6363395  53.7482152  88.8906538  86.2989181  54.0056021
  88.6065975  86.9884494  53.7644787  77.0543961  80.3964642  40.8223032
  77.3759802  79.9167724  40.1682294  77.3170904  81.2064288  40.6313844
  77.1409986  80.4454540  40.6978524  80.2840934  91.4183516  54.3421848
  79.7766025  91.9719363  54.7862479  79.9867580  91.4791806  53.5240623
  80.1645818  91.5089827  54.2870305  82.4503116  79.7836836  53.1846511
  82.8758187  79.3309362  52.5730038  81.8360109  79.2296907  53.4611299
  82.4231761  79.6350812  53.1351536  71.9817966  86.6618507  44.1167136
  72.4910195  87.2583015  44.4978442  72.4552238  86.3944481  43.4343556
  72.1261341  86.7104323  44.0721659  82.8948714  95.3346774  42.2725792
  82.1778024  95.1607636  41.8073029  83.5455451  95.0999346  41.7401278
  82.8850564  95.2742566  42.1255010  80.8897339  76.2551936  46.5937088
  80.2465657  76.1049582  47.1622227  80.5496746  76.0094281  45.8286193
  80.7442416  76.1964058  46.5640103  85.4796685  84.2111362  46.0167097
  84.8087875  84.7541065  45.8880162  86.1736435  84.6806218  45.7748792
  85.4825553  84.3609634  45.9622624  79.5283419  96.3508074  51.2478855
  79.3049073  95.5926904  51.6162881  79.0393262  96.3806096  50.5259295
  79.4226868  96.2430299  51.1955596  85.6424813  80.6667246  48.9257470
  85.9952423  80.2396969  49.6003269  84.7839614  80.5818090  49.0558546
  85.5674257  80.5911987  49.0452480  74.3408498  83.2974766  46.9840316
  73.6220487  83.7138898  47.2513180  74.7120860  83.8629005  46.4331955
  74.2900429  83.4424047  46.9423123  83.6408078  83.9302615  52.8742312
  83.6206006  83.7485910  53.7277091  83.6887279  84.8014633  52.8501896
  83.6442719  84.0319153  52.9965607  81.5854408  90.5189807  58.7990789
  81.5450263  89.8739484  58.2135945  82.3977726  90.4626424  59.1116201
  81.6997562  90.4148773  58.7587738  78.1761876  96.5708533  48.7015940
  77.7622274  95.9082663  48.3119781  78.8609250  96.7186391  48.1811634
  78.2160247  96.4949191  48.5672437  81.5427170  95.7298618  49.4539556
  81.1443453  95.8400888  48.6860376  80.9278389  95.9380684  50.0366116
  81.3926059  95.7772186  49.4270856  80.1155072  82.3372766  42.3213696
  79.5219911  82.6589762  41.7698263  80.1530350  81.4913861  42.1134802
  80.0329461  82.2597094  42.2096467  87.0748873  75.7885658  49.8541782
  86.5679737  75.0814797  49.7862960  87.8716306  75.4578847  49.9842859
  87.1176112  75.6358809  49.8640777  82.9912888  82.2952270  45.7515446
  82.7626581  82.3184972  44.9093804  83.2510965  81.4709737  45.8710457
  82.9959076  82.1768350  45.6440644  77.2732117  84.1486743  55.3540546
  76.7611020  83.5407926  55.7125578  77.1011613  84.8643336  55.8214522
  77.1721754  84.1650042  55.4756770  72.1197832  82.5924319  58.0042908
  71.9500422  83.2525693  57.4591115  71.6763781  82.8030880  58.7255397
  72.0297165  82.7210301  58.0304538  76.0457651  80.8328816  47.0469642
  76.5215017  81.1945896  46.4119823  75.5446251  81.4885284  47.3269785
  76.0423010  80.9823005  46.9946383  89.2769013  90.3050585  42.8382647
  89.6602618  91.0541941  43.0680744  88.4813126  90.5516404  42.5794636
  89.2162795  90.4520278  42.8340220  81.1501187  82.0710988  57.7942802
  81.7072617  81.8424797  57.1621267  80.8262252  82.8316653  57.5178014
  81.1847597  82.1494825  57.6599299  69.0199896  85.4971184  53.2631398
  68.4726616  84.8271830  53.3812266  69.8092274  85.1301032  53.3274865
  69.0552080  85.3436170  53.2900099  78.8684304  85.1578641  58.7594809
  79.6195631  85.4730318  59.0734363  79.0606881  84.9557812  57.9328731
  79.0075719  85.1746023  58.6838205  78.0884304  82.9770016  40.4143026
  78.4683269  82.9949645  39.6294141  77.3476900  83.4224005  40.2933873
  78.0353142  83.0451791  40.2806594  85.7169595  81.2852207  46.0018604
  85.7163821  81.1300864  46.8602881  85.5125775  82.1315195  45.9459990
  85.6869372  81.3872828  46.1206544  67.7786866  84.7091992  50.4177421
  67.6008627  84.2568601  51.1432337  67.4905888  85.5118153  50.6015899
  67.7099819  84.7614550  50.5520924  83.4410447  85.9649709  49.6554811
  83.9364112  85.2472704  49.6158832  82.6310222  85.6620507  49.5409298
  83.3954340  85.8147356  49.6328537  78.8869058  89.8147522  41.8051816
  78.0780381  89.4914196  41.7585125  79.3943967  89.1080745  41.7380064
  78.8418725  89.6628839  41.7882110  69.5159335  87.2419716  47.5299180
  68.6504855  87.2305406  47.4181951  69.6158151  87.0549938  48.3770319
  69.4033502  87.2125777  47.6388125  85.5062266  88.7153397  52.3431940
  85.9317337  88.1927819  51.7902365  85.1419185  89.3134234  51.8220563
  85.5148868  88.7263624  52.1840950  75.1416345  97.0117614  51.1029286
  75.4562904  97.8254003  51.1107067  75.5509759  96.6267833  51.7711445
  75.2484443  97.0746317  51.2033377  82.0940865  92.4287661  48.6733098
  82.5652043  93.1427924  48.8423083  82.4301044  91.8286411  49.2092967
  82.2135980  92.4459125  48.7765473  84.1817850  94.0388974  60.8525170
  84.2914815  93.2497535  61.2081917  84.5108746  93.9494911  60.0499508
  84.2470255  93.9094827  60.7867560  79.0110360  77.2015132  55.6291192
  79.1438266  76.4046125  55.9572168  79.3955513  77.7281535  56.2089468
  79.0866689  77.1615048  55.7634695  82.7314811  92.2205595  55.4360790
  82.1835757  91.5963479  55.1680855  83.1927840  92.4099867  54.7204870
  82.7182021  92.1564645  55.2911221  82.0842715  74.1245458  52.2272286
  81.2788679  74.0143187  52.5440124  81.9549451  74.2257913  51.3702151
  81.9462848  74.1229128  52.1480326  85.5408676  80.2890950  52.8211982
  84.9571664  80.7900156  52.4089550  85.8612970  79.7820506  52.1876306
  85.5021851  80.2882785  52.6670490  78.0803475  79.2031544  43.0970657
  78.9019169  79.3729857  42.8552352  77.6173126  79.3578805  42.3736955
  78.1334637  79.2513277  42.9542302  76.6698807  77.1974307  53.8769086
  77.2143220  76.8565433  54.4673428  76.7235742  78.0559768  54.0190371
  76.7587926  77.2729566  53.9850959  72.4829365  90.9590723  50.7507894
  73.0874223  90.9186557  50.1221715  72.2756678  91.8061875  50.7811950
  72.5418263  91.0778725  50.6624011  82.2973138  93.2256668  51.9670131
  83.1171511  93.0819634  52.2286427  82.0167215  93.8502867  52.5086569
  82.3769881  93.2967020  52.0858071  67.7180648  89.9425340  50.6206817
  67.6204926  89.1321612  50.9296874  68.5009517  89.9217134  50.2353085
  67.8196784  89.8192430  50.6093680  98.7686788 100.8821520  44.9313008
  98.7380792 101.7366156  45.1031277  99.3668137 100.5816812  45.4899151
  98.8523946 100.9638016  45.0387810  91.9686473  99.9697171  49.6865938
  91.1124368 100.1305669  49.7375055  92.0154127  99.0989235  49.7070999
  91.8485584  99.8647972  49.6972004  86.3527613 109.5059888  45.4503170
  85.6010512 109.1275427  45.2219215  86.8013624 109.5378322  44.7021980
  86.3077279 109.4545496  45.3060672  95.2780189 106.2383696  59.2926394
  95.9846957 105.7435727  59.4213329  95.4668125 106.6792778  58.5629052
  95.4108095 106.2302047  59.2035440  91.8052572 109.9285258  40.8788717
  91.4703941 110.6062180  40.4432939  92.3179443 109.5390569  40.2905588
  91.8318154 109.9709836  40.7275508  91.3456864 111.8799527  46.8199828
  91.7296243 112.4486425  46.2804604  91.2816005 111.1549037  46.3405644
  91.3930291 111.8574990  46.6693691  94.8138294 102.0289214  52.3297590
  95.3594254 102.7074301  52.3891559  94.7555170 101.8876675  51.4699171
  94.8854208 102.1081216  52.2109650  87.9312369 109.5178281  47.7165942
  88.0322732 108.7078635  48.0263070  87.3354114 109.4235227  47.0865621
  87.8584907 109.3843309  47.6692181  96.5903363 103.4573822  43.2031318
  96.4742888 104.2081508  43.6323456  97.3859249 103.1997775  43.4527405
  96.6907952 103.5308668  43.3035409  87.7713108 114.4355870  49.1180798
  88.4150564 114.8769034  49.5076957  88.0969364 113.6309296  49.0311057
  87.9144937 114.3821064  49.1626276  81.1277413 105.5398567  47.3418276
  80.8927597 104.7066220  47.2350545  81.2663054 105.8203233  46.5279477
  81.1133075 105.4582071  47.2060631  83.4267500  97.7084298  50.2402584
  82.8072532  97.1176945  50.0712598  83.3251364  98.2995733  49.6066907
  83.3205176  97.7088380  50.1207573  88.4733688 107.4467845  44.4900660
  88.7949529 107.9873052  43.8861968  89.1205785 106.8764616  44.6222950
  88.6159743 107.4427020  44.4207695  90.5235396  99.4483840  44.5735047
  91.2215561  99.6271967  45.0656510  90.8387729  98.9254179  43.9505436
  90.6730733  99.3977612  44.5537057  83.1536633 101.2536579  52.4846153
  83.0295330 101.8399025  53.1195971  83.8054918 100.7596775  52.7858428
  83.2310283 101.2675384  52.6232082  90.7123331 105.8354285  44.5614838
  91.1516967 105.2271385  45.0069611  90.5627994 105.4561658  43.7900303
  90.7544797 105.6892756  44.5134006  88.1794974 104.4298296  51.7633664
  88.8243977 103.9370740  51.4444612  88.4196752 104.5723083  52.5899742
  88.3105560 104.3775739  51.8383197  90.7181066 107.2753202  51.4140556
  91.0004309 106.4804608  51.1927312  91.4467226 107.7533790  51.4345617
  90.8670630 107.2287799  51.3843571  88.6962260  94.8176236  48.6556321
  88.3665590  95.2687380  47.9860020  88.0207261  94.7392400  49.2029328
  88.5472696  94.8727371  48.6379545  94.3132668 104.1881466  41.5145607
  94.2283963 105.0442433  41.6595176  94.8017051 103.9125790  42.1827767
  94.3721565 104.2738787  41.6347689  95.9038667  90.8061759  46.9005932
  95.5892108  91.4965238  47.3326354  95.3865609  90.7506541  46.1991433
  95.7803138  90.8996648  46.8602881  95.2451101 100.8066260  43.0143343
  94.7162573 101.0225894  43.6740649  95.7676121 101.5002399  42.9344312
  95.2439554 100.9409397  43.0998942 100.6999154 106.3812564  48.3876387
  99.8696857 106.5923208  48.5509804 100.6508406 105.5549619  48.1118671
 100.5705890 106.2902171  48.3713752  87.1350709 104.7029477  41.8150811
  86.5507924 105.2079508  42.2216674  86.7320804 104.4771864  41.0747402
  86.9890013 104.7437725  41.7655836  82.6894738 110.4184238  48.6174482
  82.2062316 111.1434728  48.5934066  83.5018056 110.7160368  48.7284640
  82.7385485 110.5686592  48.6301761  88.7608892 109.2116419  51.2224297
  88.2435833 108.8523834  50.6185605  89.4583283 108.6878593  51.2330363
  88.7874473 109.0814107  51.1354555  92.4172484 109.6611233  57.1840470
  92.5055830 109.4737373  58.0318680  92.8462196 109.0148662  56.7845316
  92.4934586 109.5374240  57.2512221  89.9842943 108.9442393  56.1658132
  89.4213778 108.5315002  56.6897793  90.7463967 108.8695298  56.5851275
  90.0137392 108.8719793  56.3051132  91.5927923 100.9495129  40.2919731
  91.8323927 101.1573113  39.4795074  91.9143764 100.1452638  40.4008676
  91.6765081 100.8609230  40.1880284  86.9018214  92.8788525  44.1379269
  87.6564182  93.2466842  43.8996319  86.7245748  93.2528079  44.9058449
  86.9872692  92.9886713  44.2164158  85.5438935 110.9340414  48.7694762
  86.2459514 110.4192403  48.8267518  85.4636418 111.2614565  49.5741637
  85.6362695 110.9054640  48.8967554 100.1953112  99.0282965  52.1826808
  99.3581534  99.0985152  52.4174403 100.1641343  99.0307460  51.3101111
 100.0671395  99.0393192  52.0886356  86.5917842 101.1716001  57.8975177
  86.7638345 101.0621895  58.7460458  87.1287199 101.8170406  57.6606369
  86.6962845 101.2508002  57.9880274  85.2575278  95.2858844  40.8357382
  85.0750852  95.5030724  40.0098375  86.1200891  95.3997856  40.8915996
  85.3579868  95.3348742  40.7211869  84.8689710 107.1246766  48.2780370
  85.7078610 107.3569699  48.3254132  84.9001480 106.2551077  48.2087405
  84.9971428 107.0303712  48.2745015  85.4942413 107.5447641  52.5793675
  86.0340638 107.4018772  53.2497048  84.8112360 107.9444392  52.9477702
  85.4734567 107.5827312  52.7328097  90.9374998  92.2885254  43.8706406
  91.6661158  92.1101209  43.4244562  91.0269890  93.1303334  44.0813584
  91.0581660  92.3869133  43.8359924  94.9183298 103.2238642  47.7738700
  95.6740813 103.6570156  47.8127609  95.0245623 102.5743411  48.3473336
  95.0453469 103.1916126  47.8636725  97.9563469 107.0511919  48.5241103
  97.5198701 107.0548661  49.2800074  97.6226385 107.7317418  48.0920680
  97.8426089 107.1524375  48.5721935  92.5292543 109.0920252  59.8484253
  93.3132960 109.2051100  60.2139995  92.3289138 108.2661389  60.0442939
  92.6158568 108.9866971  59.9318639  80.8979558 103.7647932  52.7328097
  80.6317974 102.9487049  52.8919087  80.9118123 103.8101087  51.8623613
  80.8604281 103.6504837  52.6281579  97.8760952  94.0925747  50.7670531
  98.5186861  94.1623851  51.3532446  98.1283973  93.4254970  50.2650073
  98.0083084  94.0052095  50.7797810  84.8037305  98.5633016  39.3479855
  84.0895483  98.2771196  39.7602288  85.2881274  98.9029642  39.9886243
  84.7696669  98.5714666  39.5035490  85.6478165  97.3026310  55.3795105
  84.9549962  96.8323290  55.6255836  86.2638492  97.0764615  55.9536812
  85.6362695  97.1993442  55.5004257  92.6862936 111.0030354  53.4950709
  91.8878182 110.7629854  53.7524577  93.1348948 111.0544747  54.2417756
  92.6337548 110.9752745  53.6435633 101.0907816 103.7692839  47.4160740
 101.7524250 103.2083507  47.3156649 100.4499228 103.2744870  47.7413431
 101.0936683 103.6129248  47.4493080  91.9784623 107.0662970  39.7241663
  92.3935772 106.7347994  39.0326159  91.1476553 106.8331872  39.5961800
  91.9172632 106.9834226  39.6032511  81.3072972 104.5506711  50.0139841
  81.1248545 104.5253597  49.1612133  82.0422641 105.0205649  50.0528750
  81.3887036 104.6168073  49.8937760  97.3772646 104.7858221  47.1572729
  97.6128235 104.9303420  46.3299579  97.5262210 105.5500629  47.5504242
  97.4338450 104.9197276  47.0936333  84.3718724 101.2691714  56.5221950
  85.0958696 101.2544745  57.0086845  84.4734860 101.9787069  56.0243918
  84.4936933 101.3716417  56.5200737  99.2063103 103.6259887  44.9942333
  99.5371320 104.1587527  44.3882428  99.7796191 103.6798775  45.6504284
  99.3396782 103.7129456  45.0020114  91.7463673 104.7490799  61.3870897
  90.9536654 105.0634311  61.5723517  91.8612600 104.9642267  60.5491682
  91.6459084 104.8274635  61.2909232  94.4194992 101.4724790  45.6765913
  94.5141847 102.2114084  46.1305538  93.7953836 101.0442265  46.1100477
  94.3404022 101.5186110  45.8074060  92.6747466 104.6511002  56.3256194
  93.2486328 104.0138247  56.4804758  92.5962270 104.6515085  55.4565851
  92.7480701 104.5576114  56.2202605  81.2743882 101.4300212  50.1638908
  81.8517385 101.2936663  50.8031153  80.5757944 100.9735996  50.4184492
  81.2564904 101.3422478  50.2961198  94.6718013 103.3173530  38.9102865
  94.5898176 103.3875717  39.7757852  95.3097734 103.8803274  38.7186605
  94.7537851 103.4112501  39.0092814  88.0311185 103.0834268  48.3777391
  87.7730429 102.2506002  48.3508691  88.0859667 103.3091881  47.5369891
  88.0010962 102.9932039  48.2497528  93.1112235  95.1862718  48.4781484
  92.4068561  94.6971904  48.6365403  93.1597209  95.1985193  47.6069928
  93.0142286  95.1152366  48.3720824  87.0045897 100.6372030  48.8642286
  86.4295488 100.7964198  49.5006247  86.6281573 100.0007439  48.4010736
  86.8648709 100.5669843  48.8896844  90.6719185  99.1095379  53.7234664
  90.2833618  98.6849597  53.0686855  90.0073884  99.3577529  54.2311691
  90.5166113  99.0834100  53.7022532 100.3142455  98.8670384  46.4982494
 100.0579019  98.0550325  46.3080377 101.1571769  98.8747951  46.2712682
 100.4008480  98.7482381  46.4367311  76.7502716 100.2812105  46.8786726
  76.8362967  99.9043973  47.6600256  77.3778513  99.9072550  46.4006685
  76.8559267 100.1697587  46.9232204  94.4945547  92.8070008  51.2358648
  94.8756059  92.1248179  51.6226523  93.6908831  92.5179610  51.0534313
  94.4322009  92.6637057  51.2662704  91.7758124 103.3393984  41.9211471
  92.5898762 103.6308877  41.8094243  91.7117265 102.6853846  41.3469764
  91.8860863 103.2859179  41.8200309  97.9967614 106.0219980  56.3341047
  97.7606251 105.1908045  56.2153107  98.6410843 105.9705587  56.9195891
  98.0562285 105.8917668  56.4026940  87.6466032 106.8115501  47.0483783
  88.2839979 106.5727249  47.5935577  88.0721104 107.0152660  46.3136944
  87.8042198 106.8066512  47.0200941  82.3378674 109.0503838  50.9318087
  82.3782820 109.3218689  50.1037867  82.8973198 109.5745746  51.3475875
  82.4262020 109.1679593  50.8709975  88.2868847 102.0317791  41.3858673
  88.6714000 101.8125498  42.1375218  88.0380467 102.8580737  41.5159749
  88.3070920 102.1215937  41.5159749  88.4537387  95.3124206  61.1021257
  88.1390828  96.0823769  60.8390820  88.1327320  94.7494462  60.5173484
  88.3596306  95.3434475  60.9762607  99.0204034 105.8064429  52.3969341
  98.7149852 106.5392486  52.7582657  98.3010250 105.4002358  52.1162127
  98.8691377 105.8546162  52.4082478  90.0287504 107.2887924  48.7277570
  90.1026512 107.1263096  49.5819419  90.8457010 107.4778114  48.4838051
  90.1603863 107.2924666  48.8175595 104.7205827 102.4457429  51.7237686
 104.6530327 102.4653389  50.8540272 104.7061489 103.2887757  51.9493356
 104.7084583 102.5731164  51.6290162  83.7893261 107.6345787  45.7572013
  82.9631378 107.8807524  45.6306292  83.8505252 107.5557868  46.6234071
  83.6767428 107.6590736  45.8660957  86.0069284  93.7014728  46.7167453
  85.1391710  93.7737327  46.7825062  86.2944489  94.5036807  46.9055428
  85.9209032  93.8308875  46.7542220  95.1302173  93.8492587  55.0478775
  95.8755765  93.6602398  54.6342200  94.7139478  94.3750825  54.4892631
  95.1787147  93.8994733  54.9043348  88.5692090 110.2522667  43.4591043
  88.8590388 109.8611648  42.7350270  89.2995570 110.4339372  43.8996318
  88.7198974 110.2216481  43.4173850 102.5064444 101.2201816  49.9984280
 103.0572365 100.5869885  50.2381372 102.4908559 101.7517208  50.6899784
 102.5849640 101.2050764  50.1363138  89.1586835 105.0540413  54.5444173
  88.6598528 105.7656181  54.6229062  89.9687059 105.3741080  54.5062336
  89.2042941 105.2067262  54.5500742  86.5098005 112.2290049  46.5251193
  86.2898301 111.9387404  47.3177860  86.2892527 111.5705005  45.9969105
  86.4445599 112.0889758  46.5640101  85.4214952 104.3163366  48.7906894
  85.1328201 103.6900837  49.3252622  86.2898300 104.2583653  48.8571575
  85.5075204 104.2150910  48.8797849  96.2092850  99.4598149  49.1088876
  95.8657616  98.7388485  49.4596126  96.3085893  99.2512001  48.2667234
  96.1734893  99.3222353  49.0360556  88.6765961 113.6019439  45.3081885
  89.3290019 113.0695882  45.5372911  87.9791570 113.2488092  45.6949759
  88.6696679 113.4708962  45.3994053  85.6247226 105.9558617  44.7149259
  86.3793194 106.3371656  44.9284722  85.0317838 106.4069761  45.1695956
  85.6483939 106.0787444  44.8132138  96.6705879 105.9223853  44.6512864
  97.2363912 106.5817063  44.5671407  96.0233783 106.2673552  45.1229266
  96.6584636 106.0705795  44.7085621  88.0853893  97.9121457  59.8406472
  87.2753669  98.2179237  59.7296314  88.5628579  98.6327040  59.9559056
  88.0357372  98.0636059  59.8413543  86.9445452 107.1267178  50.0889375
  86.4226206 107.2667470  50.7741239  87.3319473 106.3677843  50.2791492
  86.9249153 107.0352702  50.2190451  83.9336636  97.1772987  44.1584329
  83.6461432  96.8074258  43.4216277  84.6207105  97.6467842  43.8968034
  83.9925534  97.1919956  44.0099405  93.1412457 108.8662638  44.0749944
  92.8999133 108.1330498  43.6677009  93.3213790 109.4149495  43.4216277
  93.1320081 108.8385029  43.9180166  88.3711778 104.1571197  45.4870866
  88.1754561 104.7645932  44.8931169  88.5946124 103.4639141  45.0062540
  88.3746419 104.1448723  45.3286947  86.7690308 101.0425935  45.6051734
  87.4912960 101.2067093  45.1455540  86.2898301 101.7635600  45.4991074
  86.8054039 101.1724165  45.5217348  94.7283816  97.3789734  50.9848419
  93.8894916  97.4051013  50.7486682  94.7988183  98.0260470  51.5653766
  94.6152209  97.4785860  51.0357536  84.4197925 103.4484008  54.7105874
  84.9319022 103.7268261  54.0614634  84.1334267 104.1873302  55.0768687
  84.4532788 103.5986361  54.6695752  93.1753094  94.2775111  45.7176035
  93.8779447  94.0782859  45.2395993  92.9097283  93.5051054  46.0244879
  93.2399726  94.1338077  45.6921477  98.6041339 102.5857721  48.2709661
  98.5175314 102.7413147  49.1244440  98.1491819 103.2295796  47.8969066
  98.5244596 102.7033476  48.3416768  81.5064831  97.9554200  45.0069611
  81.6080967  98.7580361  45.3350586  82.3020718  97.7541535  44.7092691
  81.6392737  98.0440098  45.0104966  87.9381650  95.5410396  54.7706916
  87.7464847  95.5565531  55.6206339  88.7880246  95.7374071  54.7473570
  88.0357372  95.5724748  54.8930210  82.3228563  98.0701378  52.7490732
  82.1814055  97.2185318  52.8735240  82.6069126  98.1130038  51.9252938
  82.3436409  97.9501128  52.6458356  92.4767155  99.9068468  46.8935220
  92.2301870  99.8264219  47.7272009  92.8052279  99.1221936  46.6997748
  92.4888399  99.7794733  46.9882743  96.3715204 106.6151827  50.6822002
  96.2329564 107.3132873  51.1870744  95.5915202 106.4600484  50.3258183
  96.2358431 106.6951994  50.7048276  94.7093289 102.9148203  56.9344383
  94.7041328 102.0428019  56.9386810  95.4154283 103.1136372  56.4613839
  94.8138293 102.8152077  56.8651419  88.4364183 102.6425187  56.3058203
  88.5807558 103.2226395  55.6701313  88.7839831 103.0201483  57.0108058
  88.5091644 102.7845891  56.3157198  90.6084100 101.8415355  54.0883335
  89.8607414 102.0346369  53.6831613  90.7625625 101.0160575  53.8507456
  90.5206528 101.7480466  53.9928741  87.5091938 110.8327958  53.1719230
  87.6581501 110.2730874  52.5192635  88.2891940 110.9119960  53.5551749
  87.6466031 110.7613524  53.1316179  97.8668577 105.9730081  41.4438501
  97.4875386 105.1867219  41.4367790  97.2034823 106.5216938  41.3010145
  97.7127052 105.9374905  41.4219298  90.0345238 111.0042601  54.4503721
  89.9588909 110.3351412  55.0054509  89.9635098 111.7060389  54.9644387
  90.0125845 111.0087509  54.6080569  90.8485877  95.7365906  54.9778739
  91.3058491  96.4689880  55.1051531  90.9242206  95.3132371  55.7365995
  90.9276847  95.7823144  55.1079815  83.0918868  95.9831725  56.0668182
  82.5561058  95.3712084  56.3828950  83.1536633  96.5579861  56.7201849
  83.0214501  95.9778653  56.2103609  95.3213203  88.9155781  48.8472582
  95.4396771  89.3732244  48.1139884  95.1475379  88.1101042  48.5608799
  95.3132374  88.8649553  48.6973515  90.6915485 109.5243600  45.2827327
  91.4565376 109.2553244  44.9609991  90.5893575 109.0393611  45.9997390
  90.7896981 109.4133165  45.3407155  88.7268255  97.7268010  51.8220563
  87.9364330  97.5459470  52.1437899  89.1228878  96.9494962  51.8050857
  88.6685131  97.5855471  51.8673111  93.2134146 106.5555784  37.2627276
  93.9807131 106.6155909  36.8533128  92.7665455 105.9836225  36.7783595
  93.2607573 106.4792360  37.1304987  94.1111941 105.3610440  49.5480009
  93.4356943 105.1295672  50.0493396  94.1204317 104.7531623  48.9222114
  94.0130446 105.2369365  49.5296161  91.2406085 100.2028269  56.3044062
  91.1765227 101.0638225  56.1764198  91.3803273  99.8860262  55.5039613
  91.2521555 100.2828435  56.1672275  96.1128676 108.2175572  41.7790187
  96.1948513 109.0242558  41.4551638  96.5978418 108.2371531  42.5030960
  96.1965834 108.3396235  41.8377085  89.9225179 102.8960408  50.4460265
  89.4987428 103.0964907  49.7099283  89.7470034 102.0489256  50.5584564
  89.8336060 102.8009190  50.3533955  89.4236873 114.4110921  52.9081722
  89.9132803 113.7121710  52.7257387  88.8521105 114.1134791  53.4957779
  89.4121403 114.2637145  52.9682763  85.2107624 103.3912460  45.8788237
  85.3672243 103.3259262  46.7344229  85.5508217 104.1661012  45.6666917
  85.2840859 103.4961658  45.9742831  91.7486769 102.7670343  44.7481600
  92.2902314 102.2640724  45.2120221  92.0633328 102.7135538  43.9371086
  91.8751166 102.6849764  44.6965412  95.6203876 106.9772990  61.8608513
  96.4338742 106.7058139  62.0213645  95.4598843 106.6780530  61.0568708
  95.7173825 106.8927916  61.7653918  89.9173219 108.1587695  42.0321628
  89.9866039 107.3002233  42.1714629  90.6961674 108.3759575  41.7040653
  90.0426069 108.0640559  42.0038786  92.8976038  97.6606648  54.8003901
  93.1118008  97.0217562  54.2467255  92.2809937  98.1052471  54.3711763
  92.8381367  97.6316791  54.6554332  94.3080706 110.5825396  46.2458122
  93.9160498 110.2792111  45.5280988  94.4633778 111.4194486  46.0563076
  94.2734296 110.6609233  46.1114619  81.7841886 100.5747410  46.1949004
  82.1640851 100.9931955  45.5309272  81.2097250 101.1560866  46.5017848
  81.7553211 100.7225269  46.1425745  95.0615126  99.2695713  55.7387208
  94.2491808  98.9621603  55.8200381  95.5205061  98.7894713  56.3029920
  95.0095511  99.1532205  55.8341802  94.4720381 107.1475385  46.1864152
  94.1135036 107.3190028  46.9628185  93.9859092 107.6088590  45.6292151
  94.3479078 107.2414356  46.2189421  92.2890767  90.7706583  49.7891244
  91.4184325  90.7445304  49.7424553  92.5431108  90.5983775  48.9717089
  92.1984327  90.7416727  49.6611380  89.2608746 102.8274550  38.7264387
  89.5501271 103.6039433  39.0007961  89.3480545 102.3163282  39.4278886
  89.3163003 102.8666469  38.8706884  92.1568634 100.6755784  60.5215910
  92.6268265 101.2997901  60.9083784  92.2030514 100.0072760  61.0809125
  92.2336510 100.6690464  60.6615982  89.3139907  92.7812812  51.2464714
  88.7978396  92.0893003  51.3716293  88.7533836  93.4483589  51.1927313
  89.1546421  92.7776069  51.2570780  91.3832141  93.3205772  53.0757567
  90.9963894  93.3454803  53.8571096  90.8965078  92.7547450  52.6232083
  91.2544650  93.2401523  53.1245470  95.6325120 108.0379281  57.1331353
  96.2704841 107.5439476  56.7993809  94.9899212 107.9656681  56.5483580
  95.6319347 107.9538289  56.9973708  97.3582120  99.8868427  51.6997269
  96.9309728  99.7994775  50.9445368  96.7208173  99.9946202  52.2852113
  97.2011728  99.8901087  51.6742710  91.0489283  90.2072757  55.3667826
  91.6782400  90.7433057  55.0888897  91.2175145  90.1150116  56.2181392
  91.1667077  90.2734119  55.4516355  90.8503197  94.9943952  57.6394238
  91.6776627  94.7229101  57.6952853  90.8711043  95.7904794  57.9958056
  90.9756047  95.0723706  57.7009421  95.6879377 108.7299089  53.7736710
  96.4771755 108.3788154  53.8938792  95.8622975 109.5435477  53.5113344
  95.8299658 108.7984946  53.7524578  85.4272687 102.1407815  50.8264499
  84.5860694 102.0411689  51.0343393  85.6362695 102.9103295  51.1778819
  85.3337380 102.2399858  50.9091814  82.9048254  99.7627352  48.6549249
  82.5104952  99.8370363  47.8799359  82.3488371 100.1485298  49.2057611
  82.7651067  99.8309126  48.6216909  94.5413201  92.7408646  48.3353128
  94.7462794  92.6730954  49.1810125  94.2139625  93.5467467  48.2674306
  94.5228449  92.8494586  48.4512783  89.2389352 100.0689214  50.0762096
  88.9352490  99.5145202  50.6772504  88.5368773 100.2481424  49.5890130
  89.0905562 100.0133996  50.0931802  88.2955449  97.3789734  44.6406798
  88.5715184  96.6608646  44.2284366  88.8954119  97.9774654  44.4327904
  88.4248714  97.3610104  44.5487559  87.3007703 107.2838935  54.7834194
  87.1928058 107.2940997  55.6496252  87.5103485 108.1093715  54.5939148
  87.3157814 107.4080009  54.8838286  97.7946889  93.2940410  47.8155894
  97.1821202  93.7810812  48.2009626  97.8911064  92.6183901  48.3593545
  97.7184786  93.2658719  47.9534752  91.7965970  95.0503251  42.9153393
  92.2509716  95.2213811  43.6401238  92.2706015  94.4371362  42.5151169
  91.9334290  94.9854136  42.9627155  85.3181495 104.5351577  52.2456132
  84.7269428 105.1761075  52.2159147  86.0802519 104.9589194  52.2187431
  85.3429756 104.6927415  52.2371279  85.7142118  95.6953575  52.9124149
  86.1743599  95.7692504  53.6499273  85.7598225  96.4934829  52.5623971
  85.7892673  95.8247722  52.9696906  87.3625468  96.3620270  57.4796176
  86.9711033  95.7153617  57.9151954  87.5311330  96.9531705  58.0990432
  87.3296378  96.3534538  57.6358882 101.4371917 104.3657347  53.2433410
 101.4955040 104.8143995  53.9893386 100.8038384 104.7756160  52.8063490
 101.3523212 104.4931081  53.2885958  95.0771011 109.9860889  49.6788156
  94.8790700 110.4751703  48.9844367  94.4558722 110.1902130  50.2572289
  94.9558576 110.0877427  49.6611379  89.1378990 101.7545785  44.0198400
  89.8821035 102.1420062  44.2581350  89.2839686 100.9103211  44.1838888
  89.2689575 101.6876258  44.0792370  91.0558565  93.5496044  49.0530262
  90.2094610  93.7218852  48.9271612  91.0529698  92.7445388  49.3896090
  90.9305715  93.4557073  49.0841389  92.1256866  97.3271259  49.9192320
  91.6516820  96.8013021  50.4297631  92.4975001  96.7800732  49.3507181
  92.1106754  97.1687255  49.9107467  82.5029896  99.3242765  55.2875865
  83.3655509  99.2238475  55.2013195  82.1721679  98.7437475  54.7261438
  82.5815092  99.2234392  55.1921271  98.3893596 102.3873634  51.3299100
  98.1491819 101.5480050  51.3341527  98.8685603 102.4673801  52.0539874
  98.4245780 102.2755034  51.4373903  94.0540365  98.2207813  42.9818074
  93.5263384  98.3036557  42.2923782  94.5136073  98.9625685  42.9782718
  94.0442216  98.3428476  42.8792769 100.3898783  99.1675092  49.2828359
 100.1508553  99.1270926  48.4449144 100.5532684 100.0146244  49.4094080
 100.3789087  99.2867177  49.1781841  96.9944813 103.5525041  55.2133404
  97.7179012 103.0997567  55.0344424  96.7294776 103.8329707  54.4305732
  97.0626087 103.5276009  55.0712120  85.8631682  98.1485214  51.9486284
  85.2384752  98.1603606  51.3412236  85.5277277  98.6245390  52.5977524
  85.7217174  98.2203731  51.9542852  86.0473430  96.4910333  38.0058969
  85.6986235  97.1430058  38.4690518  85.5669876  96.4767446  37.2782840
  85.9243674  96.5853386  37.9670060  82.5757357 106.2085675  53.3890048
  82.0457282 105.5178113  53.4385023  82.8482451 106.1995860  52.5602756
  82.5382080 106.1052806  53.2737464  93.6077448 106.7911377  42.1127731
  94.3311647 107.2569490  41.9692304  93.1678039 106.8584987  41.3625328
  93.6493140 106.8695214  41.9812512  92.7763603 103.6508919  53.3628420
  92.1620596 103.1066969  53.6577055  93.2930888 103.1373156  52.8834236
  92.7619265 103.4945328  53.3352648  92.0159900 104.7213189  51.0972718
  91.5887508 104.0962908  50.6638154  92.0084844 104.4388111  51.9231725
  91.9519041 104.5865970  51.1552546  85.1322427  99.7578362  54.1661152
  85.2915914  99.0021686  54.5712874  84.9515321 100.3069302  54.8201890
  85.1287786  99.7272176  54.3223858  93.0742730  91.9239598  54.7211942
  92.5783291  92.1203272  54.0303508  93.8311792  92.3232266  54.5500743
  93.1129555  92.0117332  54.5932078  90.3445610  95.5981944  51.3115252
  90.3688097  95.0642056  50.6228032  90.5957083  95.0899253  51.9740843
  90.3855528  95.4442848  51.3079897  77.8553199 102.8813439  50.7458396
  77.7496649 102.8360283  49.8810480  77.1053419 103.2267219  51.0272681
  77.7288802 102.9254347  50.6595726  86.6246932  94.3252762  50.6920996
  86.6645303  94.8261969  51.4055704  85.7996597  94.4163156  50.4226920
  86.5086458  94.4134578  50.7571535  88.8076545 103.8913502  58.7941291
  87.9572175 104.0285216  58.9298936  88.9704672 103.1577280  59.2388993
  88.7060408 103.8027603  58.8796890  88.0461295 100.8413272  52.9894895
  87.2153225 101.0087090  52.7830144  87.9912812 100.4649223  53.7743781
  87.9150710 100.8103003  53.0743424  85.8545078  94.3322165  58.6251306
  86.4797782  93.7884298  58.8980738  85.3995558  93.8517082  58.0559097
  85.8793339  94.1811646  58.5812900  86.4197339  99.1168863  43.5185013
  86.5600300  99.6141328  44.2213655  86.9179872  98.4155158  43.6599227
  86.5138420  99.0870842  43.6436592  86.4497561  99.9835974  40.8477590
  87.0842641 100.5796399  40.7827052  86.5323172  99.6839432  41.6623460
  86.5554112 100.0276883  40.9580677  99.4280127 102.5151452  53.7163954
 100.0197968 103.1548702  53.7482152  99.8639122 101.8174488  54.0056021
  99.5798558 102.5069802  53.7644787  88.0276544  95.9149950  40.8223032
  88.3492385  95.4353032  40.1682294  88.2903488  96.7249596  40.6313844
  88.1142570  95.9639848  40.6978524  91.2573517 106.9368824  54.3421848
  90.7498608 107.4904671  54.7862479  90.9600163 106.9977114  53.5240623
  91.1378402 107.0275135  54.2870305  93.4235699  95.3022144  53.1846511
  93.8490771  94.8494670  52.5730038  92.8092692  94.7482214  53.4611299
  93.3964345  95.1536120  53.1351536  82.9550549 102.1803815  44.1167136
  83.4642779 102.7768323  44.4978442  83.4284822 101.9129789  43.4343556
  83.0993925 102.2289631  44.0721659  93.8681297 110.8532082  42.2725792
  93.1510607 110.6792944  41.8073029  94.5188035 110.6184654  41.7401278
  93.8583148 110.7927874  42.1255010  91.8629922  91.7737244  46.5937088
  91.2198240  91.6234890  47.1622227  91.5229329  91.5279589  45.8286193
  91.7174999  91.7149366  46.5640103  96.4529269  99.7296670  46.0167097
  95.7820458 100.2726373  45.8880162  97.1469019 100.1991526  45.7748792
  96.4558136  99.8794942  45.9622624  90.5016002 111.8693382  51.2478855
  90.2781657 111.1112212  51.6162881  90.0125846 111.8991404  50.5259295
  90.3959451 111.7615607  51.1955596  96.6157396  96.1852554  48.9257470
  96.9685006  95.7582277  49.6003269  95.7572198  96.1003398  49.0558546
  96.5406841  96.1097295  49.0452480  85.3141081  98.8160074  46.9840316
  84.5953070  99.2324206  47.2513180  85.6853443  99.3814312  46.4331955
  85.2633013  98.9609355  46.9423123  94.6140662  99.4487923  52.8742312
  94.5938589  99.2671218  53.7277091  94.6619863 100.3199941  52.8501896
  94.6175303  99.5504461  52.9965607  92.5586992 106.0375115  58.7990789
  92.5182847 105.3924792  58.2135945  93.3710310 105.9811732  59.1116201
  92.6730145 105.9334081  58.7587738  89.1494459 112.0893840  48.7015940
  88.7354858 111.4267971  48.3119781  89.8341834 112.2371699  48.1811634
  89.1892831 112.0134499  48.5672437  92.5159753 111.2483926  49.4539556
  92.1176037 111.3586196  48.6860376  91.9010973 111.4565992  50.0366116
  92.3658643 111.2957494  49.4270856  91.0887655  97.8558074  42.3213696
  90.4952495  98.1775070  41.7698263  91.1262933  97.0099169  42.1134802
  91.0062045  97.7782402  42.2096467  98.0481456  91.3070966  49.8541782
  97.5412321  90.6000105  49.7862960  98.8448890  90.9764155  49.9842859
  98.0908695  91.1544117  49.8640777  93.9645472  97.8137578  45.7515446
  93.7359165  97.8370280  44.9093804  94.2243548  96.9895045  45.8710457
  93.9691660  97.6953658  45.6440644  88.2464700  99.6672051  55.3540546
  87.7343604  99.0593234  55.7125578  88.0744197 100.3828644  55.8214522
  88.1454337  99.6835350  55.4756770  83.0930415  98.1109626  58.0042908
  82.9233005  98.7711001  57.4591115  82.6496365  98.3216188  58.7255397
  83.0029749  98.2395609  58.0304538  87.0190235  96.3514124  47.0469642
  87.4947601  96.7131204  46.4119823  86.5178834  97.0070592  47.3269785
  87.0155594  96.5008313  46.9946383 100.2501596 105.8235892  42.8382647
 100.6335202 106.5727249  43.0680744  99.4545709 106.0701712  42.5794636
 100.1895378 105.9705586  42.8340220  92.1233771  97.5896296  57.7942802
  92.6805201  97.3610105  57.1621267  91.7994836  98.3501961  57.5178014
  92.1580181  97.6680132  57.6599299  79.9932480 101.0156492  53.2631398
  79.4459199 100.3457138  53.3812266  80.7824858 100.6486340  53.3274865
  80.0284663 100.8621478  53.2900099  89.8416888 100.6763949  58.7594809
  90.5928215 100.9915626  59.0734363  90.0339465 100.4743120  57.9328731
  89.9808302 100.6931331  58.6838205  89.0616888  98.4955324  40.4143026
  89.4415853  98.5134953  39.6294141  88.3209484  98.9409313  40.2933873
  89.0085725  98.5637099  40.2806594  96.6902178  96.8037515  46.0018604
  96.6896405  96.6486172  46.8602881  96.4858358  97.6500502  45.9459990
  96.6601956  96.9058136  46.1206544  78.7519449 100.2277300  50.4177421
  78.5741210  99.7753909  51.1432337  78.4638471 101.0303461  50.6015899
  78.6832402 100.2799858  50.5520924  94.4143030 101.4835017  49.6554811
  94.9096696 100.7658012  49.6158832  93.6042806 101.1805815  49.5409298
  94.3686924 101.3332663  49.6328537  89.8601642 105.3332830  41.8051816
  89.0512964 105.0099504  41.7585125  90.3676551 104.6266053  41.7380064
  89.8151309 105.1814147  41.7882110  80.4891919 102.7605024  47.5299180
  79.6237439 102.7490714  47.4181951  80.5890735 102.5735246  48.3770319
  80.3766086 102.7311085  47.6388125  96.4794849 104.2338705  52.3431940
  96.9049921 103.7113127  51.7902365  96.1151769 104.8319542  51.8220563
  96.4881452 104.2448932  52.1840950  86.1148929 112.5302922  51.1029286
  86.4295488 113.3439311  51.1107067  86.5242342 112.1453141  51.7711445
  86.2217027 112.5931625  51.2033377  93.0673449 107.9472969  48.6733098
  93.5384627 108.6613232  48.8423083  93.4033627 107.3471719  49.2092967
  93.1868564 107.9644433  48.7765473  95.1550433 109.5574282  60.8525170
  95.2647399 108.7682843  61.2081917  95.4841330 109.4680218  60.0499508
  95.2202839 109.4280135  60.7867560  89.9842944  92.7200440  55.6291192
  90.1170849  91.9231433  55.9572168  90.3688096  93.2466843  56.2089468
  90.0599272  92.6800356  55.7634695  93.7047395 107.7390903  55.4360790
  93.1568341 107.1148787  55.1680855  94.1660424 107.9285175  54.7204870
  93.6914604 107.6749953  55.2911221  93.0575299  89.6430766  52.2272286
  92.2521262  89.5328495  52.5440124  92.9282034  89.7443221  51.3702151
  92.9195432  89.6414436  52.1480326  96.5141259  95.8076258  52.8211982
  95.9304248  96.3085464  52.4089550  96.8345553  95.3005814  52.1876306
  96.4754435  95.8068093  52.6670490  89.0536058  94.7216852  43.0970657
  89.8751753  94.8915165  42.8552352  88.5905709  94.8764113  42.3736955
  89.1067221  94.7698585  42.9542302  87.6431390  92.7159615  53.8769086
  88.1875803  92.3750741  54.4673428  87.6968326  93.5745076  54.0190371
  87.7320510  92.7914874  53.9850959  83.4561949 106.4776031  50.7507894
  84.0606806 106.4371865  50.1221715  83.2489262 107.3247183  50.7811950
  83.5150846 106.5964033  50.6624011  93.2705721 108.7441976  51.9670131
  94.0904095 108.6004942  52.2286427  92.9899799 109.3688175  52.5086569
  93.3502465 108.8152328  52.0858071  78.6913231 105.4610648  50.6206817
  78.5937509 104.6506920  50.9296874  79.4742101 105.4402442  50.2353085
  78.7929368 105.3377738  50.6093680 109.7419372 116.4006827  44.9313008
 109.7113376 117.2551464  45.1031277 110.3400720 116.1002120  45.4899151
 109.8256529 116.4823324  45.0387810 102.9419056 115.4882478  49.6865938
 102.0856952 115.6490977  49.7375055 102.9886710 114.6174542  49.7070999
 102.8218168 115.3833280  49.6972004  97.3260196 125.0245196  45.4503170
  96.5743096 124.6460735  45.2219215  97.7746208 125.0563630  44.7021980
  97.2809863 124.9730804  45.3060672 105.7870877 117.5474522  52.3297590
 106.3326837 118.2259609  52.3891559 105.7287754 117.4061983  51.4699171
 105.8586792 117.6266524  52.2109650  98.9044952 125.0363589  47.7165942
  99.0055315 124.2263942  48.0263070  98.3086698 124.9420535  47.0865621
  98.8317491 124.9028617  47.6692181 107.5635946 118.9759129  43.2031318
 107.4475472 119.7266816  43.6323456 108.3591833 118.7183083  43.4527405
 107.6640536 119.0493976  43.3035409  92.1009997 121.0583875  47.3418276
  91.8660181 120.2251527  47.2350545  92.2395637 121.3388541  46.5279477
  92.0865659 120.9767378  47.2060631  94.4000084 113.2269606  50.2402584
  93.7805116 112.6362253  50.0712598  94.2983948 113.8181041  49.6066907
  94.2937760 113.2273688  50.1207573  99.4466272 122.9653153  44.4900660
  99.7682113 123.5058360  43.8861968 100.0938368 122.3949924  44.6222950
  99.5892327 122.9612328  44.4207695 101.4967980 114.9669147  44.5735047
 102.1948144 115.1457275  45.0656510 101.8120312 114.4439487  43.9505436
 101.6463317 114.9162920  44.5537057  94.1269217 116.7721887  52.4846153
  94.0027914 117.3584333  53.1195971  94.7787502 116.2782083  52.7858428
  94.2042866 116.7860692  52.6232082 101.6855915 121.3539593  44.5614838
 102.1249551 120.7456693  45.0069611 101.5360578 120.9746966  43.7900303
 101.7277381 121.2078064  44.5134006  99.1527558 119.9483604  51.7633664
  99.7976561 119.4556047  51.4444612  99.3929335 120.0908391  52.5899742
  99.2838143 119.8961047  51.8383197 101.6913649 122.7938510  51.4140556
 101.9736892 121.9989916  51.1927312 102.4199810 123.2719098  51.4345617
 101.8403213 122.7473107  51.3843571  99.6694843 110.3361544  48.6556321
  99.3398173 110.7872688  47.9860020  98.9939845 110.2577707  49.2029328
  99.5205280 110.3912679  48.6379545 105.2865252 119.7066774  41.5145607
 105.2016547 120.5627740  41.6595176 105.7749635 119.4311098  42.1827767
 105.3454149 119.7924095  41.6347689 106.8771251 106.3247067  46.9005932
 106.5624692 107.0150546  47.3326354 106.3598193 106.2691849  46.1991433
 106.7535721 106.4181956  46.8602881 106.2183685 116.3251568  43.0143343
 105.6895156 116.5411201  43.6740649 106.7408705 117.0187706  42.9344312
 106.2172138 116.4594705  43.0998942  98.1083293 120.2214785  41.8150811
  97.5240508 120.7264816  42.2216674  97.7053388 119.9957172  41.0747402
  97.9622596 120.2623033  41.7655836  93.6627321 125.9369546  48.6174482
  93.1794900 126.6620035  48.5934066  94.4750640 126.2345676  48.7284640
  93.7118069 126.0871900  48.6301761  99.7341475 124.7301727  51.2224297
  99.2168417 124.3709142  50.6185605 100.4315867 124.2063901  51.2330363
  99.7607056 124.5999415  51.1354555 100.9575527 124.4627701  56.1658132
 100.3946362 124.0500310  56.6897793 101.7196551 124.3880606  56.5851275
 100.9869976 124.3905101  56.3051132 102.5660507 116.4680437  40.2919731
 102.8056511 116.6758421  39.4795074 102.8876348 115.6637945  40.4008676
 102.6497665 116.3794538  40.1880284  97.8750797 108.3973833  44.1379269
  98.6296765 108.7652150  43.8996319  97.6978332 108.7713387  44.9058449
  97.9605276 108.5072020  44.2164158  96.5171519 126.4525722  48.7694762
  97.2192098 125.9377711  48.8267518  96.4369002 126.7799873  49.5741637
  96.6095279 126.4239948  48.8967554 111.1685696 114.5468273  52.1826808
 110.3314117 114.6170460  52.4174403 111.1373927 114.5492768  51.3101111
 111.0403978 114.5578500  52.0886356  97.5650425 116.6901309  57.8975177
  97.7370929 116.5807203  58.7460458  98.1019783 117.3355714  57.6606369
  97.6695429 116.7693310  57.9880274  96.2307862 110.8044152  40.8357382
  96.0483435 111.0216032  40.0098375  97.0933475 110.9183164  40.8915996
  96.3312451 110.8534049  40.7211869  95.8422294 122.6432074  48.2780370
  96.6811193 122.8755007  48.3254132  95.8734063 121.7736385  48.2087405
  95.9704012 122.5489020  48.2745015  96.4674997 123.0632949  52.5793675
  97.0073222 122.9204080  53.2497048  95.7844943 123.4629700  52.9477702
  96.4467151 123.1012620  52.7328097 101.9107581 107.8070562  43.8706406
 102.6393742 107.6286517  43.4244562 102.0002474 108.6488642  44.0813584
 102.0314243 107.9054441  43.8359924 105.8915882 118.7423950  47.7738700
 106.6473397 119.1755464  47.8127609 105.9978206 118.0928719  48.3473336
 106.0186052 118.7101433  47.8636725  91.8712142 119.2833240  52.7328097
  91.6050557 118.4672356  52.8919087  91.8850706 119.3286395  51.8623613
  91.8336864 119.1690145  52.6281579 108.8493536 109.6111055  50.7670531
 109.4919444 109.6809159  51.3532446 109.1016557 108.9440278  50.2650073
 108.9815668 109.5237403  50.7797810  95.7769889 114.0818324  39.3479855
  95.0628066 113.7956504  39.7602288  96.2613858 114.4214950  39.9886243
  95.7429252 114.0899974  39.5035490  96.6210748 112.8211618  55.3795105
  95.9282545 112.3508598  55.6255836  97.2371076 112.5949923  55.9536812
  96.6095278 112.7178750  55.5004257 102.9517207 122.5848278  39.7241663
 103.3668355 122.2533302  39.0326159 102.1209137 122.3517180  39.5961800
 102.8905216 122.5019534  39.6032511  92.2805556 120.0692019  50.0139841
  92.0981129 120.0438905  49.1612133  93.0155225 120.5390957  50.0528750
  92.3619620 120.1353381  49.8937760  95.3451307 116.7877022  56.5221950
  96.0691280 116.7730053  57.0086845  95.4467444 117.4972377  56.0243918
  95.4669516 116.8901725  56.5200737 102.7196257 120.2676107  61.3870897
 101.9269238 120.5819618  61.5723517 102.8345184 120.4827575  60.5491682
 102.6191667 120.3459943  61.2909232 105.3927576 116.9910098  45.6765913
 105.4874430 117.7299392  46.1305538 104.7686419 116.5627573  46.1100477
 105.3136606 117.0371418  45.8074060 103.6480050 120.1696310  56.3256194
 104.2218911 119.5323555  56.4804758 103.5694853 120.1700393  55.4565851
 103.7213284 120.0761422  56.2202605  92.2476466 116.9485520  50.1638908
  92.8249969 116.8121971  50.8031153  91.5490528 116.4921304  50.4184492
  92.2297487 116.8607786  50.2961198 105.6450597 118.8358838  38.9102865
 105.5630760 118.9061025  39.7757852 106.2830318 119.3988581  38.7186605
 105.7270434 118.9297809  39.0092814  99.0043768 118.6019575  48.3777391
  98.7463012 117.7691310  48.3508691  99.0592251 118.8277188  47.5369891
  98.9743546 118.5117347  48.2497528 104.0844818 110.7048026  48.4781484
 103.3801145 110.2157212  48.6365403 104.1329793 110.7170501  47.6069928
 103.9874870 110.6337674  48.3720824  97.9778480 116.1557338  48.8642286
  97.4028072 116.3149506  49.5006247  97.6014157 115.5192747  48.4010736
  97.8381293 116.0855151  48.8896844 101.6451769 114.6280687  53.7234664
 101.2566202 114.2034905  53.0686855 100.9806467 114.8762837  54.2311691
 101.4898697 114.6019408  53.7022532 111.2875038 114.3855692  46.4982494
 111.0311603 113.5735633  46.3080377 112.1304352 114.3933259  46.2712682
 111.3741064 114.2667689  46.4367311  87.7235299 115.7997413  46.8786726
  87.8095551 115.4229281  47.6600256  88.3511097 115.4257858  46.4006685
  87.8291850 115.6882895  46.9232204 105.4678131 108.3255316  51.2358648
 105.8488642 107.6433487  51.6226523 104.6641415 108.0364918  51.0534313
 105.4054592 108.1822365  51.2662704 102.7490707 118.8579292  41.9211471
 103.5631346 119.1494185  41.8094243 102.6849849 118.2039154  41.3469764
 102.8593446 118.8044487  41.8200309  98.6198616 122.3300809  47.0483783
  99.2572562 122.0912557  47.5935577  99.0453687 122.5337968  46.3136944
  98.7774782 122.3251819  47.0200941  93.3111258 124.5689146  50.9318087
  93.3515403 124.8403997  50.1037867  93.8705782 125.0931054  51.3475875
  93.3994604 124.6864901  50.8709975  99.2601431 117.5503099  41.3858673
  99.6446583 117.3310806  42.1375218  99.0113051 118.3766044  41.5159749
  99.2803503 117.6401245  41.5159749  99.4269971 110.8309514  61.1021257
  99.1123412 111.6009077  60.8390820  99.1059904 110.2679770  60.5173484
  99.3328890 110.8619783  60.9762607 101.0020087 122.8073232  48.7277570
 101.0759096 122.6448404  49.5819419 101.8189594 122.9963421  48.4838051
 101.1336446 122.8109974  48.8175595  94.7625844 123.1531095  45.7572013
  93.9363962 123.3992832  45.6306292  94.8237835 123.0743176  46.6234071
  94.6500011 123.1776044  45.8660957  96.9801868 109.2200036  46.7167453
  96.1124293 109.2922635  46.7825062  97.2677072 110.0222115  46.9055428
  96.8941616 109.3494183  46.7542220 106.1034757 109.3677895  55.0478775
 106.8488349 109.1787706  54.6342200 105.6872061 109.8936133  54.4892631
 106.1519731 109.4180041  54.9043348 100.1319418 120.5725721  54.5444173
  99.6331112 121.2841489  54.6229062 100.9419643 120.8926387  54.5062336
 100.1775525 120.7252569  54.5500742  96.3947536 119.8348674  48.7906894
  96.1060785 119.2086145  49.3252622  97.2630884 119.7768961  48.8571575
  96.4807788 119.7336218  48.8797849 107.1825434 114.9783457  49.1088876
 106.8390200 114.2573792  49.4596126 107.2818476 114.7697308  48.2667234
 107.1467477 114.8407661  49.0360556  96.5979809 121.4743925  44.7149259
  97.3525777 121.8556964  44.9284722  96.0050422 121.9255069  45.1695956
  96.6216523 121.5972752  44.8132138  99.0586476 113.4306765  59.8406472
  98.2486252 113.7364545  59.7296314  99.5361163 114.1512348  59.9559056
  99.0089955 113.5821366  59.8413543  97.9178036 122.6452486  50.0889375
  97.3958789 122.7852778  50.7741239  98.3052056 121.8863151  50.2791492
  97.8981737 122.5538010  50.2190451  94.9069220 112.6958295  44.1584329
  94.6194016 112.3259565  43.4216277  95.5939688 113.1653150  43.8968034
  94.9658117 112.7105264  44.0099405  99.3444362 119.6756505  45.4870866
  99.1487144 120.2831240  44.8931169  99.5678707 118.9824449  45.0062540
  99.3479003 119.6634031  45.3286947  97.7422892 116.5611243  45.6051734
  98.4645543 116.7252401  45.1455540  97.2630884 117.2820908  45.4991074
  97.7786622 116.6909473  45.5217348 105.7016399 112.8975042  50.9848419
 104.8627500 112.9236321  50.7486682 105.7720766 113.5445777  51.5653766
 105.5884793 112.9971168  51.0357536  95.3930508 118.9669316  54.7105874
  95.9051605 119.2453569  54.0614634  95.1066851 119.7058610  55.0768687
  95.4265371 119.1171669  54.6695752 104.1485677 109.7960419  45.7176035
 104.8512030 109.5968167  45.2395993 103.8829866 109.0236361  46.0244879
 104.2132310 109.6523385  45.6921477 109.5773923 118.1043029  48.2709661
 109.4907898 118.2598455  49.1244440 109.1224403 118.7481104  47.8969066
 109.4977180 118.2218784  48.3416768  92.4797415 113.4739508  45.0069611
  92.5813551 114.2765669  45.3350586  93.2753301 113.2726843  44.7092691
  92.6125320 113.5625406  45.0104966  98.9114234 111.0595704  54.7706916
  98.7197431 111.0750839  55.6206339  99.7612830 111.2559379  54.7473570
  99.0089956 111.0910055  54.8930210  93.2961147 113.5886686  52.7490732
  93.1546638 112.7370626  52.8735240  93.5801710 113.6315346  51.9252938
  93.3168993 113.4686436  52.6458356 103.4499739 115.4253776  46.8935220
 103.2034453 115.3449527  47.7272009 103.7784862 114.6407244  46.6997748
 103.4620983 115.2980041  46.9882743 105.6825873 118.4333511  56.9344383
 105.6773911 117.5613327  56.9386810 106.3886867 118.6321680  56.4613839
 105.7870877 118.3337385  56.8651419  99.4096766 118.1610494  56.3058203
  99.5540142 118.7411703  55.6701313  99.7572415 118.5386791  57.0108058
  99.4824228 118.3031199  56.3157198 101.5816684 117.3600663  54.0883335
 100.8339998 117.5531677  53.6831613 101.7358209 116.5345882  53.8507456
 101.4939111 117.2665774  53.9928741 101.8218461 111.2551214  54.9778739
 102.2791075 111.9875188  55.1051531 101.8974789 110.8317679  55.7365995
 101.9009431 111.3008452  55.1079815  94.0651452 111.5017033  56.0668182
  93.5293641 110.8897391  56.3828950  94.1269217 112.0765169  56.7201849
  93.9947085 111.4963961  56.2103609 106.2945787 104.4341089  48.8472582
 106.4129355 104.8917552  48.1139884 106.1207962 103.6286350  48.5608799
 106.2864958 104.3834861  48.6973515  99.7000839 113.2453318  51.8220563
  98.9096913 113.0644778  52.1437899 100.0961461 112.4680270  51.8050857
  99.6417715 113.1040778  51.8673111 105.0844525 120.8795748  49.5480009
 104.4089527 120.6480980  50.0493396 105.0936901 120.2716931  48.9222114
 104.9863029 120.7554673  49.5296161 102.2138669 115.7213577  56.3044062
 102.1497810 116.5823533  56.1764198 102.3535857 115.4045570  55.5039613
 102.2254139 115.8013743  56.1672275 100.8957763 118.4145716  50.4460265
 100.4720012 118.6150215  49.7099283 100.7202618 117.5674564  50.5584564
 100.8068643 118.3194497  50.3533955  96.1840208 118.9097767  45.8788237
  96.3404827 118.8444570  46.7344229  96.5240801 119.6846320  45.6666917
  96.2573443 119.0146966  45.9742831 102.7219352 118.2855651  44.7481600
 103.2634898 117.7826032  45.2120221 103.0365911 118.2320846  43.9371086
 102.8483749 118.2035072  44.6965412 100.8905802 123.6773003  42.0321628
 100.9598622 122.8187541  42.1714629 101.6694257 123.8944883  41.7040653
 101.0158652 123.5825867  42.0038786 103.8708622 113.1791956  54.8003901
 104.0850591 112.5402870  54.2467255 103.2542521 113.6237779  54.3711763
 103.8113951 113.1502099  54.6554332  92.7574469 116.0932718  46.1949004
  93.1373434 116.5117263  45.5309272  92.1829834 116.6746174  46.5017848
  92.7285794 116.2410577  46.1425745 106.0347710 114.7881021  55.7387208
 105.2224391 114.4806911  55.8200381 106.4937644 114.3080021  56.3029920
 105.9828095 114.6717513  55.8341802 103.2623350 106.2891891  49.7891244
 102.3916908 106.2630612  49.7424553 103.5163692 106.1169083  48.9717089
 103.1716910 106.2602035  49.6611380 100.2341330 118.3459858  38.7264387
 100.5233855 119.1224741  39.0007961 100.3213129 117.8348590  39.4278886
 100.2895586 118.3851776  38.8706884 103.1301217 116.1941092  60.5215910
 103.6000848 116.8183209  60.9083784 103.1763097 115.5258068  61.0809125
 103.2069093 116.1875772  60.6615982 100.2872491 108.2998120  51.2464714
  99.7710979 107.6078311  51.3716293  99.7266420 108.9668897  51.1927313
 100.1279004 108.2961377  51.2570780 102.3564724 108.8391080  53.0757567
 101.9696477 108.8640111  53.8571096 101.8697662 108.2732758  52.6232083
 102.2277233 108.7586831  53.1245470 108.3314704 115.4053735  51.6997269
 107.9042312 115.3180083  50.9445368 107.6940757 115.5131510  52.2852113
 108.1744311 115.4086394  51.6742710 102.0221866 105.7258065  55.3667826
 102.6514984 106.2618365  55.0888897 102.1907729 105.6335424  56.2181392
 102.1399661 105.7919427  55.4516355 101.8235781 110.5129260  57.6394238
 102.6509210 110.2414409  57.6952853 101.8443627 111.3090102  57.9958056
 101.9488631 110.5909014  57.7009421  96.4005271 117.6593123  50.8264499
  95.5593277 117.5596997  51.0343393  96.6095279 118.4288603  51.1778819
  96.3069963 117.7585166  50.9091814  93.8780838 115.2812660  48.6549249
  93.4837535 115.3555671  47.8799359  93.3220955 115.6670606  49.2057611
  93.7383650 115.3494434  48.6216909 105.5145785 108.2593954  48.3353128
 105.7195378 108.1916261  49.1810125 105.1872209 109.0652775  48.2674306
 105.4961032 108.3679894  48.4512783 100.2121936 115.5874522  50.0762096
  99.9085073 115.0330510  50.6772504  99.5101356 115.7666732  49.5890130
 100.0638145 115.5319304  50.0931802  99.2688033 112.8975042  44.6406798
  99.5447767 112.1793954  44.2284366  99.8686702 113.4959962  44.4327904
  99.3981297 112.8795412  44.5487559  98.2740287 122.8024243  54.7834194
  98.1660642 122.8126305  55.6496252  98.4836068 123.6279023  54.5939148
  98.2890398 122.9265317  54.8838286 108.7679472 108.8125718  47.8155894
 108.1553786 109.2996120  48.2009626 108.8643647 108.1369209  48.3593545
 108.6917370 108.7844027  47.9534752 102.7698553 110.5688559  42.9153393
 103.2242300 110.7399119  43.6401238 103.2438599 109.9556670  42.5151169
 102.9066873 110.5039444  42.9627155  96.2914079 120.0536885  52.2456132
  95.7002012 120.6946383  52.2159147  97.0535102 120.4774502  52.2187431
  96.3162339 120.2112723  52.2371279  96.6874701 111.2138883  52.9124149
  97.1476183 111.2877812  53.6499273  96.7330808 112.0120137  52.5623971
  96.7625257 111.3433030  52.9696906  98.3358051 111.8805578  57.4796176
  97.9443616 111.2338925  57.9151954  98.5043914 112.4717013  58.0990432
  98.3028962 111.8719845  57.6358882 100.1111573 117.2731093  44.0198400
 100.8553618 117.6605370  44.2581350 100.2572269 116.4288519  44.1838888
 100.2422158 117.2061566  44.0792370 102.0291149 109.0681352  49.0530262
 101.1827194 109.2404160  48.9271612 102.0262281 108.2630696  49.3896090
 101.9038299 108.9742381  49.0841389 103.0989449 112.8456567  49.9192320
 102.6249403 112.3198329  50.4297631 103.4707585 112.2986040  49.3507181
 103.0839338 112.6872563  49.9107467  93.4762479 114.8428073  55.2875865
  94.3388092 114.7423783  55.2013195  93.1454262 114.2622783  54.7261438
  93.5547676 114.7419700  55.1921271 109.3626180 117.9058942  51.3299100
 109.1224403 117.0665357  51.3341527 109.8418187 117.9859109  52.0539874
 109.3978363 117.7940342  51.4373903 105.0272949 113.7393121  42.9818074
 104.4995967 113.8221865  42.2923782 105.4868657 114.4810993  42.9782718
 105.0174799 113.8613784  42.8792769 111.3631367 114.6860400  49.2828359
 111.1241137 114.6456234  48.4449144 111.5265268 115.5331552  49.4094080
 111.3521670 114.8052485  49.1781841 107.9677397 119.0710349  55.2133404
 108.6911596 118.6182875  55.0344424 107.7027359 119.3515015  54.4305732
 108.0358670 119.0461317  55.0712120  96.8364265 113.6670522  51.9486284
  96.2117335 113.6788914  51.3412236  96.5009860 114.1430697  52.5977524
  96.6949757 113.7389039  51.9542852  97.0206014 112.0095641  38.0058969
  96.6718818 112.6615366  38.4690518  96.5402460 111.9952754  37.2782840
  96.8976258 112.1038694  37.9670060  93.5489941 121.7270982  53.3890048
  93.0189865 121.0363421  53.4385023  93.8215034 121.7181168  52.5602756
  93.5114663 121.6238114  53.2737464 103.7496186 119.1694227  53.3628420
 103.1353179 118.6252277  53.6577055 104.2663471 118.6558464  52.8834236
 103.7351849 119.0130636  53.3352648 102.9892484 120.2398497  51.0972718
 102.5620092 119.6148216  50.6638154 102.9817428 119.9573419  51.9231725
 102.9251625 120.1051278  51.1552546  96.1055011 115.2763670  54.1661152
  96.2648497 114.5206994  54.5712874  95.9247904 115.8254610  54.8201890
  96.1020370 115.2457484  54.3223858 104.0475314 107.4424906  54.7211942
 103.5515875 107.6388580  54.0303508 104.8044376 107.8417574  54.5500743
 104.0862138 107.5302640  54.5932078 101.3178193 111.1167252  51.3115252
 101.3420680 110.5827364  50.6228032 101.5689667 110.6084560  51.9740843
 101.3588112 110.9628156  51.3079897  88.8285783 118.3998747  50.7458396
  88.7229232 118.3545591  49.8810480  88.0786003 118.7452527  51.0272681
  88.7021386 118.4439655  50.6595726  97.5979515 109.8438070  50.6920996
  97.6377887 110.3447276  51.4055704  96.7729180 109.9348464  50.4226920
  97.4819041 109.9319886  50.7571535  99.7809128 119.4098810  58.7941291
  98.9304759 119.5470524  58.9298936  99.9437256 118.6762588  59.2388993
  99.6792992 119.3212911  58.8796890  99.0193879 116.3598580  52.9894895
  98.1885808 116.5272398  52.7830144  98.9645396 115.9834531  53.7743781
  98.8883294 116.3288311  53.0743424  96.8277662 109.8507473  58.6251306
  97.4530365 109.3069605  58.8980738  96.3728142 109.3702390  58.0559097
  96.8525923 109.6996954  58.5812900  97.3929923 114.6354171  43.5185013
  97.5332884 115.1326635  44.2213655  97.8912455 113.9340466  43.6599227
  97.4871004 114.6056150  43.6436592  97.4230145 115.5021282  40.8477590
  98.0575224 116.0981707  40.7827052  97.5055756 115.2024740  41.6623460
  97.5286696 115.5462190  40.9580677  99.0009128 111.4335258  40.8223032
  99.3224969 110.9538340  40.1682294  99.2636072 112.2434904  40.6313844
  99.0875153 111.4825156  40.6978524 102.2306101 122.4554132  54.3421848
 101.7231192 123.0089979  54.7862479 101.9332747 122.5162422  53.5240623
 102.1110986 122.5460443  54.2870305 104.3968283 110.8207452  53.1846511
 104.8223354 110.3679978  52.5730038 103.7825276 110.2667522  53.4611299
 104.3696928 110.6721428  53.1351536  93.9283133 117.6989123  44.1167136
  94.4375362 118.2953631  44.4978442  94.4017405 117.4315097  43.4343556
  94.0726509 117.7474938  44.0721659 102.8362506 107.2922551  46.5937088
 102.1930824 107.1420198  47.1622227 102.4961913 107.0464897  45.8286193
 102.6907583 107.2334674  46.5640103 107.4261852 115.2481978  46.0167097
 106.7553042 115.7911681  45.8880162 108.1201602 115.7176834  45.7748792
 107.4290720 115.3980250  45.9622624 107.5889980 111.7037862  48.9257470
 107.9417590 111.2767585  49.6003269 106.7304781 111.6188705  49.0558546
 107.5139424 111.6282603  49.0452480  96.2873665 114.3345382  46.9840316
  95.5685654 114.7509514  47.2513180  96.6586027 114.8999620  46.4331955
  96.2365596 114.4794663  46.9423123 105.5873245 114.9673230  52.8742312
 105.5671173 114.7856526  53.7277091 105.6352446 115.8385249  52.8501896
 105.5907886 115.0689769  52.9965607 103.5319575 121.5560422  58.7990789
 103.4915430 120.9110099  58.2135945 104.3442894 121.4997040  59.1116201
 103.6462729 121.4519389  58.7587738 102.0620239 113.3743381  42.3213696
 101.4685078 113.6960378  41.7698263 102.0995517 112.5284477  42.1134802
 101.9794628 113.2967710  42.2096467 109.0214040 106.8256274  49.8541782
 108.5144904 106.1185413  49.7862960 109.8181473 106.4949463  49.9842859
 109.0641279 106.6729425  49.8640777 104.9378056 113.3322886  45.7515446
 104.7091749 113.3555587  44.9093804 105.1976132 112.5080353  45.8710457
 104.9424244 113.2138966  45.6440644  99.2197284 115.1857359  55.3540546
  98.7076187 114.5778542  55.7125578  99.0476780 115.9013952  55.8214522
  99.1186921 115.2020658  55.4756770  94.0662999 113.6294934  58.0042908
  93.8965589 114.2896309  57.4591115  93.6228949 113.8401496  58.7255397
  93.9762332 113.7580916  58.0304538  97.9922818 111.8699432  47.0469642
  98.4680184 112.2316512  46.4119823  97.4911418 112.5255900  47.3269785
  97.9888177 112.0193621  46.9946383 103.0966354 113.1081604  57.7942802
 103.6537785 112.8795413  57.1621267 102.7727419 113.8687269  57.5178014
 103.1312765 113.1865440  57.6599299  90.9665063 116.5341800  53.2631398
  90.4191783 115.8642445  53.3812266  91.7557441 116.1671648  53.3274865
  91.0017247 116.3806786  53.2900099 100.8149472 116.1949257  58.7594809
 101.5660799 116.5100934  59.0734363 101.0072048 115.9928428  57.9328731
 100.9540886 116.2116639  58.6838205 100.0349471 114.0140632  40.4143026
 100.4148436 114.0320261  39.6294141  99.2942067 114.4594621  40.2933873
  99.9818309 114.0822407  40.2806594 107.6634762 112.3222823  46.0018604
 107.6628988 112.1671480  46.8602881 107.4590942 113.1685810  45.9459990
 107.6334540 112.4243444  46.1206544  89.7252033 115.7462608  50.4177421
  89.5473794 115.2939217  51.1432337  89.4371055 116.5488769  50.6015899
  89.6564986 115.7985166  50.5520924 105.3875614 117.0020325  49.6554811
 105.8829279 116.2843320  49.6158832 104.5775390 116.6991123  49.5409298
 105.3419507 116.8517971  49.6328537 100.8334225 120.8518138  41.8051816
 100.0245548 120.5284812  41.7585125 101.3409134 120.1451360  41.7380064
 100.7883892 120.6999455  41.7882110  91.4624503 118.2790331  47.5299180
  90.5970022 118.2676022  47.4181951  91.5623318 118.0920554  48.3770319
  91.3498670 118.2496393  47.6388125 107.4527433 119.7524013  52.3431940
 107.8782504 119.2298434  51.7902365 107.0884353 120.3504850  51.8220563
 107.4614035 119.7634240  52.1840950 100.9575527 108.2385747  55.6291192
 101.0903433 107.4416741  55.9572168 101.3420680 108.7652150  56.2089468
 101.0331856 108.1985664  55.7634695 104.0307882 105.1616074  52.2272286
 103.2253846 105.0513803  52.5440124 103.9014618 105.2628529  51.3702151
 103.8928015 105.1599744  52.1480326 107.4873843 111.3261565  52.8211982
 106.9036832 111.8270772  52.4089550 107.8078137 110.8191122  52.1876306
 107.4487018 111.3253400  52.6670490 100.0268642 110.2402160  43.0970657
 100.8484336 110.4100473  42.8552352  99.5638293 110.3949421  42.3736955
 100.0799804 110.2883893  42.9542302  98.6163974 108.2344923  53.8769086
  99.1608387 107.8936049  54.4673428  98.6700910 109.0930384  54.0190371
  98.7053093 108.3100182  53.9850959  94.4294533 121.9961339  50.7507894
  95.0339390 121.9557173  50.1221715  94.2221845 122.8432491  50.7811950
  94.4883430 122.1149341  50.6624011  89.6645815 120.9795956  50.6206817
  89.5670093 120.1692228  50.9296874  90.4474685 120.9587749  50.2353085
  89.7661951 120.8563046  50.6093680  43.5974694   0.2273111  31.8653055
  43.5668698   1.0817748  32.0371324  44.1956043  -0.0731596  32.4239198
  43.6811852   0.3089608  31.9727857  36.7974379  -0.6851238  36.6205985
  35.9412274  -0.5242740  36.6715102  36.8442033  -1.5559174  36.6411046
  36.6773490  -0.7900436  36.6312051  31.1815519   8.8511480  32.3843217
  30.4298418   8.4727018  32.1559262  31.6301530   8.8829914  31.6362027
  31.1365185   8.7997087  32.2400719  40.1068095   5.5835288  46.2266441
  40.8134863   5.0887318  46.3553376  40.2956031   6.0244369  45.4969099
  40.2396001   5.5753638  46.1375487  36.1744770  11.2251118  33.7539875
  36.5584149  11.7938017  33.2144650  36.1103911  10.5000628  33.2745691
  36.2218197  11.2026582  33.6033738  39.6426200   1.3740806  39.2637637
  40.1882160   2.0525893  39.3231606  39.5843076   1.2328267  38.4039218
  39.7142114   1.4532808  39.1449697  32.7600275   8.8629872  34.6505989
  32.8610638   8.0530226  34.9603117  32.1642020   8.7686819  34.0205668
  32.6872813   8.7294900  34.6032228  41.4191269   2.8025413  30.1371364
  41.3030794   3.5533099  30.5663503  42.2147155   2.5449366  30.3867451
  41.5195858   2.8760260  30.2375456  32.6001014  13.7807461  36.0520845
  33.2438470  14.2220625  36.4417003  32.9257270  12.9760887  35.9651104
  32.7432843  13.7272656  36.0966322  33.3021594   6.7919436  31.4240707
  33.6237435   7.3324643  30.8202015  33.9493691   6.2216208  31.5562997
  33.4447649   6.7878611  31.3547742  27.9824540   0.5988171  39.4186199
  27.8583236   1.1850616  40.0536018  28.6342824   0.1048367  39.7198474
  28.0598189   0.6126975  39.5572129  33.0082881   3.7749888  38.6973710
  33.6531883   3.2822331  38.3784659  33.2484658   3.9174675  39.5239789
  33.1393466   3.7227330  38.7723244  35.5468972   6.6204794  38.3480603
  35.8292215   5.8256200  38.1267359  36.2755132   7.0985381  38.3685664
  35.6958536   6.5739391  38.3183618  45.5287060   5.7264156  35.3216434
  44.6984763   5.9374800  35.4849850  45.4796313   4.9001211  35.0458717
  45.3993796   5.6353762  35.3053799  27.5182644   9.7635829  35.5514529
  27.0350222  10.4886319  35.5274112  28.3305962  10.0611960  35.6624687
  27.5673391   9.9138183  35.5641808  33.5896798   8.5568010  38.1564343
  33.0723739   8.1975425  37.5525651  34.2871189   8.0330185  38.1670409
  33.6162379   8.4265698  38.0694602  37.2460390   9.0062824  44.1180516
  37.3343736   8.8188965  44.9658727  37.6750102   8.3600254  43.7185363
  37.3222492   8.8825832  44.1852268  34.8130850   8.2893984  43.0998179
  34.2501684   7.8766594  43.6237840  35.5751873   8.2146890  43.5191322
  34.8425298   8.2171385  43.2391179  30.3726841  10.2792005  35.7034809
  31.0747420   9.7643994  35.7607565  30.2924324  10.6066157  36.5081684
  30.4650601  10.2506232  35.8307601  45.0241019  -1.6265443  39.1166855
  44.1869440  -1.5563256  39.3514450  44.9929249  -1.6240948  38.2441158
  44.8959301  -1.6155216  39.0226403  31.4205748   0.5167592  44.8315224
  31.5926251   0.4073487  45.6800505  31.9575105   1.1621998  44.5946416
  31.5250752   0.5959594  44.9220321  29.6977616   6.4698357  35.2120417
  30.5366516   6.7021290  35.2594178  29.7289386   5.6002669  35.1427452
  29.8259334   6.3755304  35.2085061  30.3230319   6.8899233  39.5133722
  30.8628544   6.7470364  40.1837095  29.6400266   7.2895983  39.8817749
  30.3022473   6.9278903  39.6668144  39.7471204   2.5690233  34.7078747
  40.5028719   3.0021748  34.7467655  39.8533529   1.9195003  35.2813383
  39.8741375   2.5367717  34.7976772  42.7851375   6.3963510  35.4581150
  42.3486607   6.4000253  36.2140121  42.4514291   7.0769009  35.0260727
  42.6713995   6.4975966  35.5061982  37.3580449   8.4371843  46.7824300
  38.1420866   8.5502691  47.1480042  37.1577044   7.6112980  46.9782986
  37.4446474   8.3318563  46.8658686  25.7267465   3.1099523  39.6668144
  25.4605880   2.2938640  39.8259134  25.7406029   3.1552679  38.7963659
  25.6892187   2.9956428  39.5621626  42.7048858  -6.5622662  37.7010578
  43.3474767  -6.4924557  38.2872493  42.9571879  -7.2293439  37.1990119
  42.8370990  -6.6496313  37.7137857  37.5150842  10.3481945  40.4290756
  36.7166088  10.1081445  40.6864624  37.9636854  10.3996338  41.1757803
  37.4625454  10.3204336  40.5775680  45.9195722   3.1144430  34.3500787
  46.5812156   2.5535099  34.2496695  45.2787134   2.6196461  34.6753478
  45.9224589   2.9580839  34.3833127  26.1360878   3.8958303  36.9479888
  25.9536451   3.8705189  36.0952180  26.8710547   4.3657241  36.9868797
  26.2174942   3.9619665  36.8277807  42.2060552   4.1309813  34.0912776
  42.4416142   4.2755012  33.2639626  42.3550116   4.8952221  34.4844289
  42.2626356   4.2648867  34.0276380  29.2006630   0.6143306  43.4561997
  29.9246602   0.5996336  43.9426891  29.3022766   1.3238661  42.9583965
  29.3224839   0.7168009  43.4540784  44.0351009   2.9711479  31.9282379
  44.3659226   3.5039119  31.3222474  44.6084097   3.0250366  32.5844330
  44.1684688   3.0581048  31.9360161  36.5751579   4.0942390  48.3210944
  35.7824560   4.4085902  48.5063563  36.6900506   4.3093859  47.4831728
  36.4746990   4.1726227  48.2249278  39.2482898   0.8176381  32.6105960
  39.3429753   1.5565675  33.0645585  38.6241742   0.3893857  33.0440524
  39.1691928   0.8637702  32.7414107  37.5035372   3.9962594  43.2596240
  38.0774234   3.3589838  43.4144804  37.4250176   3.9966676  42.3905898
  37.5768607   3.9027705  43.1542651  32.8599091   2.4285859  35.3117438
  32.6018335   1.5957594  35.2848737  32.9147574   2.6543472  34.4709938
  32.8298869   2.3383630  35.1837575  35.5007091  -1.5453029  40.6574711
  35.1121524  -1.9698811  40.0026902  34.8361790  -1.2970879  41.1651738
  35.3454019  -1.5714308  40.6362579  45.1430361  -1.7878024  33.4322541
  44.8866925  -2.5998083  33.2420424  45.9859675  -1.7800457  33.2052728
  45.2296386  -1.9066027  33.3707358  42.8255520   5.3671572  43.2681094
  42.5894157   4.5359636  43.1493154  43.4698749   5.3157179  43.8535938
  42.8850191   5.2369260  43.3366987  32.4753938   6.1567093  33.9823830
  33.1127885   5.9178840  34.5275623  32.9009010   6.3604252  33.2476991
  32.6330104   6.1518103  33.9540987  27.1666580   8.3955429  37.8658134
  27.2070726   8.6670280  37.0377913  27.7261104   8.9197337  38.2815922
  27.2549926   8.5131184  37.8050022  43.8491941   5.1516020  39.3309388
  43.5437758   5.8844077  39.6922704  43.1298156   4.7453950  39.0502174
  43.6979283   5.1997753  39.3422525  34.8575410   6.6339516  35.6617616
  34.9314418   6.4714687  36.5159466  35.6744916   6.8229705  35.4178098
  34.9891769   6.6376258  35.7515642  49.5493733   1.7909021  38.6577732
  49.4818233   1.8104980  37.7880319  49.5349395   2.6339348  38.8833403
  49.5372489   1.9182756  38.5630209  39.9590079  -6.8055821  41.9818822
  40.7043671  -6.9946011  41.5682247  39.5427384  -6.2797583  41.4232678
  40.0075053  -6.7553676  41.8383395  33.3979996   9.5974259  30.3931090
  33.6878294   9.2063240  29.6690316  34.1283477   9.7790964  30.8336365
  33.5486880   9.5668072  30.3513897  47.3352350   0.5653407  36.9324327
  47.8860272  -0.0678524  37.1721419  47.3196465   1.0968800  37.6239831
  47.4137546   0.5502355  37.0703185  33.9874741   4.3992005  41.4784220
  33.4886435   5.1107772  41.5569109  34.7974965   4.7192671  41.4402383
  34.0330848   4.5518853  41.4840789  31.3385911  11.5741641  33.4591239
  31.1186207  11.2838996  34.2517906  31.1180433  10.9156596  32.9309152
  31.2733505  11.4341349  33.4980148  30.2502858   3.6614958  35.7246941
  29.9616107   3.0352429  36.2592668  31.1186207   3.6035245  35.7911622
  30.3363110   3.5602502  35.8137896  41.0380756  -1.1950259  36.0428923
  40.6945522  -1.9159924  36.3936173  41.1373799  -1.4036408  35.2007281
  41.0022799  -1.3326056  35.9700603  33.5053867  12.9471031  32.2421932
  34.1577925  12.4147473  32.4712958  32.8079476  12.5939683  32.6289806
  33.4984585  12.8160554  32.3334100  41.4993785   5.2675445  31.5852911
  42.0651818   5.9268655  31.5011454  40.8521689   5.6125143  32.0569313
  41.4872542   5.4157386  31.6425668  32.9141799  -2.7426951  46.7746519
  32.1041575  -2.4369171  46.6636361  33.3916486  -2.0221369  46.8899103
  32.8645278  -2.5912350  46.7753590  31.7733358   6.4718770  37.0229422
  31.2514112   6.6119062  37.7081286  32.1607379   5.7129434  37.2131539
  31.7537059   6.3804294  37.1530498  37.9700363   8.2114229  31.0089990
  37.7287039   7.4782090  30.6017055  38.1501696   8.7601086  30.3556324
  37.9607987   8.1836620  30.8520213  39.5571722  -3.2758674  37.9188466
  38.7182822  -3.2497395  37.6826729  39.6276089  -2.6287939  38.4993813
  39.4440115  -3.1762549  37.9697583  29.2485831   2.7935599  41.6445921
  29.7606928   3.0719853  40.9954681  28.9622173   3.5324893  42.0108734
  29.2820694   2.9437953  41.6035799  43.4329245   1.9309312  35.2049708
  43.3463220   2.0864738  36.0584487  42.9779725   2.5747388  34.8309113
  43.3532502   2.0485068  35.2756814  41.2003110   5.9603419  37.6162048
  41.0617470   6.6584465  38.1210791  40.4203108   5.8052075  37.2598230
  41.0646337   6.0403586  37.6388323  39.5381196   2.2599794  43.8684430
  39.5329234   1.3879611  43.8726857  40.2442189   2.4587963  43.3953886
  39.6426199   2.1603668  43.7991465  33.2652089   1.9876778  43.2398250
  33.4095465   2.5677986  42.6041360  33.6127737   2.3653075  43.9448105
  33.3379550   2.1297482  43.2497245  35.4372006   1.1866946  41.0223382
  34.6895320   1.3797961  40.6171660  35.5913531   0.3612166  40.7847503
  35.3494434   1.0932058  40.9268788  32.3379844  10.1779550  40.1059277
  32.4869408   9.6182466  39.4532682  33.1179846  10.2571552  40.4891796
  32.4753937  10.1065115  40.0656226  34.8633144  10.3494193  41.3843768
  34.7876816   9.6803003  41.9394556  34.7923004  11.0511981  41.8984434
  34.8413751  10.3539100  41.5420616  35.6773783  -4.9182503  41.9118786
  36.1346397  -4.1858528  42.0391578  35.7530112  -5.3416038  42.6706041
  35.7564753  -4.8725265  42.0419862  35.5203391   8.8695192  32.2167374
  36.2853282   8.6004835  31.8950038  35.4181481   8.3845202  32.9337437
  35.6184887   8.7584756  32.2747201  33.5556161  -2.9280399  38.7560610
  32.7652236  -3.1088939  39.0777945  33.9516784  -3.7053446  38.7390904
  33.4973037  -3.0692938  38.8013158  38.9399847   4.7062031  36.4820056
  38.2644849   4.4747264  36.9833443  38.9492224   4.0983214  35.8562161
  38.8418352   4.5820957  36.4636208  36.0693991  -0.4520140  43.2384109
  36.0053133   0.4089817  43.1104245  36.2091179  -0.7688147  42.4379660
  36.0809461  -0.3719973  43.1012321  40.9416582   7.5627164  28.7130233
  41.0236419   8.3694150  28.3891684  41.4266324   7.5823123  29.4371007
  41.0253740   7.6847826  28.7717132  34.7513085   2.2412000  37.3800311
  34.3275334   2.4416499  36.6439330  34.5757940   1.3940848  37.4924611
  34.6623966   2.1460781  37.2874002  34.2524779  13.7562513  39.8421769
  34.7420709  13.0573302  39.6597433  33.6809011  13.4586383  40.4297826
  34.2409309  13.6088736  39.9022810  40.4491782   6.3224582  48.7948559
  41.2626648   6.0509731  48.9553692  40.2886749   6.0232122  47.9908755
  40.5461731   6.2379508  48.6993965  37.7263944  -2.9941761  41.7343948
  37.9405914  -3.6330847  41.1807302  37.1097843  -2.5495937  41.3051809
  37.6669273  -3.0231617  41.5894379  39.1368612   9.9276987  33.1798169
  38.7448404   9.6243703  32.4621035  39.2921684  10.7646077  32.9903122
  39.1022202  10.0060824  33.0454666  39.8903032  -1.3852696  42.6727255
  39.0779714  -1.6926805  42.7540427  40.3492967  -1.8653696  43.2369967
  39.8383417  -1.5016203  42.7681849  39.3008287   6.4926976  33.1204199
  38.9422942   6.6641619  33.8968231  38.8146998   6.9540182  32.5632198
  39.1766984   6.5865947  33.1529468  36.9856540   0.0207376  47.4555957
  37.4556171   0.6449492  47.8423831  37.0318420  -0.6475649  48.0149172
  37.0624416   0.0142056  47.5956028  40.4613026   7.3830872  44.0671400
  41.0992747   6.8891068  43.7333856  39.8187118   7.3108273  43.4823627
  40.4607253   7.2989881  43.9313755  42.1870026  -0.7679982  38.6337316
  41.7597634  -0.8553633  37.8785415  41.5496079  -0.6602206  39.2192160
  42.0299634  -0.7647322  38.6082757  35.6791103  -5.6604457  44.5734285
  36.5064533  -5.9319308  44.6292899  35.6998950  -4.8643615  44.9298103
  35.8043954  -5.5824702  44.6349468  40.5167283   8.0750681  40.7076757
  41.3059661   7.7239745  40.8278838  40.6910881   8.8887069  40.4453391
  40.6587565   8.1436538  40.6864625  30.2560593   1.4859406  37.7604546
  29.4148600   1.3863280  37.9683439  30.4650601   2.2554887  38.1118866
  30.1625286   1.5851450  37.8431860  34.0677258  -0.5859195  37.0102143
  33.7640396  -1.1403206  37.6112551  33.3656679  -0.4066985  36.5230177
  33.9193468  -0.6414412  37.0271849  32.1295609   6.6290526  41.7174241
  32.0215964   6.6392588  42.5836299  32.3391391   7.4545307  41.5279195
  32.1445720   6.7531601  41.8178332  30.1469401   3.8803169  39.1796178
  29.5557334   4.5212667  39.1499194  30.9090425   4.3040786  39.1527478
  30.1717662   4.0379007  39.1711326  46.2659823   3.7108938  40.1773457
  46.3242946   4.1595587  40.9233433  45.6326290   4.1207751  39.7403537
  46.1811118   3.8382673  40.2226005  39.9058917   9.3312480  36.6128203
  39.7078606   9.8203295  35.9184414  39.2846628   9.5353722  37.1912336
  39.7846482   9.4329018  36.5951426  36.9544772  -3.3277150  36.8532366
  36.4804726  -3.8535388  37.3637677  37.3262907  -3.8747677  36.2847228
  36.9394661  -3.4861153  36.8447514  43.2181502   1.7325226  38.2639147
  42.9779725   0.8931641  38.2681573  43.6973509   1.8125393  38.9879921
  43.2533686   1.6206626  38.3713949  45.2186689  -1.4873317  36.2168406
  44.9796459  -1.5277483  35.3789191  45.3820590  -0.6402165  36.3434127
  45.2076993  -1.3681232  36.1121888  41.8232719   2.8976632  42.1473451
  42.5466918   2.4449159  41.9684471  41.5582682   3.1781298  41.3645779
  41.8913993   2.8727601  42.0052167  27.4045263   5.5537266  40.3230095
  26.8745188   4.8629705  40.3725069  27.6770357   5.5447451  39.4942803
  27.3669986   5.4504398  40.2077511  37.6051509   2.9960511  40.2968466
  36.9908502   2.4518561  40.5917102  38.1218794   2.4824747  39.8174282
  37.5907171   2.8396920  40.2692695  36.8447806   4.0664781  38.0312765
  36.4175414   3.4414499  37.5978200  36.8372750   3.7839703  38.8571772
  36.7806947   3.9317561  38.0892593  29.9610333  -0.8970046  41.1001199
  30.1203820  -1.6526722  41.5052921  29.7803227  -0.3479107  41.7541937
  29.9575692  -0.9276232  41.2563905  35.1733516  -5.0566465  38.2455299
  35.1976003  -5.5906352  37.5568079  35.4244989  -5.5649156  38.9080890
  35.2143434  -5.2105561  38.2419944  33.6364451   3.2365093  45.7281338
  32.7860081   3.3736808  45.8638983  33.7992579   2.5028872  46.1729040
  33.5348314   3.1479195  45.8136937  32.8749201   0.1864863  39.9234942
  32.0441131   0.3538681  39.7170190  32.8200718  -0.1899186  40.7083828
  32.7438616   0.1554595  40.0083470  44.2568033   1.8603043  40.6504001
  44.8485874   2.5000294  40.6822199  44.6927028   1.1626080  40.9396068
  44.4086465   1.8521394  40.6984834  36.0861423   6.2820416  41.2761895
  35.5786514   6.8356262  41.7202525  35.7888069   6.3428706  40.4580669
  35.9666308   6.3726727  41.2210352  38.2523605  -5.3526265  40.1186558
  38.6778677  -5.8053738  39.5070084  37.6380598  -5.9066194  40.3951345
  38.2252251  -5.5012289  40.0691583  38.6969203  10.1983673  29.2065838
  37.9798513  10.0244536  28.7413076  39.3475941   9.9636246  28.6741324
  38.6871054  10.1379466  29.0595056  41.2817175  -0.9251738  32.9507143
  40.6108365  -0.3822036  32.8220209  41.9756925  -0.4556883  32.7088838
  41.2846042  -0.7753467  32.8962671  35.3303908  11.2144974  38.1818902
  35.1069563  10.4563803  38.5502928  34.8413752  11.2442995  37.4599341
  35.2247357  11.1067198  38.1295643  41.4445302  -4.4695854  35.8597517
  41.7972912  -4.8966132  36.5343315  40.5860104  -4.5545011  35.9898593
  41.3694747  -4.5451114  35.9792527  39.4428568  -1.2060486  39.8082359
  39.4226495  -1.3877191  40.6617138  39.4907769  -0.3348467  39.7841943
  39.4463209  -1.1043948  39.9305654  37.3874898   5.3826706  45.7330836
  37.3470753   4.7376383  45.1475991  38.1998216   5.3263323  46.0456248
  37.5018051   5.2785673  45.6927785  33.9782365  11.4345432  35.6355986
  33.5642764  10.7719562  35.2459828  34.6629740  11.5823291  35.1151681
  34.0180737  11.3586090  35.5012484  37.3447659  10.5935517  36.3879603
  36.9463943  10.7037788  35.6200423  36.7298879  10.8017584  36.9706163
  37.1946549  10.6409085  36.3610902  33.0752607  -0.9876357  42.2880593
  32.5631510  -1.5955174  42.6465625  32.9032103  -0.2719765  42.7554569
  32.9742244  -0.9713058  42.4096817  45.0789502   5.1687484  29.7722694
  45.4623108   5.9178840  30.0020791  44.2833615   5.4153304  29.5134683
  45.0183284   5.3157178  29.7680267  36.9521677  -3.0652113  44.7282849
  37.5093107  -3.2938303  44.0961314  36.6282742  -2.3046447  44.4518061
  36.9868087  -2.9868276  44.5939346  34.6704794   0.0215541  45.6934856
  35.4216121   0.3367217  46.0074410  34.8627371  -0.1805288  44.8668778
  34.8096208   0.0382922  45.6178252  39.2430936   0.8286609  36.5894858
  39.7384602   0.1109604  36.5498878  38.4330712   0.5257406  36.4749345
  39.1974830   0.6784255  36.5668584  41.3082755   3.5790296  39.2771987
  41.7337827   3.0564718  38.7242412  40.9439675   4.1771134  38.7560610
  41.3169358   3.5900523  39.1180997  30.9436835  11.8754514  38.0369332
  31.2583394  12.6890902  38.0447114  31.3530248  11.4904732  38.7051492
  31.0504933  11.9383216  38.1373424  37.8961355   7.2924560  35.6073144
  38.3672533   8.0064823  35.7763130  38.2321533   6.6923311  36.1433014
  38.0156470   7.3096025  35.7105520  39.9838339   8.9025874  47.7865216
  40.0935305   8.1134434  48.1421964  40.3129236   8.8131810  46.9839555
  40.0490745   8.7731727  47.7207607  38.5335301   7.0842495  42.3700837
  37.9856247   6.4600378  42.1020902  38.9948330   7.2736767  41.6544916
  38.5202510   7.0201545  42.2251268  41.3429165  -4.8472151  39.7552029
  40.7592154  -4.3462944  39.3429597  41.6633459  -5.3542595  39.1216353
  41.3042341  -4.8480316  39.6010537  28.2849855   5.8227622  37.6847941
  28.8894712   5.7823456  37.0561762  28.0777168   6.6698774  37.7151997
  28.3438752   5.9415625  37.5964057  38.0993627   8.0893567  38.9010178
  38.9192001   7.9456533  39.1626473  37.8187705   8.7139766  39.4426616
  38.1790371   8.1603919  39.0198118  23.5201137   4.8062240  37.5546864
  23.4225415   3.9958511  37.8636921  24.3030007   4.7854033  37.1693132
  23.6217274   4.6829330  37.5433727  54.5707278  15.7458419  31.8653055
  54.5401282  16.6003056  32.0371324  55.1688626  15.4453712  32.4239198
  54.6544436  15.8274916  31.9727857  47.7706962  14.8334070  36.6205985
  46.9144858  14.9942568  36.6715102  47.8174616  13.9626134  36.6411046
  47.6506074  14.7284872  36.6312051  42.1548102  24.3696788  32.3843217
  41.4031002  23.9912326  32.1559262  42.6034114  24.4015222  31.6362027
  42.1097769  24.3182395  32.2400719  51.0800679  21.1020596  46.2266441
  51.7867446  20.6072626  46.3553376  51.2688614  21.5429677  45.4969099
  51.2128585  21.0938946  46.1375487  47.6073062  24.7922157  27.8128764
  47.2724431  25.4699079  27.3772986  48.1199933  24.4027469  27.2245635
  47.6338643  24.8346736  27.6615555  47.1477353  26.7436426  33.7539875
  47.5316733  27.3123325  33.2144650  47.0836495  26.0185936  33.2745691
  47.1950781  26.7211890  33.6033738  50.6158783  16.8926114  39.2637637
  51.1614744  17.5711201  39.3231606  50.5575660  16.7513575  38.4039218
  50.6874698  16.9718116  39.1449697  43.7332858  24.3815180  34.6505989
  43.8343221  23.5715534  34.9603117  43.1374604  24.2872126  34.0205668
  43.6605397  24.2480208  34.6032228  52.3923852  18.3210721  30.1371364
  52.2763378  19.0718407  30.5663503  53.1879739  18.0634674  30.3867451
  52.4928442  18.3945568  30.2375456  43.5733598  29.2992769  36.0520845
  44.2171053  29.7405933  36.4417003  43.8989853  28.4946195  35.9651104
  43.7165427  29.2457964  36.0966322  36.9297903  20.4035467  34.2758323
  36.6948087  19.5703119  34.1690592  37.0683543  20.6840132  33.4619524
  36.9153565  20.3218970  34.1400678  39.2287990  12.5721197  37.1742630
  38.6093022  11.9813844  37.0052645  39.1271854  13.1632632  36.5406954
  39.1225666  12.5725280  37.0547620  44.2754178  22.3104744  31.4240707
  44.5970019  22.8509951  30.8202015  44.9226274  21.7401515  31.5562997
  44.4180233  22.3063919  31.3547742  46.3255886  14.3120739  31.5075094
  47.0236050  14.4908867  31.9996557  46.6408218  13.7891078  30.8845483
  46.4751223  14.2614511  31.4877104  38.9557123  16.1173479  39.4186199
  38.8315820  16.7035924  40.0536018  39.6075408  15.6233675  39.7198474
  39.0330772  16.1312283  39.5572129  46.5143821  20.6991184  31.4954885
  46.9537457  20.0908285  31.9409658  46.3648484  20.3198557  30.7240350
  46.5565287  20.5529655  31.4474052  43.9815464  19.2935196  38.6973710
  44.6264467  18.8007639  38.3784659  44.2217241  19.4359982  39.5239789
  44.1126049  19.2412638  38.7723244  46.5201555  22.1390102  38.3480603
  46.8024798  21.3441507  38.1267359  47.2487716  22.6170689  38.3685664
  46.6691119  22.0924699  38.3183618  44.4982749   9.6813136  35.5896368
  44.1686079  10.1324279  34.9200067  43.8227751   9.6029299  36.1369375
  44.3493186   9.7364271  35.5719591  50.1153158  19.0518365  28.4485654
  50.0304453  19.9079332  28.5935223  50.6037541  18.7762689  29.1167813
  50.1742055  19.1375687  28.5687736  51.7059157   5.6698659  33.8345979
  51.3912598   6.3602137  34.2666401  51.1886099   5.6143441  33.1331479
  51.5823628   5.7633547  33.7942928  51.0471591  15.6703160  29.9483389
  50.5183062  15.8862793  30.6080696  51.5696611  16.3639298  29.8684359
  51.0460044  15.8046296  30.0338989  56.5019644  21.2449464  35.3216434
  55.6717347  21.4560108  35.4849850  56.4528896  20.4186519  35.0458717
  56.3726379  21.1539070  35.3053799  42.9371199  19.5666376  28.7490857
  42.3528414  20.0716408  29.1556721  42.5341294  19.3408763  28.0087449
  42.7910503  19.6074625  28.6995883  38.4915227  25.2821137  35.5514529
  38.0082806  26.0071627  35.5274112  39.3038546  25.5797267  35.6624687
  38.5405975  25.4323491  35.5641808  44.5629381  24.0753318  38.1564343
  44.0456323  23.7160733  37.5525651  45.2603773  23.5515493  38.1670409
  44.5894963  23.9451006  38.0694602  48.2192973  24.5248132  44.1180516
  48.3076319  24.3374273  44.9658727  48.6482686  23.8785562  43.7185363
  48.2955076  24.4011140  44.1852268  45.7863433  23.8079292  43.0998179
  45.2234268  23.3951902  43.6237840  46.5484457  23.7332198  43.5191322
  45.8157882  23.7356693  43.2391179  47.3948413  15.8132028  27.2259778
  47.6344417  16.0210012  26.4135121  47.7164254  15.0089537  27.3348722
  47.4785571  15.7246130  27.1220331  42.7038703   7.7425424  31.0719316
  43.4584671   8.1103741  30.8336366  42.5266238   8.1164978  31.8398495
  42.7893182   7.8523612  31.1504204  41.3459425  25.7977313  35.7034809
  42.0480004  25.2829302  35.7607565  41.2656908  26.1251465  36.5081684
  41.4383185  25.7691540  35.8307601  55.9973602  13.8919865  39.1166855
  55.1602023  13.9622052  39.3514450  55.9661833  13.8944359  38.2441158
  55.8691885  13.9030092  39.0226403  42.3938331  16.0352900  44.8315224
  42.5658835  15.9258795  45.6800505  42.9307689  16.6807306  44.5946416
  42.4983335  16.1144902  44.9220321  41.0595768  10.1495743  27.7697429
  40.8771341  10.3667624  26.9438422  41.9221381  10.2634756  27.8256043
  41.1600358  10.1985641  27.6551916  40.6710200  21.9883665  35.2120417
  41.5099099  22.2206598  35.2594178  40.7021969  21.1187977  35.1427452
  40.7991918  21.8940612  35.2085061  41.2962903  22.4084540  39.5133722
  41.8361128  22.2655672  40.1837095  40.6132849  22.8081291  39.8817749
  41.2755057  22.4464211  39.6668144  46.7395487   7.1522154  30.8046453
  47.4681648   6.9738109  30.3584609  46.8290380   7.9940234  31.0153631
  46.8602149   7.2506032  30.7699970  50.7203788  18.0875541  34.7078747
  51.4761303  18.5207055  34.7467655  50.8266112  17.4380311  35.2813383
  50.8473959  18.0553025  34.7976772  53.7583959  21.9148818  35.4581150
  53.3219191  21.9185561  36.2140121  53.4246874  22.5954317  35.0260727
  53.6446579  22.0161274  35.5061982  48.3313033  23.9557151  46.7824300
  49.1153449  24.0687999  47.1480042  48.1309627  23.1298288  46.9782986
  48.4179058  23.8503871  46.8658686  36.7000048  18.6284831  39.6668144
  36.4338463  17.8123948  39.8259134  36.7138612  18.6737987  38.7963659
  36.6624770  18.5141736  39.5621626  53.6781442   8.9562646  37.7010578
  54.3207350   9.0260751  38.2872493  53.9304463   8.2891869  37.1990119
  53.8103574   8.8688995  37.7137857  40.6057795  13.4269916  26.2819902
  39.8915972  13.1408095  26.6942334  41.0901764  13.7666542  26.9226289
  40.5717158  13.4351565  26.4375537  41.4498654  12.1663210  42.3135152
  40.7570451  11.6960189  42.5595883  42.0658982  11.9401514  42.8876859
  41.4383184  12.0630341  42.4344304  48.4883426  25.8667253  40.4290756
  47.6898672  25.6266753  40.6864624  48.9369437  25.9181646  41.1757803
  48.4358037  25.8389644  40.5775680  56.8928305  18.6329738  34.3500787
  57.5544739  18.0720407  34.2496695  56.2519717  18.1381769  34.6753478
  56.8957173  18.4766147  34.3833127  47.7805113  21.9299870  26.6581710
  48.1956261  21.5984894  25.9666206  46.9497043  21.6968772  26.5301847
  47.7193122  21.8471126  26.5372558  37.1093462  19.4143611  36.9479888
  36.9269035  19.3890497  36.0952180  37.8443131  19.8842549  36.9868797
  37.1907526  19.4804973  36.8277807  53.1793136  19.6495121  34.0912776
  53.4148725  19.7940320  33.2639626  53.3282700  20.4137529  34.4844289
  53.2358939  19.7834175  34.0276380  40.1739213  16.1328614  43.4561997
  40.8979186  16.1181644  43.9426891  40.2755350  16.8423969  42.9583965
  40.2957422  16.2353317  43.4540784  55.0083593  18.4896787  31.9282379
  55.3391810  19.0224427  31.3222474  55.5816681  18.5435674  32.5844330
  55.1417272  18.5766355  31.9360161  47.5484163  19.6127698  48.3210944
  46.7557144  19.9271210  48.5063563  47.6633090  19.8279167  47.4831728
  47.4479573  19.6911535  48.2249278  50.2215482  16.3361689  32.6105960
  50.3162336  17.0750983  33.0645585  49.5974325  15.9079165  33.0440524
  50.1424512  16.3823010  32.7414107  48.4767956  19.5147902  43.2596240
  49.0506817  18.8775146  43.4144804  48.3982759  19.5151984  42.3905898
  48.5501190  19.4213013  43.1542651  37.0764372  16.2937111  37.0978955
  37.6537875  16.1573562  37.7371200  36.3778434  15.8372896  37.3524539
  37.0585393  16.2059378  37.2301244  50.4738503  18.1810429  25.8442912
  50.3918666  18.2512616  26.7097899  51.1118224  18.7440173  25.6526652
  50.5558340  18.2749400  25.9432861  43.8331674  17.9471167  35.3117438
  43.5750919  17.1142902  35.2848737  43.8880157  18.1728780  34.4709938
  43.8031452  17.8568938  35.1837575  48.9132724  10.0499618  35.4121531
  48.2089051   9.5608803  35.5705450  48.9617699  10.0622092  34.5409975
  48.8162776   9.9789266  35.3060870  42.8066386  15.5008930  35.7982333
  42.2315978  15.6601098  36.4346294  42.4302063  14.8644339  35.3350783
  42.6669199  15.4306742  35.8236891  46.4739675  13.9732279  40.6574711
  46.0854108  13.5486497  40.0026902  45.8094373  14.2214428  41.1651738
  46.3186603  13.9471000  40.6362579  56.1162944  13.7307283  33.4322541
  55.8599509  12.9187225  33.2420424  56.9592258  13.7384851  33.2052728
  56.2028970  13.6119281  33.3707358  32.5523205  15.1449004  33.8126773
  32.6383457  14.7680873  34.5940303  33.1799003  14.7709450  33.3346731
  32.6579756  15.0334486  33.8572251  50.2966037   7.6706908  38.1698695
  50.6776548   6.9885079  38.5566569  49.4929321   7.3816510  37.9874360
  50.2342498   7.5273956  38.2002751  47.5778613  18.2030883  28.8551518
  48.3919252  18.4945776  28.7434289  47.5137755  17.5490746  28.2809811
  47.6881352  18.1496078  28.7540355  53.7988103  20.8856880  43.2681094
  53.5626741  20.0544944  43.1493154  54.4431332  20.8342487  43.8535938
  53.8582774  20.7554567  43.3366987  43.4486522  21.6752401  33.9823830
  44.0860469  21.4364148  34.5275623  43.8741593  21.8789560  33.2476991
  43.6062688  21.6703411  33.9540987  38.1399164  23.9140737  37.8658134
  38.1803309  24.1855588  37.0377913  38.6993688  24.4382645  38.2815922
  38.2282510  24.0316492  37.8050022  44.0889337  16.8954691  28.3198719
  44.4734489  16.6762397  29.0715265  43.8400957  17.7217636  28.4499796
  44.1091409  16.9852837  28.4499796  44.2557877  10.1761106  48.0361304
  43.9411318  10.9460669  47.7730866  43.9347810   9.6131362  47.4513531
  44.1616796  10.2071374  47.9102654  54.8224524  20.6701328  39.3309388
  54.5170341  21.4029385  39.6922704  54.1030740  20.2639258  39.0502174
  54.6711866  20.7183061  39.3422525  45.8307994  22.1524823  35.6617616
  45.9047002  21.9899995  36.5159466  46.6477500  22.3415013  35.4178098
  45.9624352  22.1561566  35.7515642  60.5226316  17.3094329  38.6577732
  60.4550817  17.3290288  37.7880319  60.5081979  18.1524656  38.8833403
  60.5105073  17.4368064  38.5630209  39.5913750  22.4982686  32.6912060
  38.7651868  22.7444423  32.5646339  39.6525741  22.4194767  33.5574118
  39.4787917  22.5227635  32.8001004  41.8089774   8.5651627  33.6507500
  40.9412199   8.6374227  33.7165109  42.0964978   9.3673706  33.8395475
  41.7229522   8.6945774  33.6882267  50.9322663   8.7129487  41.9818822
  51.6776255   8.5239297  41.5682247  50.5159967   9.2387725  41.4232678
  50.9807637   8.7631632  41.8383395  44.3712579  25.1159567  30.3931090
  44.6610878  24.7248548  29.6690316  45.1016060  25.2976271  30.8336365
  44.5219463  25.0853380  30.3513897  58.3084934  16.0838715  36.9324327
  58.8592855  15.4506784  37.1721419  58.2929049  16.6154108  37.6239831
  58.3870130  16.0687663  37.0703185  44.9607324  19.9177312  41.4784220
  44.4619018  20.6293080  41.5569109  45.7707549  20.2377979  41.4402383
  45.0063431  20.0704161  41.4840789  42.3118495  27.0926949  33.4591239
  42.0918790  26.8024304  34.2517906  42.0913017  26.4341904  32.9309152
  42.2466089  26.9526657  33.4980148  41.2235442  19.1800265  35.7246941
  40.9348691  18.5537737  36.2592668  42.0918790  19.1220553  35.7911622
  41.3095694  19.0787810  35.8137896  52.0113340  14.3235049  36.0428923
  51.6678106  13.6025384  36.3936173  52.1106382  14.1148900  35.2007281
  51.9755383  14.1859252  35.9700603  44.4786451  28.4656339  32.2421932
  45.1310509  27.9332781  32.4712958  43.7812059  28.1124991  32.6289806
  44.4717169  28.3345862  32.3334100  41.4267715  20.8195517  31.6489306
  42.1813683  21.2008556  31.8624769  40.8338328  21.2706660  32.1036003
  41.4504429  20.9424344  31.7472185  52.4726369  20.7860753  31.5852911
  53.0384402  21.4453963  31.5011454  51.8254272  21.1310451  32.0569313
  52.4605125  20.9342694  31.6425668  43.8874382  12.7758357  46.7746519
  43.0774158  13.0816137  46.6636361  44.3649069  13.4963939  46.8899103
  43.8377861  12.9272958  46.7753590  42.7465942  21.9904078  37.0229422
  42.2246696  22.1304370  37.7081286  43.1339962  21.2314742  37.2131539
  42.7269643  21.8989602  37.1530498  39.7357126  12.0409887  31.0924376
  39.4481922  11.6711157  30.3556324  40.4227594  12.5104742  30.8308081
  39.7946023  12.0556856  30.9439452  48.9432947  23.7299537  31.0089990
  48.7019623  22.9967398  30.6017055  49.1234280  24.2786394  30.3556324
  48.9340571  23.7021928  30.8520213  44.1732268  19.0208097  32.4210913
  43.9775050  19.6282831  31.8271216  44.3966613  18.3276041  31.9402587
  44.1766909  19.0085622  32.2626993  42.5710798  15.9062835  32.5391781
  43.2933450  16.0703993  32.0795587  42.0918790  16.6272500  32.4331121
  42.6074528  16.0361064  32.4557395  50.5304305  12.2426634  37.9188466
  49.6915406  12.2687912  37.6826729  50.6008673  12.8897369  38.4993813
  50.4172699  12.3422759  37.9697583  40.2218414  18.3120907  41.6445921
  40.7339511  18.5905160  40.9954681  39.9354757  19.0510201  42.0108734
  40.2553277  18.4623261  41.6035799  48.9773583   9.1412011  32.6516082
  49.6799936   8.9419759  32.1736040  48.7117772   8.3687953  32.9584925
  49.0420216   8.9974977  32.6261523  54.4061829  17.4494620  35.2049708
  54.3195804  17.6050046  36.0584487  53.9512309  18.0932696  34.8309113
  54.3265086  17.5670375  35.2756814  37.3085321  12.8191099  31.9409657
  37.4101457  13.6217260  32.2690633  38.1041207  12.6178435  31.6432738
  37.4413226  12.9076998  31.9445013  43.7402140  10.4047296  41.7046962
  43.5485337  10.4202430  42.5546386  44.5900736  10.6010970  41.6813617
  43.8377862  10.4361647  41.8270257  38.1249053  12.9338277  39.6830779
  37.9834545  12.0822218  39.8075287  38.4089616  12.9766938  38.8592985
  38.1456899  12.8138027  39.5798403  48.2787645  14.7705367  33.8275267
  48.0322359  14.6901118  34.6612056  48.6072768  13.9858835  33.6337795
  48.2908889  14.6431633  33.9222790  52.1735694  21.4788727  37.6162048
  52.0350053  22.1769773  38.1210791  51.3935692  21.3237383  37.2598230
  52.0378921  21.5588893  37.6388323  50.5113779  17.7785102  43.8684430
  50.5061818  16.9064919  43.8726857  51.2174773  17.9773271  43.3953886
  50.6158783  17.6788976  43.7991465  44.2384672  17.5062086  43.2398250
  44.3828048  18.0863294  42.6041360  44.5860321  17.8838383  43.9448105
  44.3112134  17.6482790  43.2497245  46.4104590  16.7052254  41.0223382
  45.6627904  16.8983269  40.6171660  46.5646115  15.8797474  40.7847503
  46.3227017  16.6117366  40.9268788  43.3112427  25.6964858  40.1059277
  43.4601991  25.1367774  39.4532682  44.0912429  25.7756860  40.4891796
  43.4486521  25.6250423  40.0656226  53.6689067  20.8366981  28.3778548
  53.2895875  20.0504118  28.3707837  53.0055312  21.3853838  28.2350192
  53.5147542  20.8011805  28.3559345  45.8365728  25.8679501  41.3843768
  45.7609399  25.1988311  41.9394556  45.7655587  26.5697289  41.8984434
  45.8146335  25.8724408  41.5420616  46.6506367  10.6002805  41.9118786
  47.1078981  11.3326779  42.0391578  46.7262696  10.1769270  42.6706041
  46.7297337  10.6460043  42.0419862  38.8939358  10.8468625  43.0008229
  38.3581547  10.2348983  43.3168997  38.9557123  11.4216761  43.6541896
  38.8234991  10.8415553  43.1443656  51.1233693   3.7792680  35.7812629
  51.2417261   4.2369144  35.0479931  50.9495868   2.9737942  35.4948846
  51.1152864   3.7286452  35.6313562  46.4935975  24.3880500  32.2167374
  47.2585866  24.1190143  31.8950038  46.3914065  23.9030510  32.9337437
  46.5917470  24.2770064  32.2747201  44.5288745  12.5904909  38.7560610
  43.7384819  12.4096369  39.0777945  44.9249368  11.8131862  38.7390904
  44.4705621  12.4492370  38.8013158  49.0154635  21.4192683  24.1967323
  49.7827621  21.4792808  23.7873175  48.5685944  20.8473125  23.7123642
  49.0628063  21.3429259  24.0645034  49.9132431  20.2247339  36.4820056
  49.2377433  19.9932571  36.9833443  49.9224807  19.6168522  35.8562161
  49.8150936  20.1006264  36.4636208  47.0426575  15.0665168  43.2384109
  46.9785716  15.9275125  43.1104245  47.1823763  14.7497161  42.4379660
  47.0542045  15.1465335  43.1012321  51.9149166  23.0812472  28.7130233
  51.9969003  23.8879458  28.3891684  52.3998908  23.1008431  29.4371007
  51.9986323  23.2033134  28.7717132  45.7245669  17.7597308  37.3800311
  45.3007918  17.9601807  36.6439330  45.5490524  16.9126156  37.4924611
  45.6356549  17.6646089  37.2874002  45.2257362  29.2747820  39.8421769
  45.7153293  28.5758610  39.6597433  44.6541595  28.9771690  40.4297826
  45.2141892  29.1274044  39.9022810  41.0128114  18.2549359  32.8128284
  41.1692733  18.1896162  33.6684276  41.3528707  19.0297912  32.6006964
  41.0861349  18.3598557  32.9082878  47.5507258  17.6307243  31.6821647
  48.0922804  17.1277624  32.1460268  47.8653817  17.5772437  30.8711132
  47.6771656  17.5486663  31.6305459  51.4224366  21.8409890  48.7948559
  52.2359231  21.5695039  48.9553692  51.2619332  21.5417430  47.9908755
  51.5194314  21.7564816  48.6993965  45.7193708  23.0224594  28.9661675
  45.7886528  22.1639133  29.1054676  46.4982163  23.2396475  28.6380700
  45.8446558  22.9277458  28.9378832  48.6996528  12.5243547  41.7343948
  48.9138497  11.8854461  41.1807302  48.0830427  12.9689371  41.3051809
  48.6401857  12.4953691  41.5894379  50.1101196  25.4462295  33.1798169
  49.7180987  25.1429011  32.4621035  50.2654268  26.2831385  32.9903122
  50.0754786  25.5246132  33.0454666  37.5862375  15.4384309  33.1289051
  37.9661340  15.8568854  32.4649318  37.0117740  16.0197765  33.4357894
  37.5573700  15.5862168  33.0765792  50.8635616  14.1332612  42.6727255
  50.0512298  13.8258503  42.7540427  51.3225550  13.6531612  43.2369967
  50.8116001  14.0169105  42.7681849  50.2740870  22.0112284  33.1204199
  49.9155525  22.1826927  33.8968231  49.7879581  22.4725490  32.5632198
  50.1499567  22.1051255  33.1529468  48.0911256   5.6343483  36.7231290
  47.2204814   5.6082204  36.6764600  48.3451598   5.4620675  35.9057136
  48.0004817   5.6053626  36.5951427  45.0629236  17.6911450  25.6604433
  45.3521761  18.4676332  25.9348008  45.1501035  17.1800181  26.3618933
  45.1183492  17.7303368  25.8046931  47.9589123  15.5392684  47.4555957
  48.4288754  16.1634800  47.8423831  48.0051003  14.8709659  48.0149172
  48.0356999  15.5327364  47.5956028  45.1160397   7.6449711  38.1804761
  44.5998886   6.9529903  38.3056340  44.5554326   8.3120488  38.1267360
  44.9566910   7.6412969  38.1910827  47.1852630   8.1842671  40.0097613
  46.7984384   8.2091703  40.7911143  46.6985568   7.6184350  39.5572130
  47.0565139   8.1038422  40.0585517  51.4345610  22.9016180  44.0671400
  52.0725330  22.4076376  43.7333856  50.7919701  22.8293581  43.4823627
  51.4339836  22.8175189  43.9313755  53.1602610  14.7505326  38.6337316
  52.7330218  14.6631675  37.8785415  52.5228663  14.8583102  39.2192160
  53.0032217  14.7537986  38.6082757  46.8509772   5.0709657  42.3007873
  47.4802890   5.6069957  42.0228944  47.0195635   4.9787016  43.1521439
  46.9687567   5.1371019  42.3856401  46.6523687   9.8580851  44.5734285
  47.4797116   9.5866000  44.6292899  46.6731533  10.6541693  44.9298103
  46.7776537   9.9360606  44.6349468  51.4899866  23.5935988  40.7076757
  52.2792245  23.2425053  40.8278838  51.6643464  24.4072377  40.4453391
  51.6320148  23.6621846  40.6864625  41.2293177  17.0044714  37.7604546
  40.3881183  16.9048588  37.9683439  41.4383185  17.7740194  38.1118866
  41.1357869  17.1036758  37.8431860  38.7068744  14.6264251  35.5889296
  38.3125442  14.7007263  34.8139406  38.1508861  15.0122197  36.1397658
  38.5671556  14.6946026  35.5556956  50.3433691   7.6045545  35.2693175
  50.5483284   7.5367853  36.1150172  50.0160115   8.4104366  35.2014353
  50.3248939   7.7131486  35.3852830  45.0409842  14.9326113  37.0102143
  44.7372979  14.3782102  37.6112551  44.3389262  15.1118323  36.5230177
  44.8926052  14.8770896  37.0271849  44.0975939  12.2426633  31.5746845
  44.3735673  11.5245546  31.1624412  44.6974608  12.8411553  31.3667951
  44.2269203  12.2247004  31.4827606  43.1028193  22.1475834  41.7174241
  42.9948548  22.1577896  42.5836299  43.3123974  22.9730614  41.5279195
  43.1178304  22.2716909  41.8178332  53.5967378   8.1577309  34.7495941
  52.9841692   8.6447712  35.1349672  53.6931553   7.4820800  35.2933592
  53.5205276   8.1295618  34.8874799  47.5986459   9.9140151  29.8493440
  48.0530206  10.0850711  30.5741284  48.0726505   9.3008261  29.4491216
  47.7354779   9.8491036  29.8967201  41.1201985  19.3988477  39.1796178
  40.5289918  20.0397975  39.1499194  41.8823008  19.8226094  39.1527478
  41.1450245  19.5564315  39.1711326  41.5162608  10.5590474  39.8464196
  41.9764089  10.6329404  40.5839320  41.5618714  11.3571728  39.4964017
  41.5913163  10.6884621  39.9036953  43.1645957  11.2257169  44.4136223
  42.7731522  10.5790516  44.8492001  43.3331820  11.8168604  45.0330479
  43.1316868  11.2171437  44.5698929  57.2392406  19.2294246  40.1773457
  57.2975530  19.6780895  40.9233433  56.6058874  19.6393059  39.7403537
  57.1543701  19.3567981  40.2226005  50.8791501  24.8497788  36.6128203
  50.6811190  25.3388603  35.9184414  50.2579212  25.0539030  37.1912336
  50.7579065  24.9514326  36.5951426  44.9399479  16.6182685  30.9538447
  45.6841524  17.0056961  31.1921397  45.0860175  15.7740110  31.1178935
  45.0710064  16.5513158  31.0132417  46.8579055   8.4132944  35.9870309
  46.0115100   8.5855752  35.8611658  46.8550187   7.6082288  36.3236137
  46.7326205   8.3193973  36.0181436  47.9277355  12.1908158  36.8532366
  47.4537309  11.6649920  37.3637677  48.2995491  11.6437631  36.2847228
  47.9127244  12.0324155  36.8447514  38.3050385  14.1879665  42.2215912
  39.1675998  14.0875374  42.1353242  37.9742168  13.6074374  41.6601484
  38.3835582  14.0871292  42.1261318  54.1914086  17.2510534  38.2639147
  53.9512309  16.4116949  38.2681573  54.6706093  17.3310701  38.9879921
  54.2266269  17.1391934  38.3713949  49.8560855  13.0844713  29.9158120
  49.3283873  13.1673457  29.2263829  50.3156563  13.8262584  29.9122765
  49.8462705  13.2065375  29.8132815  56.1919273  14.0311991  36.2168406
  55.9529043  13.9907825  35.3789191  56.3553174  14.8783143  36.3434127
  56.1809576  14.1504076  36.1121888  52.7965303  18.4161940  42.1473451
  53.5199502  17.9634467  41.9684471  52.5315265  18.6966606  41.3645779
  52.8646576  18.3912909  42.0052167  41.6652171  13.0122114  38.8826330
  41.0405241  13.0240506  38.2752283  41.3297766  13.4882289  39.5317571
  41.5237663  13.0840631  38.8882899  38.3777847  21.0722574  40.3230095
  37.8477771  20.3815013  40.3725069  38.6502940  21.0632759  39.4942803
  38.3402569  20.9689706  40.2077511  49.4097937  21.6548276  29.0467777
  50.1332136  22.1206389  28.9032351  48.9698528  21.7221886  28.2965374
  49.4513630  21.7332113  28.9152559  48.5784092  18.5145819  40.2968466
  47.9641086  17.9703869  40.5917102  49.0951377  18.0010055  39.8174282
  48.5639755  18.3582228  40.2692695  47.8180390  19.5850089  38.0312765
  47.3907998  18.9599807  37.5978200  47.8105334  19.3025011  38.8571772
  47.7539531  19.4502869  38.0892593  40.9342917  14.6215262  41.1001199
  41.0936403  13.8658586  41.5052921  40.7535810  15.1706201  41.7541937
  40.9308276  14.5909075  41.2563905  48.8763220   6.7876497  41.6551988
  48.3803781   6.9840171  40.9643555  49.6332282   7.1869166  41.4840790
  48.9150044   6.8754231  41.5272125  46.1466099  10.4618843  38.2455299
  46.1708586   9.9278955  37.5568079  46.3977573   9.9536152  38.9080890
  46.1876018  10.3079747  38.2419944  33.6573689  17.7450338  37.6798443
  33.5517138  17.6997182  36.8150527  32.9073909  18.0904119  37.9612728
  33.5309292  17.7891246  37.5935773  42.4267421   9.1889661  37.6261043
  42.4665793   9.6898868  38.3395751  41.6017086   9.2800055  37.3566966
  42.3106947   9.2771478  37.6911582  44.6097034  18.7550401  45.7281338
  43.7592665  18.8922116  45.8638983  44.7725162  18.0214180  46.1729040
  44.5080898  18.6664503  45.8136937  43.8481785  15.7050171  39.9234942
  43.0173715  15.8723989  39.7170190  43.7933302  15.3286122  40.7083828
  43.7171200  15.6739903  40.0083470  41.6565568   9.1959064  45.5591353
  42.2818272   8.6521197  45.8320785  41.2016048   8.7153982  44.9899143
  41.6813829   9.0448546  45.5152947  42.2217829  13.9805763  30.4525060
  42.3620790  14.4778227  31.1553701  42.7200362  13.2792057  30.5939274
  42.3158910  13.9507742  30.5776639  42.2518051  14.8472874  27.7817637
  42.8863131  15.4433299  27.7167099  42.3343662  14.5476331  28.5963507
  42.3574602  14.8913782  27.8920723  55.2300617  17.3788351  40.6504001
  55.8218457  18.0185602  40.6822199  55.6659611  16.6811388  40.9396068
  55.3819048  17.3706702  40.6984834  43.8297034  10.7786849  27.7563079
  44.1512875  10.2989932  27.1022341  44.0923978  11.5886495  27.5653890
  43.9163059  10.8276747  27.6318571  47.0594007  21.8005724  41.2761895
  46.5519098  22.3541570  41.7202525  46.7620653  21.8614013  40.4580669
  46.9398892  21.8912035  41.2210352  49.2256189  10.1659043  40.1186558
  49.6511260   9.7131570  39.5070084  48.6113182   9.6119114  40.3951345
  49.1984834  10.0173019  40.0691583  38.7571039  17.0440715  31.0507183
  39.2663268  17.6405222  31.4318488  39.2305311  16.7766688  30.3683602
  38.9014415  17.0926530  31.0061706  49.6701787  25.7168981  29.2065838
  48.9531097  25.5429844  28.7413076  50.3208525  25.4821554  28.6741324
  49.6603638  25.6564774  29.0595056  47.6650412   6.6374143  33.5277135
  47.0218730   6.4871789  34.0962273  47.3249819   6.3916488  32.7626240
  47.5195489   6.5786265  33.4980150  52.2549758  14.5933570  32.9507143
  51.5840948  15.1363272  32.8220209  52.9489508  15.0628425  32.7088838
  52.2578626  14.7431841  32.8962671  46.3036492  26.7330282  38.1818902
  46.0802146  25.9749111  38.5502928  45.8146335  26.7628303  37.4599341
  46.1979941  26.6252506  38.1295643  52.4177886  11.0489453  35.8597517
  52.7705496  10.6219176  36.5343315  51.5592687  10.9640297  35.9898593
  52.3427330  10.9734194  35.9792527  41.1161571  13.6796973  33.9180363
  40.3973560  14.0961106  34.1853227  41.4873933  14.2451212  33.3672001
  41.0653502  13.8246255  33.8763170  50.4161152  14.3124822  39.8082359
  50.3959079  14.1308117  40.6617138  50.4640352  15.1836841  39.7841943
  50.4195793  14.4141360  39.9305654  48.3607481  20.9012014  45.7330836
  48.3203336  20.2561691  45.1475991  49.1730800  20.8448631  46.0456248
  48.4750635  20.7970981  45.6927785  44.9514949  26.9530740  35.6355986
  44.5375348  26.2904870  35.2459828  45.6362323  27.1008599  35.1151681
  44.9913321  26.8771398  35.5012484  48.3180243  26.1120825  36.3879603
  47.9196526  26.2223096  35.6200423  47.7031463  26.3202892  36.9706163
  48.1679132  26.1594393  36.3610902  46.8908145  12.7194973  29.2553743
  46.2972984  13.0411970  28.7038310  46.9283423  11.8736068  29.0474849
  46.8082534  12.6419301  29.1436514  53.8501946   6.1707865  36.7881829
  53.3432810   5.4637005  36.7203007  54.6469380   5.8401054  36.9182906
  53.8929185   6.0181017  36.7980824  49.7665962  12.6774478  32.6855493
  49.5379655  12.7007179  31.8433851  50.0264038  11.8531945  32.8050503
  49.7712150  12.5590557  32.5780691  44.0485190  14.5308951  42.2880593
  43.5364093  13.9230134  42.6465625  43.8764686  15.2465543  42.7554569
  43.9474827  14.5472250  42.4096817  38.8950905  12.9746526  44.9382955
  38.7253495  13.6347901  44.3931162  38.4516855  13.1853087  45.6595444
  38.8050238  13.1032508  44.9644584  42.8210724  11.2151024  33.9809689
  43.2968090  11.5768104  33.3459870  42.3199324  11.8707491  34.2609831
  42.8176083  11.3645213  33.9286430  56.0522086  20.6872792  29.7722694
  56.4355692  21.4364148  30.0020791  55.2566199  20.9338612  29.5134683
  55.9915868  20.8342486  29.7680267  47.9254260  12.4533195  44.7282849
  48.4825691  12.2247005  44.0961314  47.6015325  13.2138861  44.4518061
  47.9600671  12.5317032  44.5939346  35.7952969  15.8793391  40.1971445
  35.2479689  15.2094037  40.3152313  36.5845347  15.5123239  40.2614912
  35.8305153  15.7258378  40.2240145  45.6437378  15.5400849  45.6934856
  46.3948705  15.8552525  46.0074410  45.8359954  15.3380019  44.8668778
  45.7828792  15.5568230  45.6178252  44.8637377  13.3592224  27.3483073
  45.2436342  13.3771853  26.5634187  44.1229973  13.8046212  27.2273920
  44.8106215  13.4273998  27.2146641  52.4922668  11.6674415  32.9358651
  52.4916894  11.5123071  33.7942928  52.2878848  12.5137402  32.8800037
  52.4622446  11.7695036  33.0546591  34.5539939  15.0914199  37.3517468
  34.3761700  14.6390808  38.0772383  34.2658961  15.8940361  37.5355945
  34.4852892  15.1436757  37.4860971  50.2163520  16.3471917  36.5894858
  50.7117185  15.6294912  36.5498878  49.4063296  16.0442714  36.4749345
  50.1707413  16.1969563  36.5668584  45.6622131  20.1969730  28.7391863
  44.8533454  19.8736403  28.6925172  46.1697040  19.4902952  28.6720111
  45.6171798  20.0451046  28.7222157  36.2912409  17.6241923  34.4639227
  35.4257928  17.6127613  34.3521998  36.3911225  17.4372146  35.3110366
  36.1786576  17.5947984  34.5728171  52.2815339  19.0975604  39.2771987
  52.7070410  18.5750026  38.7242412  51.9172259  19.6956442  38.7560610
  52.2901941  19.1085831  39.1180997  41.9169419  27.3939822  38.0369332
  42.2315978  28.2076210  38.0447114  42.3262832  27.0090040  38.7051492
  42.0237517  27.4568524  38.1373424  48.8693938  22.8109868  35.6073144
  49.3405116  23.5250131  35.7763130  49.2054117  22.2108619  36.1433014
  48.9889053  22.8281333  35.7105520  50.9570923  24.4211182  47.7865216
  51.0667888  23.6319742  48.1421964  51.2861819  24.3317118  46.9839555
  51.0223329  24.2917035  47.7207607  45.7863433   7.5837339  42.5631239
  45.9191339   6.7868332  42.8912215  46.1708586   8.1103742  43.1429515
  45.8619762   7.5437256  42.6974742  49.5067885  22.6027803  42.3700837
  48.9588831  21.9785686  42.1020902  49.9680913  22.7922075  41.6544916
  49.4935094  22.5386853  42.2251268  48.8595788   4.5067665  39.1612332
  48.0541752   4.3965395  39.4780171  48.7302524   4.6080121  38.3042198
  48.7215921   4.5051335  39.0820373  52.3161749  10.6713157  39.7552029
  51.7324738  11.1722364  39.3429597  52.6366043  10.1642713  39.1216353
  52.2774924  10.6704992  39.6010537  44.8556548   9.5853752  30.0310704
  45.6772242   9.7552065  29.7892399  44.3926199   9.7401013  29.3077002
  44.9087710   9.6335485  29.8882348  43.4451880   7.5796514  40.8109133
  43.9896293   7.2387641  41.4013475  43.4988816   8.4381976  40.9530417
  43.5340999   7.6551773  40.9191006  39.2582439  21.3412930  37.6847941
  39.8627296  21.3008764  37.0561762  39.0509751  22.1884082  37.7151997
  39.3171336  21.4600933  37.5964057  49.0726211  23.6078875  38.9010178
  49.8924585  23.4641841  39.1626473  48.7920288  24.2325074  39.4426616
  49.1522954  23.6789227  39.0198118  34.4933721  20.3247548  37.5546864
  34.3957999  19.5143819  37.8636921  35.2762591  20.3039341  37.1693132
  34.5949857  20.2014638  37.5433727  65.5439861  31.2643727  31.8653055
  65.5133866  32.1188364  32.0371324  66.1421210  30.9639020  32.4239198
  65.6277019  31.3460223  31.9727857  58.7439546  30.3519378  36.6205985
  57.8877442  30.5127876  36.6715102  58.7907200  29.4811442  36.6411046
  58.6238658  30.2470180  36.6312051  53.1280686  39.8882096  32.3843217
  52.3763585  39.5097634  32.1559262  53.5766697  39.9200529  31.6362027
  53.0830353  39.8367703  32.2400719  62.0533263  36.6205904  46.2266441
  62.7600030  36.1257934  46.3553376  62.2421198  37.0614985  45.4969099
  62.1861168  36.6124254  46.1375487  58.5805646  40.3107465  27.8128764
  58.2457014  40.9884387  27.3772986  59.0932516  39.9212777  27.2245635
  58.6071227  40.3532044  27.6615555  58.1209937  42.2621734  33.7539875
  58.5049316  42.8308633  33.2144650  58.0569078  41.5371244  33.2745691
  58.1683364  42.2397197  33.6033738  54.7065442  39.9000488  34.6505989
  54.8075805  39.0900842  34.9603117  54.1107187  39.8057434  34.0205668
  54.6337981  39.7665516  34.6032228  63.3656436  33.8396029  30.1371364
  63.2495962  34.5903715  30.5663503  64.1612322  33.5819982  30.3867451
  63.4661025  33.9130876  30.2375456  54.5466182  44.8178077  36.0520845
  55.1903637  45.2591241  36.4417003  54.8722437  44.0131503  35.9651104
  54.6898010  44.7643272  36.0966322  47.9030486  35.9220775  34.2758323
  47.6680671  35.0888427  34.1690592  48.0416127  36.2025440  33.4619524
  47.8886149  35.8404278  34.1400678  50.2020574  28.0906505  37.1742630
  49.5825605  27.4999152  37.0052645  50.1004437  28.6817940  36.5406954
  50.0958249  28.0910588  37.0547620  55.2486761  37.8290052  31.4240707
  55.5702602  38.3695259  30.8202015  55.8958858  37.2586823  31.5562997
  55.3912816  37.8249227  31.3547742  57.2988469  29.8306047  31.5075094
  57.9968634  30.0094174  31.9996557  57.6140802  29.3076386  30.8845483
  57.4483807  29.7799819  31.4877104  49.9289707  31.6358787  39.4186199
  49.8048404  32.2221232  40.0536018  50.5807991  31.1418983  39.7198474
  50.0063356  31.6497591  39.5572129  57.4876405  36.2176492  31.4954885
  57.9270040  35.6093592  31.9409658  57.3381068  35.8383865  30.7240350
  57.5297870  36.0714963  31.4474052  54.9548048  34.8120504  38.6973710
  55.5997050  34.3192947  38.3784659  55.1949825  34.9545290  39.5239789
  55.0858633  34.7597946  38.7723244  57.4934139  37.6575410  38.3480603
  57.7757382  36.8626815  38.1267359  58.2220299  38.1355997  38.3685664
  57.6423703  37.6110007  38.3183618  55.4715333  25.1998444  35.5896368
  55.1418663  25.6509587  34.9200067  54.7960335  25.1214607  36.1369375
  55.3225769  25.2549579  35.5719591  61.0885741  34.5703673  28.4485654
  61.0037036  35.4264640  28.5935223  61.5770124  34.2947997  29.1167813
  61.1474639  34.6560995  28.5687736  62.6791741  21.1883966  33.8345979
  62.3645182  21.8787445  34.2666401  62.1618682  21.1328749  33.1331479
  62.5556211  21.2818855  33.7942928  62.0204174  31.1888467  29.9483389
  61.4915646  31.4048101  30.6080696  62.5429194  31.8824606  29.8684359
  62.0192627  31.3231604  30.0338989  53.9103782  35.0851684  28.7490857
  53.3260998  35.5901716  29.1556721  53.5073877  34.8594071  28.0087449
  53.7643086  35.1259932  28.6995883  49.4647811  40.8006445  35.5514529
  48.9815389  41.5256935  35.5274112  50.2771129  41.0982575  35.6624687
  49.5138559  40.9508799  35.5641808  55.5361965  39.5938626  38.1564343
  55.0188907  39.2346041  37.5525651  56.2336356  39.0700800  38.1670409
  55.5627546  39.4636314  38.0694602  59.1925557  40.0433440  44.1180516
  59.2808903  39.8559581  44.9658727  59.6215269  39.3970870  43.7185363
  59.2687659  39.9196448  44.1852268  56.7596017  39.3264600  43.0998179
  56.1966852  38.9137210  43.6237840  57.5217040  39.2517506  43.5191322
  56.7890465  39.2542001  43.2391179  58.3680997  31.3317336  27.2259778
  58.6077000  31.5395320  26.4135121  58.6896838  30.5274845  27.3348722
  58.4518155  31.2431437  27.1220331  53.6771287  23.2610732  31.0719316
  54.4317255  23.6289049  30.8336366  53.4998822  23.6350286  31.8398495
  53.7625765  23.3708920  31.1504204  52.3192008  41.3162621  35.7034809
  53.0212587  40.8014610  35.7607565  52.2389491  41.6436773  36.5081684
  52.4115769  41.2876847  35.8307601  66.9706186  29.4105173  39.1166855
  66.1334607  29.4807360  39.3514450  66.9394417  29.4129667  38.2441158
  66.8424468  29.4215400  39.0226403  53.3670915  31.5538208  44.8315224
  53.5391418  31.4444103  45.6800505  53.9040272  32.1992614  44.5946416
  53.4715919  31.6330210  44.9220321  52.0328352  25.6681051  27.7697429
  51.8503925  25.8852932  26.9438422  52.8953965  25.7820064  27.8256043
  52.1332941  25.7170949  27.6551916  51.6442784  37.5068973  35.2120417
  52.4831683  37.7391906  35.2594178  51.6754553  36.6373285  35.1427452
  51.7724501  37.4125920  35.2085061  52.2695487  37.9269848  39.5133722
  52.8093712  37.7840979  40.1837095  51.5865433  38.3266599  39.8817749
  52.2487640  37.9649519  39.6668144  57.7128071  22.6707462  30.8046453
  58.4414231  22.4923417  30.3584609  57.8022964  23.5125541  31.0153631
  57.8334733  22.7691340  30.7699970  61.6936371  33.6060849  34.7078747
  62.4493887  34.0392363  34.7467655  61.7998696  32.9565619  35.2813383
  61.8206542  33.5738333  34.7976772  59.3045616  39.4742459  46.7824300
  60.0886033  39.5873307  47.1480042  59.1042211  38.6483596  46.9782986
  59.3911642  39.3689179  46.8658686  47.6732632  34.1470139  39.6668144
  47.4071047  33.3309256  39.8259134  47.6871196  34.1923295  38.7963659
  47.6357354  34.0327044  39.5621626  64.6514026  24.4747954  37.7010578
  65.2939934  24.5446059  38.2872493  64.9037046  23.8077177  37.1990119
  64.7836158  24.3874303  37.7137857  51.5790379  28.9455224  26.2819902
  50.8648556  28.6593403  26.6942334  52.0634347  29.2851849  26.9226289
  51.5449742  28.9536873  26.4375537  52.4231238  27.6848518  42.3135152
  51.7303035  27.2145497  42.5595883  53.0391565  27.4586822  42.8876859
  52.4115768  27.5815649  42.4344304  59.4616010  41.3852561  40.4290756
  58.6631255  41.1452061  40.6864624  59.9102021  41.4366954  41.1757803
  59.4090621  41.3574952  40.5775680  58.7537697  37.4485178  26.6581710
  59.1688845  37.1170201  25.9666206  57.9229626  37.2154080  26.5301847
  58.6925705  37.3656434  26.5372558  48.0826045  34.9328919  36.9479888
  47.9001619  34.9075805  36.0952180  48.8175714  35.4027856  36.9868797
  48.1640109  34.9990281  36.8277807  64.1525720  35.1680429  34.0912776
  64.3881309  35.3125627  33.2639626  64.3015283  35.9322837  34.4844289
  64.2091523  35.3019483  34.0276380  51.1471797  31.6513921  43.4561997
  51.8711769  31.6366952  43.9426891  51.2487934  32.3609277  42.9583965
  51.2690006  31.7538625  43.4540784  65.9816176  34.0082095  31.9282379
  66.3124393  34.5409735  31.3222474  66.5549264  34.0620982  32.5844330
  66.1149855  34.0951663  31.9360161  58.5216746  35.1313006  48.3210944
  57.7289727  35.4456518  48.5063563  58.6365674  35.3464475  47.4831728
  58.4212157  35.2096843  48.2249278  61.1948065  31.8546997  32.6105960
  61.2894920  32.5936291  33.0645585  60.5706909  31.4264473  33.0440524
  61.1157095  31.9008318  32.7414107  59.4500539  35.0333210  43.2596240
  60.0239401  34.3960454  43.4144804  59.3715343  35.0337292  42.3905898
  59.5233774  34.9398321  43.1542651  48.0496956  31.8122419  37.0978955
  48.6270458  31.6758870  37.7371200  47.3511017  31.3558203  37.3524539
  48.0317977  31.7244686  37.2301244  61.4471087  33.6995737  25.8442912
  61.3651249  33.7697924  26.7097899  62.0850807  34.2625481  25.6526652
  61.5290924  33.7934708  25.9432861  54.8064258  33.4656475  35.3117438
  54.5483502  32.6328210  35.2848737  54.8612741  33.6914088  34.4709938
  54.7764036  33.3754246  35.1837575  59.8865308  25.5684926  35.4121531
  59.1821635  25.0794111  35.5705450  59.9350282  25.5807400  34.5409975
  59.7895360  25.4974574  35.3060870  53.7798970  31.0194237  35.7982333
  53.2048561  31.1786406  36.4346294  53.4034646  30.3829647  35.3350783
  53.6401782  30.9492050  35.8236891  57.4472259  29.4917587  40.6574711
  57.0586691  29.0671804  40.0026902  56.7826957  29.7399736  41.1651738
  57.2919186  29.4656308  40.6362579  67.0895528  29.2492591  33.4322541
  66.8332093  28.4372533  33.2420424  67.9324842  29.2570159  33.2052728
  67.1761553  29.1304589  33.3707358  43.5255789  30.6634312  33.8126773
  43.6116041  30.2866181  34.5940303  44.1531586  30.2894758  33.3346731
  43.6312340  30.5519794  33.8572251  61.2698620  23.1892215  38.1698695
  61.6509132  22.5070387  38.5566569  60.4661904  22.9001818  37.9874360
  61.2075082  23.0459264  38.2002751  58.5511197  33.7216191  28.8551518
  59.3651836  34.0131084  28.7434289  58.4870338  33.0676054  28.2809811
  58.6613936  33.6681386  28.7540355  64.7720687  36.4042187  43.2681094
  64.5359324  35.5730252  43.1493154  65.4163916  36.3527795  43.8535938
  64.8315358  36.2739875  43.3366987  54.4219105  37.1937709  33.9823830
  55.0593052  36.9549456  34.5275623  54.8474177  37.3974868  33.2476991
  54.5795271  37.1888719  33.9540987  49.1131748  39.4326045  37.8658134
  49.1535893  39.7040896  37.0377913  49.6726272  39.9567953  38.2815922
  49.2015093  39.5501800  37.8050022  55.0621920  32.4139999  28.3198719
  55.4467073  32.1947705  29.0715265  54.8133541  33.2402944  28.4499796
  55.0823993  32.5038145  28.4499796  55.2290461  25.6946414  48.0361304
  54.9143902  26.4645976  47.7730866  54.9080393  25.1316670  47.4513531
  55.1349380  25.7256682  47.9102654  56.8040577  37.6710131  35.6617616
  56.8779585  37.5085303  36.5159466  57.6210083  37.8600321  35.4178098
  56.9356936  37.6746874  35.7515642  71.4958900  32.8279637  38.6577732
  71.4283400  32.8475596  37.7880319  71.4814562  33.6709964  38.8833403
  71.4837656  32.9553372  38.5630209  50.5646334  38.0167994  32.6912060
  49.7384451  38.2629731  32.5646339  50.6258325  37.9380075  33.5574118
  50.4520501  38.0412943  32.8001004  52.7822358  24.0836935  33.6507500
  51.9144783  24.1559535  33.7165109  53.0697562  24.8859014  33.8395475
  52.6962106  24.2131082  33.6882267  61.9055246  24.2314795  41.9818822
  62.6508838  24.0424605  41.5682247  61.4892551  24.7573033  41.4232678
  61.9540221  24.2816940  41.8383395  55.3445163  40.6344874  30.3931090
  55.6343461  40.2433856  29.6690316  56.0748644  40.8161579  30.8336365
  55.4952047  40.6038688  30.3513897  69.2817517  31.6024023  36.9324327
  69.8325439  30.9692092  37.1721419  69.2661633  32.1339416  37.6239831
  69.3602714  31.5872971  37.0703185  55.9339908  35.4362620  41.4784220
  55.4351602  36.1478388  41.5569109  56.7440132  35.7563287  41.4402383
  55.9796015  35.5889469  41.4840789  53.2851078  42.6112257  33.4591239
  53.0651374  42.3209612  34.2517906  53.0645600  41.9527212  32.9309152
  53.2198673  42.4711965  33.4980148  52.1968026  34.6985573  35.7246941
  51.9081274  34.0723045  36.2592668  53.0651374  34.6405861  35.7911622
  52.2828278  34.5973118  35.8137896  62.9845923  29.8420357  36.0428923
  62.6410689  29.1210692  36.3936173  63.0838966  29.6334208  35.2007281
  62.9487966  29.7044560  35.9700603  55.4519034  43.9841647  32.2421932
  56.1043092  43.4518089  32.4712958  54.7544643  43.6310299  32.6289806
  55.4449752  43.8531170  32.3334100  52.4000299  36.3380824  31.6489306
  53.1546267  36.7193863  31.8624769  51.8070912  36.7891968  32.1036003
  52.4237013  36.4609652  31.7472185  63.4458952  36.3046061  31.5852911
  64.0116985  36.9639271  31.5011454  62.7986856  36.6495759  32.0569313
  63.4337709  36.4528002  31.6425668  54.8606966  28.2943665  46.7746519
  54.0506742  28.6001444  46.6636361  55.3381653  29.0149247  46.8899103
  54.8110445  28.4458266  46.7753590  53.7198526  37.5089386  37.0229422
  53.1979279  37.6489677  37.7081286  54.1072546  36.7500050  37.2131539
  53.7002226  37.4174910  37.1530498  50.7089710  27.5595194  31.0924376
  50.4214505  27.1896465  30.3556324  51.3960178  28.0290050  30.8308081
  50.7678607  27.5742164  30.9439452  59.9165531  39.2484845  31.0089990
  59.6752206  38.5152706  30.6017055  60.0966863  39.7971702  30.3556324
  59.9073155  39.2207236  30.8520213  55.1464851  34.5393405  32.4210913
  54.9507634  35.1468139  31.8271216  55.3699197  33.8461349  31.9402587
  55.1499492  34.5270930  32.2626993  53.5443381  31.4248143  32.5391781
  54.2666033  31.5889301  32.0795587  53.0651374  32.1457808  32.4331121
  53.5807112  31.5546372  32.4557395  61.5036889  27.7611942  37.9188466
  60.6647989  27.7873220  37.6826729  61.5741256  28.4082677  38.4993813
  61.3905282  27.8608067  37.9697583  51.1950998  33.8306215  41.6445921
  51.7072095  34.1090468  40.9954681  50.9087341  34.5695509  42.0108734
  51.2285861  33.9808569  41.6035799  59.9506167  24.6597319  32.6516082
  60.6532520  24.4605067  32.1736040  59.6850356  23.8873261  32.9584925
  60.0152799  24.5160285  32.6261523  48.2817904  28.3376407  31.9409657
  48.3834041  29.1402568  32.2690633  49.0773791  28.1363743  31.6432738
  48.4145810  28.4262306  31.9445013  54.7134723  25.9232604  41.7046962
  54.5217920  25.9387738  42.5546386  55.5633319  26.1196278  41.6813617
  54.8110445  25.9546955  41.8270257  49.0981636  28.4523585  39.6830779
  48.9567128  27.6007526  39.8075287  49.3822200  28.4952246  38.8592985
  49.1189482  28.3323335  39.5798403  59.2520229  30.2890675  33.8275267
  59.0054943  30.2086426  34.6612056  59.5805352  29.5044143  33.6337795
  59.2641472  30.1616941  33.9222790  61.4846363  33.2970410  43.8684430
  61.4794401  32.4250227  43.8726857  62.1907356  33.4958579  43.3953886
  61.5891367  33.1974284  43.7991465  55.2117256  33.0247394  43.2398250
  55.3560632  33.6048602  42.6041360  55.5592905  33.4023691  43.9448105
  55.2844717  33.1668098  43.2497245  57.3837173  32.2237562  41.0223382
  56.6360487  32.4168577  40.6171660  57.5378699  31.3982782  40.7847503
  57.2959601  32.1302674  40.9268788  54.2845011  41.2150166  40.1059277
  54.4334575  40.6553082  39.4532682  55.0645013  41.2942167  40.4891796
  54.4219105  41.1435731  40.0656226  64.6421650  36.3552288  28.3778548
  64.2628459  35.5689426  28.3707837  63.9787896  36.9039146  28.2350192
  64.4880125  36.3197112  28.3559345  56.8098312  41.3864809  41.3843768
  56.7341983  40.7173619  41.9394556  56.7388171  42.0882597  41.8984434
  56.7878918  41.3909716  41.5420616  57.6238950  26.1188113  41.9118786
  58.0811564  26.8512087  42.0391578  57.6995279  25.6954578  42.6706041
  57.7029920  26.1645351  42.0419862  49.8671942  26.3653933  43.0008229
  49.3314131  25.7534291  43.3168997  49.9289706  26.9402069  43.6541896
  49.7967574  26.3600861  43.1443656  62.0966276  19.2977988  35.7812629
  62.2149844  19.7554452  35.0479931  61.9228452  18.4923249  35.4948846
  62.0885447  19.2471760  35.6313562  57.4668559  39.9065808  32.2167374
  58.2318450  39.6375451  31.8950038  57.3646648  39.4215818  32.9337437
  57.5650054  39.7955372  32.2747201  55.5021328  28.1090217  38.7560610
  54.7117403  27.9281677  39.0777945  55.8981951  27.3317170  38.7390904
  55.4438204  27.9677678  38.8013158  59.9887219  36.9377991  24.1967323
  60.7560204  36.9978116  23.7873175  59.5418528  36.3658433  23.7123642
  60.0360646  36.8614567  24.0645034  60.8865015  35.7432647  36.4820056
  60.2110016  35.5117879  36.9833443  60.8957391  35.1353830  35.8562161
  60.7883519  35.6191572  36.4636208  58.0159159  30.5850476  43.2384109
  57.9518300  31.4460433  43.1104245  58.1556346  30.2682469  42.4379660
  58.0274629  30.6650643  43.1012321  62.8881749  38.5997780  28.7130233
  62.9701587  39.4064766  28.3891684  63.3731491  38.6193739  29.4371007
  62.9718907  38.7218442  28.7717132  56.6978252  33.2782615  37.3800311
  56.2740502  33.4787115  36.6439330  56.5223108  32.4311463  37.4924611
  56.6089133  33.1831397  37.2874002  56.1989946  44.7933128  39.8421769
  56.6885876  44.0943918  39.6597433  55.6274178  44.4956998  40.4297826
  56.1874476  44.6459352  39.9022810  51.9860697  33.7734667  32.8128284
  52.1425317  33.7081470  33.6684276  52.3261291  34.5483219  32.6006964
  52.0593932  33.8783865  32.9082878  58.5239842  33.1492550  31.6821647
  59.0655387  32.6462932  32.1460268  58.8386401  33.0957745  30.8711132
  58.6504239  33.0671971  31.6305459  62.3956949  37.3595198  48.7948559
  63.2091815  37.0880347  48.9553692  62.2351916  37.0602738  47.9908755
  62.4926898  37.2750124  48.6993965  56.6926292  38.5409902  28.9661675
  56.7619112  37.6824440  29.1054676  57.4714747  38.7581783  28.6380700
  56.8179142  38.4462766  28.9378832  59.6729111  28.0428855  41.7343948
  59.8871081  27.4039769  41.1807302  59.0563011  28.4874679  41.3051809
  59.6134441  28.0138999  41.5894379  61.0833779  40.9647603  33.1798169
  60.6913571  40.6614318  32.4621035  61.2386852  41.8016693  32.9903122
  61.0487369  41.0431440  33.0454666  48.5594959  30.9569617  33.1289051
  48.9393924  31.3754162  32.4649318  47.9850324  31.5383073  33.4357894
  48.5306284  31.1047476  33.0765792  61.8368199  29.6517920  42.6727255
  61.0244881  29.3443811  42.7540427  62.2958134  29.1716920  43.2369967
  61.7848584  29.5354413  42.7681849  61.2473454  37.5297592  33.1204199
  60.8888109  37.7012235  33.8968231  60.7612165  37.9910798  32.5632198
  61.1232151  37.6236563  33.1529468  59.0643840  21.1528791  36.7231290
  58.1937398  21.1267512  36.6764600  59.3184181  20.9805983  35.9057136
  58.9737400  21.1238934  36.5951427  56.0361819  33.2096758  25.6604433
  56.3254344  33.9861640  25.9348008  56.1233618  32.6985489  26.3618933
  56.0916076  33.2488676  25.8046931  58.9321707  31.0577992  47.4555957
  59.4021338  31.6820108  47.8423831  58.9783587  30.3894967  48.0149172
  59.0089583  31.0512672  47.5956028  56.0892981  23.1635019  38.1804761
  55.5731469  22.4715211  38.3056340  55.5286909  23.8305796  38.1267360
  55.9299494  23.1598277  38.1910827  58.1585214  23.7027979  40.0097613
  57.7716967  23.7277011  40.7911143  57.6718151  23.1369658  39.5572130
  58.0297723  23.6223730  40.0585517  62.4078193  38.4201488  44.0671400
  63.0457914  37.9261684  43.7333856  61.7652285  38.3478889  43.4823627
  62.4072420  38.3360497  43.9313755  57.8242356  20.5894965  42.3007873
  58.4535474  21.1255265  42.0228944  57.9928218  20.4972324  43.1521439
  57.9420150  20.6556327  42.3856401  57.6256271  25.3766159  44.5734285
  58.4529700  25.1051308  44.6292899  57.6464117  26.1727001  44.9298103
  57.7509121  25.4545914  44.6349468  62.4632450  39.1121296  40.7076757
  63.2524828  38.7610361  40.8278838  62.6376048  39.9257685  40.4453391
  62.6052732  39.1807154  40.6864625  52.2025760  32.5230022  37.7604546
  51.3613767  32.4233896  37.9683439  52.4115768  33.2925502  38.1118866
  52.1090453  32.6222065  37.8431860  49.6801327  30.1449559  35.5889296
  49.2858025  30.2192571  34.8139406  49.1241444  30.5307505  36.1397658
  49.5404140  30.2131334  35.5556956  61.3166274  23.1230853  35.2693175
  61.5215868  23.0553161  36.1150172  60.9892698  23.9289674  35.2014353
  61.2981522  23.2316794  35.3852830  56.0142425  30.4511421  37.0102143
  55.7105563  29.8967410  37.6112551  55.3121846  30.6303631  36.5230177
  55.8658635  30.3956204  37.0271849  55.0708522  27.7611941  31.5746845
  55.3468257  27.0430854  31.1624412  55.6707192  28.3596861  31.3667951
  55.2001787  27.7432312  31.4827606  54.0760776  37.6661142  41.7174241
  53.9681131  37.6763204  42.5836299  54.2856558  38.4915922  41.5279195
  54.0910887  37.7902217  41.8178332  64.5699962  23.6762617  34.7495941
  63.9574276  24.1633019  35.1349672  64.6664137  23.0006108  35.2933592
  64.4937860  23.6480926  34.8874799  58.5719043  25.4325458  29.8493440
  59.0262789  25.6036019  30.5741284  59.0459089  24.8193569  29.4491216
  58.7087363  25.3676344  29.8967201  52.0934568  34.9173784  39.1796178
  51.5022502  35.5583283  39.1499194  52.8555592  35.3411402  39.1527478
  52.1182829  35.0749623  39.1711326  52.4895191  26.0775782  39.8464196
  52.9496673  26.1514712  40.5839320  52.5351298  26.8757036  39.4964017
  52.5645746  26.2069929  39.9036953  54.1378541  26.7442477  44.4136223
  53.7464106  26.0975824  44.8492001  54.3064404  27.3353912  45.0330479
  54.1049451  26.7356745  44.5698929  61.8524085  40.3683096  36.6128203
  61.6543773  40.8573910  35.9184414  61.2311796  40.5724337  37.1912336
  61.7311649  40.4699634  36.5951426  55.9132063  32.1367993  30.9538447
  56.6574108  32.5242269  31.1921397  56.0592759  31.2925418  31.1178935
  56.0442648  32.0698466  31.0132417  57.8311638  23.9318252  35.9870309
  56.9847683  24.1041060  35.8611658  57.8282771  23.1267595  36.3236137
  57.7058788  23.8379281  36.0181436  58.9009939  27.7093466  36.8532366
  58.4269893  27.1835228  37.3637677  59.2728075  27.1622939  36.2847228
  58.8859828  27.5509463  36.8447514  49.2782969  29.7064973  42.2215912
  50.1408582  29.6060682  42.1353242  48.9474752  29.1259682  41.6601484
  49.3568165  29.6056600  42.1261318  60.8293438  28.6030021  29.9158120
  60.3016457  28.6858765  29.2263829  61.2889147  29.3447892  29.9122765
  60.8195289  28.7250683  29.8132815  67.1651856  29.5497299  36.2168406
  66.9261626  29.5093133  35.3789191  67.3285758  30.3968451  36.3434127
  67.1542160  29.6689384  36.1121888  52.6384755  28.5307422  38.8826330
  52.0137825  28.5425814  38.2752283  52.3030350  29.0067597  39.5317571
  52.4970247  28.6025939  38.8882899  52.8226504  26.8732540  24.9399015
  52.4739308  27.5252266  25.4030565  52.3422949  26.8589653  24.2122887
  52.6996747  26.9675594  24.9010107  49.3510430  36.5907882  40.3230095
  48.8210355  35.9000321  40.3725069  49.6235524  36.5818067  39.4942803
  49.3135153  36.4875014  40.2077511  60.3830521  37.1733584  29.0467777
  61.1064720  37.6391697  28.9032351  59.9431112  37.2407194  28.2965374
  60.4246213  37.2517421  28.9152559  59.5516676  34.0331127  40.2968466
  58.9373669  33.4889177  40.5917102  60.0683961  33.5195363  39.8174282
  59.5372338  33.8767536  40.2692695  58.7912973  35.1035397  38.0312765
  58.3640581  34.4785115  37.5978200  58.7837918  34.8210318  38.8571772
  58.7272114  34.9688177  38.0892593  51.9075500  30.1400570  41.1001199
  52.0668987  29.3843894  41.5052921  51.7268394  30.6891509  41.7541937
  51.9040859  30.1094383  41.2563905  59.8495803  22.3061805  41.6551988
  59.3536364  22.5025479  40.9643555  60.6064865  22.7054473  41.4840790
  59.8882628  22.3939539  41.5272125  57.1198683  25.9804151  38.2455299
  57.1441170  25.4464263  37.5568079  57.3710156  25.4721460  38.9080890
  57.1608602  25.8265055  38.2419944  44.6306273  33.2635646  37.6798443
  44.5249722  33.2182490  36.8150527  43.8806493  33.6089427  37.9612728
  44.5041876  33.3076554  37.5935773  53.4000005  24.7074969  37.6261043
  53.4398377  25.2084176  38.3395751  52.5749670  24.7985363  37.3566966
  53.2839531  24.7956786  37.6911582  55.5829618  34.2735709  45.7281338
  54.7325248  34.4107424  45.8638983  55.7457746  33.5399488  46.1729040
  55.4813481  34.1849811  45.8136937  54.8214368  31.2235479  39.9234942
  53.9906298  31.3909297  39.7170190  54.7665886  30.8471430  40.7083828
  54.6903783  31.1925210  40.0083470  52.6298152  24.7144372  45.5591353
  53.2550855  24.1706505  45.8320785  52.1748632  24.2339290  44.9899143
  52.6546412  24.5633853  45.5152947  53.1950412  29.4991071  30.4525060
  53.3353373  29.9963535  31.1553701  53.6932945  28.7977365  30.5939274
  53.2891493  29.4693049  30.5776639  53.2250635  30.3658182  27.7817637
  53.8595714  30.9618607  27.7167099  53.3076245  30.0661639  28.5963507
  53.3307186  30.4099090  27.8920723  54.8029618  26.2972157  27.7563079
  55.1245459  25.8175240  27.1022341  55.0656561  27.1071803  27.5653890
  54.8895643  26.3462055  27.6318571  58.0326590  37.3191031  41.2761895
  57.5251681  37.8726878  41.7202525  57.7353236  37.3799321  40.4580669
  57.9131475  37.4097343  41.2210352  60.1988773  25.6844351  40.1186558
  60.6243844  25.2316878  39.5070084  59.5845766  25.1304422  40.3951345
  60.1717418  25.5358327  40.0691583  49.7303623  32.5626022  31.0507183
  50.2395852  33.1590530  31.4318488  50.2037895  32.2951996  30.3683602
  49.8746998  32.6111838  31.0061706  60.6434371  41.2354289  29.2065838
  59.9263680  41.0615151  28.7413076  61.2941108  41.0006861  28.6741324
  60.6336221  41.1750082  29.0595056  58.6382995  22.1559451  33.5277135
  57.9951313  22.0057097  34.0962273  58.2982402  21.9101796  32.7626240
  58.4928073  22.0971573  33.4980150  63.2282342  30.1118878  32.9507143
  62.5573532  30.6548580  32.8220209  63.9222092  30.5813733  32.7088838
  63.2311209  30.2617149  32.8962671  57.2769076  42.2515590  38.1818902
  57.0534730  41.4934419  38.5502928  56.7878919  42.2813611  37.4599341
  57.1712525  42.1437814  38.1295643  63.3910469  26.5674761  35.8597517
  63.7438079  26.1404484  36.5343315  62.5325271  26.4825605  35.9898593
  63.3159914  26.4919502  35.9792527  52.0894154  29.1982281  33.9180363
  51.3706143  29.6146414  34.1853227  52.4606517  29.7636520  33.3672001
  52.0386086  29.3431562  33.8763170  61.3893735  29.8310130  39.8082359
  61.3691662  29.6493425  40.6617138  61.4372936  30.7022148  39.7841943
  61.3928376  29.9326668  39.9305654  59.3340065  36.4197322  45.7330836
  59.2935920  35.7746999  45.1475991  60.1463383  36.3633939  46.0456248
  59.4483218  36.3156289  45.6927785  55.9247533  42.4716048  35.6355986
  55.5107931  41.8090178  35.2459828  56.6094907  42.6193907  35.1151681
  55.9645904  42.3956706  35.5012484  59.2912827  41.6306133  36.3879603
  58.8929110  41.7408403  35.6200423  58.6764046  41.8388199  36.9706163
  59.1411716  41.6779701  36.3610902  57.8640729  28.2380281  29.2553743
  57.2705568  28.5597277  28.7038310  57.9016006  27.3921376  29.0474849
  57.7815118  28.1604609  29.1436514  64.8234529  21.6893173  36.7881829
  64.3165394  20.9822313  36.7203007  65.6201963  21.3586362  36.9182906
  64.8661769  21.5366325  36.7980824  60.7398545  28.1959785  32.6855493
  60.5112238  28.2192487  31.8433851  60.9996621  27.3717252  32.8050503
  60.7444733  28.0775865  32.5780691  55.0217774  30.0494258  42.2880593
  54.5096677  29.4415441  42.6465625  54.8497270  30.7650851  42.7554569
  54.9207411  30.0657558  42.4096817  49.8683488  28.4931834  44.9382955
  49.6986079  29.1533209  44.3931162  49.4249438  28.7038395  45.6595444
  49.7782822  28.6217816  44.9644584  53.7943308  26.7336332  33.9809689
  54.2700674  27.0953412  33.3459870  53.2931907  27.3892799  34.2609831
  53.7908667  26.8830521  33.9286430  67.0254669  36.2058100  29.7722694
  67.4088275  36.9549456  30.0020791  66.2298783  36.4523920  29.5134683
  66.9648452  36.3527794  29.7680267  58.8986844  27.9718503  44.7282849
  59.4558274  27.7432313  44.0961314  58.5747909  28.7324169  44.4518061
  58.9333254  28.0502340  44.5939346  46.7685553  31.3978699  40.1971445
  46.2212272  30.7279345  40.3152313  47.5577931  31.0308547  40.2614912
  46.8037737  31.2443686  40.2240145  56.6169961  31.0586156  45.6934856
  57.3681288  31.3737833  46.0074410  56.8092538  30.8565327  44.8668778
  56.7561375  31.0753538  45.6178252  55.8369961  28.8777532  27.3483073
  56.2168926  28.8957161  26.5634187  55.0962557  29.3231520  27.2273920
  55.7838799  28.9459306  27.2146641  63.4655251  27.1859723  32.9358651
  63.4649478  27.0308379  33.7942928  63.2611431  28.0322710  32.8800037
  63.4355029  27.2880343  33.0546591  45.5272522  30.6099507  37.3517468
  45.3494283  30.1576116  38.0772383  45.2391545  31.4125669  37.5355945
  45.4585476  30.6622065  37.4860971  61.1896103  31.8657225  36.5894858
  61.6849769  31.1480220  36.5498878  60.3795879  31.5628022  36.4749345
  61.1439997  31.7154871  36.5668584  56.6354715  35.7155038  28.7391863
  55.8266038  35.3921711  28.6925172  57.1429624  35.0088260  28.6720111
  56.5904382  35.5636354  28.7222157  47.2644992  33.1427231  34.4639227
  46.3990512  33.1312921  34.3521998  47.3643808  32.9557454  35.3110366
  47.1519159  33.1133292  34.5728171  52.8902002  42.9125130  38.0369332
  53.2048561  43.7261518  38.0447114  53.2995415  42.5275348  38.7051492
  52.9970100  42.9753832  38.1373424  59.8426522  38.3295176  35.6073144
  60.3137700  39.0435439  35.7763130  60.1786700  37.7293926  36.1433014
  59.9621637  38.3466641  35.7105520  61.9303506  39.9396490  47.7865216
  62.0400472  39.1505050  48.1421964  62.2594403  39.8502426  46.9839555
  61.9955912  39.8102343  47.7207607  56.7596017  23.1022647  42.5631239
  56.8923922  22.3053640  42.8912215  57.1441169  23.6289050  43.1429515
  56.8352346  23.0622564  42.6974742  60.4800468  38.1213110  42.3700837
  59.9321414  37.4970994  42.1020902  60.9413497  38.3107383  41.6544916
  60.4667678  38.0572161  42.2251268  59.8328372  20.0252973  39.1612332
  59.0274336  19.9150703  39.4780171  59.7035107  20.1265429  38.3042198
  59.6948505  20.0236643  39.0820373  63.2894332  26.1898465  39.7552029
  62.7057321  26.6907671  39.3429597  63.6098627  25.6828021  39.1216353
  63.2507508  26.1890300  39.6010537  55.8289132  25.1039060  30.0310704
  56.6504826  25.2737373  29.7892399  55.3658783  25.2586321  29.3077002
  55.8820294  25.1520793  29.8882348  54.4184463  23.0981822  40.8109133
  54.9628876  22.7572949  41.4013475  54.4721399  23.9567284  40.9530417
  54.5073583  23.1737081  40.9191006  50.2315022  36.8598238  37.6847941
  50.8359880  36.8194072  37.0561762  50.0242335  37.7069390  37.7151997
  50.2903920  36.9786241  37.5964057  60.0458794  39.1264183  38.9010178
  60.8657168  38.9827149  39.1626473  59.7652872  39.7510382  39.4426616
  60.1255538  39.1974535  39.0198118  45.4666305  35.8432856  37.5546864
  45.3690583  35.0329127  37.8636921  46.2495174  35.8224649  37.1693132
  45.5682441  35.7199946  37.5433727  76.5172445  46.7829035  31.8653055
  76.4866449  47.6373672  32.0371324  77.1153794  46.4824327  32.4239198
  76.6009603  46.8645531  31.9727857  64.1013269  55.4067404  32.3843217
  63.3496169  55.0282942  32.1559262  64.5499281  55.4385837  31.6362027
  64.0562936  55.3553011  32.2400719  73.0265846  52.1391212  46.2266441
  73.7332613  51.6443242  46.3553376  73.2153782  52.5800293  45.4969099
  73.1593752  52.1309562  46.1375487  69.5538229  55.8292773  27.8128764
  69.2189598  56.5069695  27.3772986  70.0665100  55.4398085  27.2245635
  69.5803810  55.8717351  27.6615555  69.0942521  57.7807042  33.7539875
  69.4781900  58.3493941  33.2144650  69.0301662  57.0556552  33.2745691
  69.1415948  57.7582505  33.6033738  65.6798025  55.4185796  34.6505989
  65.7808388  54.6086150  34.9603117  65.0839771  55.3242742  34.0205668
  65.6070564  55.2850824  34.6032228  74.3389019  49.3581337  30.1371364
  74.2228545  50.1089023  30.5663503  75.1344906  49.1005290  30.3867451
  74.4393609  49.4316184  30.2375456  65.5198765  60.3363385  36.0520845
  66.1636221  60.7776549  36.4417003  65.8455021  59.5316811  35.9651104
  65.6630594  60.2828580  36.0966322  58.8763070  51.4406082  34.2758323
  58.6413254  50.6073735  34.1690592  59.0148711  51.7210748  33.4619524
  58.8618732  51.3589586  34.1400678  61.1753157  43.6091813  37.1742630
  60.5558189  43.0184460  37.0052645  61.0737021  44.2003248  36.5406954
  61.0690833  43.6095896  37.0547620  66.2219345  53.3475360  31.4240707
  66.5435186  53.8880567  30.8202015  66.8691441  52.7772131  31.5562997
  66.3645400  53.3434535  31.3547742  68.2721053  45.3491355  31.5075094
  68.9701218  45.5279482  31.9996557  68.5873385  44.8261694  30.8845483
  68.4216390  45.2985127  31.4877104  60.9022290  47.1544095  39.4186199
  60.7780987  47.7406540  40.0536018  61.5540575  46.6604290  39.7198474
  60.9795940  47.1682899  39.5572129  68.4608988  51.7361800  31.4954885
  68.9002624  51.1278900  31.9409658  68.3113651  51.3569173  30.7240350
  68.5030454  51.5900271  31.4474052  65.9280631  50.3305812  38.6973710
  66.5729634  49.8378255  38.3784659  66.1682408  50.4730598  39.5239789
  66.0591216  50.2783254  38.7723244  68.4666723  53.1760718  38.3480603
  68.7489965  52.3812123  38.1267359  69.1952883  53.6541305  38.3685664
  68.6156286  53.1295315  38.3183618  72.0618325  50.0888981  28.4485654
  71.9769620  50.9449948  28.5935223  72.5502708  49.8133305  29.1167813
  72.1207222  50.1746303  28.5687736  72.9936758  46.7073775  29.9483389
  72.4648230  46.9233409  30.6080696  73.5161778  47.4009914  29.8684359
  72.9925211  46.8416912  30.0338989  78.4484811  52.2820080  35.3216434
  77.6182514  52.4930723  35.4849850  78.3994063  51.4557134  35.0458717
  78.3191546  52.1909686  35.3053799  64.8836366  50.6036992  28.7490857
  64.2993581  51.1087024  29.1556721  64.4806461  50.3779379  28.0087449
  64.7375670  50.6445240  28.6995883  60.4380394  56.3191753  35.5514529
  59.9547973  57.0442243  35.5274112  61.2503713  56.6167883  35.6624687
  60.4871142  56.4694107  35.5641808  66.5094549  55.1123934  38.1564343
  65.9921490  54.7531349  37.5525651  67.2068940  54.5886108  38.1670409
  66.5360130  54.9821622  38.0694602  70.1658141  55.5618748  44.1180516
  70.2541486  55.3744888  44.9658727  70.5947853  54.9156178  43.7185363
  70.2420243  55.4381756  44.1852268  67.7328600  54.8449908  43.0998179
  67.1699435  54.4322518  43.6237840  68.4949624  54.7702814  43.5191322
  67.7623049  54.7727309  43.2391179  69.3413580  46.8502644  27.2259778
  69.5809584  47.0580628  26.4135121  69.6629421  46.0460153  27.3348722
  69.4250738  46.7616745  27.1220331  64.6503871  38.7796040  31.0719316
  65.4049839  39.1474357  30.8336366  64.4731405  39.1535594  31.8398495
  64.7358349  38.8894228  31.1504204  63.2924592  56.8347929  35.7034809
  63.9945171  56.3199918  35.7607565  63.2122075  57.1622081  36.5081684
  63.3848352  56.8062155  35.8307601  77.9438769  44.9290480  39.1166855
  77.1067190  44.9992668  39.3514450  77.9127000  44.9314975  38.2441158
  77.8157052  44.9400707  39.0226403  64.3403498  47.0723516  44.8315224
  64.5124002  46.9629411  45.6800505  64.8772856  47.7177922  44.5946416
  64.4448502  47.1515518  44.9220321  63.0060935  41.1866359  27.7697429
  62.8236508  41.4038240  26.9438422  63.8686548  41.3005372  27.8256043
  63.1065525  41.2356257  27.6551916  62.6175367  53.0254281  35.2120417
  63.4564267  53.2577214  35.2594178  62.6487136  52.1558593  35.1427452
  62.7457085  52.9311228  35.2085061  63.2428070  53.4455156  39.5133722
  63.7826295  53.3026287  40.1837095  62.5598016  53.8451907  39.8817749
  63.2220224  53.4834827  39.6668144  68.6860654  38.1892770  30.8046453
  69.4146815  38.0108725  30.3584609  68.7755547  39.0310849  31.0153631
  68.8067316  38.2876648  30.7699970  72.6668955  49.1246157  34.7078747
  73.4226470  49.5577671  34.7467655  72.7731280  48.4750927  35.2813383
  72.7939126  49.0923641  34.7976772  75.7049126  52.9519434  35.4581150
  75.2684358  52.9556177  36.2140121  75.3712042  53.6324933  35.0260727
  75.5911746  53.0531890  35.5061982  70.2778200  54.9927767  46.7824300
  71.0618616  55.1058615  47.1480042  70.0774794  54.1668904  46.9782986
  70.3644225  54.8874486  46.8658686  58.6465215  49.6655447  39.6668144
  58.3803630  48.8494564  39.8259134  58.6603779  49.7108603  38.7963659
  58.6089938  49.5512352  39.5621626  62.5522962  44.4640532  26.2819902
  61.8381139  44.1778711  26.6942334  63.0366931  44.8037157  26.9226289
  62.5182326  44.4722181  26.4375537  63.3963822  43.2033825  42.3135152
  62.7035618  42.7330805  42.5595883  64.0124149  42.9772130  42.8876859
  63.3848352  43.1000957  42.4344304  70.4348593  56.9037869  40.4290756
  69.6363839  56.6637369  40.6864624  70.8834605  56.9552262  41.1757803
  70.3823204  56.8760260  40.5775680  78.8393472  49.6700354  34.3500787
  79.5009906  49.1091023  34.2496695  78.1984884  49.1752385  34.6753478
  78.8422340  49.5136763  34.3833127  69.7270280  52.9670486  26.6581710
  70.1421429  52.6355509  25.9666206  68.8962210  52.7339388  26.5301847
  69.6658289  52.8841741  26.5372558  59.0558629  50.4514227  36.9479888
  58.8734202  50.4261113  36.0952180  59.7908298  50.9213164  36.9868797
  59.1372693  50.5175589  36.8277807  75.1258303  50.6865737  34.0912776
  75.3613892  50.8310935  33.2639626  75.2747867  51.4508145  34.4844289
  75.1824106  50.8204791  34.0276380  62.1204381  47.1699229  43.4561997
  62.8444353  47.1552260  43.9426891  62.2220517  47.8794585  42.9583965
  62.2422590  47.2723933  43.4540784  76.9548760  49.5267402  31.9282379
  77.2856977  50.0595043  31.3222474  77.5281848  49.5806290  32.5844330
  77.0882439  49.6136971  31.9360161  69.4949330  50.6498314  48.3210944
  68.7022311  50.9641826  48.5063563  69.6098257  50.8649782  47.4831728
  69.3944741  50.7282151  48.2249278  72.1680649  47.3732305  32.6105960
  72.2627503  48.1121599  33.0645585  71.5439492  46.9449781  33.0440524
  72.0889679  47.4193626  32.7414107  70.4233123  50.5518518  43.2596240
  70.9971984  49.9145762  43.4144804  70.3447927  50.5522600  42.3905898
  70.4966358  50.4583629  43.1542651  59.0229539  47.3307727  37.0978955
  59.6003042  47.1944178  37.7371200  58.3243601  46.8743511  37.3524539
  59.0050561  47.2429993  37.2301244  72.4203670  49.2181045  25.8442912
  72.3383833  49.2883232  26.7097899  73.0583391  49.7810789  25.6526652
  72.5023508  49.3120016  25.9432861  65.7796841  48.9841783  35.3117438
  65.5216086  48.1513518  35.2848737  65.8345324  49.2099396  34.4709938
  65.7496619  48.8939554  35.1837575  64.7531554  46.5379545  35.7982333
  64.1781145  46.6971714  36.4346294  64.3767230  45.9014954  35.3350783
  64.6134366  46.4677358  35.8236891  78.0628111  44.7677899  33.4322541
  77.8064676  43.9557841  33.2420424  78.9057425  44.7755466  33.2052728
  78.1494137  44.6489897  33.3707358  54.4988372  46.1819620  33.8126773
  54.5848624  45.8051488  34.5940303  55.1264170  45.8080066  33.3346731
  54.6044923  46.0705102  33.8572251  69.5243780  49.2401499  28.8551518
  70.3384419  49.5316392  28.7434289  69.4602922  48.5861362  28.2809811
  69.6346519  49.1866694  28.7540355  75.7453271  51.9227495  43.2681094
  75.5091908  51.0915560  43.1493154  76.3896500  51.8713103  43.8535938
  75.8047941  51.7925183  43.3366987  65.3951689  52.7123017  33.9823830
  66.0325636  52.4734764  34.5275623  65.8206760  52.9160176  33.2476991
  65.5527855  52.7074027  33.9540987  60.0864331  54.9511353  37.8658134
  60.1268476  55.2226204  37.0377913  60.6458855  55.4753261  38.2815922
  60.1747677  55.0687108  37.8050022  66.0354504  47.9325306  28.3198719
  66.4199656  47.7133013  29.0715265  65.7866124  48.7588252  28.4499796
  66.0556576  48.0223453  28.4499796  76.7689691  51.7071944  39.3309388
  76.4635508  52.4400001  39.6922704  76.0495907  51.3009874  39.0502174
  76.6177034  51.7553677  39.3422525  67.7773161  53.1895439  35.6617616
  67.8512169  53.0270611  36.5159466  68.5942667  53.3785629  35.4178098
  67.9089519  53.1932182  35.7515642  82.4691483  48.3464945  38.6577732
  82.4015984  48.3660904  37.7880319  82.4547146  49.1895272  38.8833403
  82.4570240  48.4738679  38.5630209  61.5378917  53.5353302  32.6912060
  60.7117035  53.7815039  32.5646339  61.5990909  53.4565383  33.5574118
  61.4253084  53.5598251  32.8001004  66.3177746  56.1530182  30.3931090
  66.6076045  55.7619164  29.6690316  67.0481227  56.3346887  30.8336365
  66.4684631  56.1223996  30.3513897  80.2550101  47.1209331  36.9324327
  80.8058022  46.4877400  37.1721419  80.2394216  47.6524724  37.6239831
  80.3335297  47.1058279  37.0703185  66.9072492  50.9547928  41.4784220
  66.4084185  51.6663696  41.5569109  67.7172716  51.2748595  41.4402383
  66.9528598  51.1074777  41.4840789  64.2583662  58.1297565  33.4591239
  64.0383957  57.8394920  34.2517906  64.0378184  57.4712520  32.9309152
  64.1931256  57.9897273  33.4980148  63.1700609  50.2170881  35.7246941
  62.8813858  49.5908353  36.2592668  64.0383957  50.1591169  35.7911622
  63.2560861  50.1158426  35.8137896  73.9578507  45.3605665  36.0428923
  73.6143273  44.6396000  36.3936173  74.0571550  45.1519516  35.2007281
  73.9220550  45.2229868  35.9700603  66.4251618  59.5026955  32.2421932
  67.0775676  58.9703397  32.4712958  65.7277226  59.1495607  32.6289806
  66.4182336  59.3716478  32.3334100  63.3732883  51.8566132  31.6489306
  64.1278851  52.2379171  31.8624769  62.7803495  52.3077276  32.1036003
  63.3969596  51.9794960  31.7472185  74.4191536  51.8231369  31.5852911
  74.9849569  52.4824579  31.5011454  73.7719439  52.1681067  32.0569313
  74.4070292  51.9713310  31.6425668  65.8339550  43.8128973  46.7746519
  65.0239325  44.1186752  46.6636361  66.3114236  44.5334555  46.8899103
  65.7843028  43.9643574  46.7753590  64.6931109  53.0274694  37.0229422
  64.1711863  53.1674985  37.7081286  65.0805129  52.2685358  37.2131539
  64.6734810  52.9360218  37.1530498  61.6822293  43.0780502  31.0924376
  61.3947089  42.7081773  30.3556324  62.3692761  43.5475358  30.8308081
  61.7411190  43.0927472  30.9439452  70.8898114  54.7670153  31.0089990
  70.6484790  54.0338014  30.6017055  71.0699447  55.3157010  30.3556324
  70.8805738  54.7392544  30.8520213  66.1197435  50.0578713  32.4210913
  65.9240217  50.6653447  31.8271216  66.3431780  49.3646657  31.9402587
  66.1232076  50.0456238  32.2626993  64.5175965  46.9433451  32.5391781
  65.2398617  47.1074609  32.0795587  64.0383958  47.6643115  32.4331121
  64.5539695  47.0731680  32.4557395  62.1683581  49.3491523  41.6445921
  62.6804678  49.6275776  40.9954681  61.8819924  50.0880817  42.0108734
  62.2018445  49.4993877  41.6035799  76.3526996  48.4865236  35.2049708
  76.2660971  48.6420662  36.0584487  75.8977476  49.1303312  34.8309113
  76.2730253  48.6040991  35.2756814  59.2550488  43.8561715  31.9409657
  59.3566624  44.6587876  32.2690633  60.0506375  43.6549051  31.6432738
  59.3878393  43.9447614  31.9445013  60.0714220  43.9708893  39.6830779
  59.9299712  43.1192834  39.8075287  60.3554783  44.0137554  38.8592985
  60.0922066  43.8508643  39.5798403  70.2252812  45.8075983  33.8275267
  69.9787527  45.7271734  34.6612056  70.5537935  45.0229451  33.6337795
  70.2374056  45.6802249  33.9222790  74.1200861  52.5159343  37.6162048
  73.9815220  53.2140388  38.1210791  73.3400859  52.3607999  37.2598230
  73.9844088  52.5959509  37.6388323  72.4578946  48.8155718  43.8684430
  72.4526985  47.9435535  43.8726857  73.1639940  49.0143887  43.3953886
  72.5623950  48.7159592  43.7991465  66.1849840  48.5432702  43.2398250
  66.3293215  49.1233910  42.6041360  66.5325488  48.9208999  43.9448105
  66.2577301  48.6853406  43.2497245  68.3569757  47.7422870  41.0223382
  67.6093071  47.9353885  40.6171660  68.5111282  46.9168090  40.7847503
  68.2692184  47.6487982  40.9268788  65.2577595  56.7335474  40.1059277
  65.4067158  56.1738390  39.4532682  66.0377597  56.8127475  40.4891796
  65.3951688  56.6621039  40.0656226  75.6154234  51.8737596  28.3778548
  75.2361043  51.0874734  28.3707837  74.9520479  52.4224453  28.2350192
  75.4612709  51.8382420  28.3559345  67.7830895  56.9050117  41.3843768
  67.7074566  56.2358927  41.9394556  67.7120754  57.6067905  41.8984434
  67.7611502  56.9095024  41.5420616  60.8404525  41.8839241  43.0008229
  60.3046715  41.2719599  43.3168997  60.9022290  42.4587377  43.6541896
  60.7700158  41.8786168  43.1443656  68.4401142  55.4251115  32.2167374
  69.2051033  55.1560759  31.8950038  68.3379232  54.9401126  32.9337437
  68.5382638  55.3140680  32.2747201  70.9619803  52.4563299  24.1967323
  71.7292788  52.5163424  23.7873175  70.5151112  51.8843741  23.7123642
  71.0093230  52.3799875  24.0645034  71.8597598  51.2617955  36.4820056
  71.1842600  51.0303187  36.9833443  71.8689974  50.6539138  35.8562161
  71.7616103  51.1376880  36.4636208  73.8614333  54.1183087  28.7130233
  73.9434170  54.9250074  28.3891684  74.3464075  54.1379047  29.4371007
  73.9451491  54.2403750  28.7717132  67.6710836  48.7967923  37.3800311
  67.2473085  48.9972422  36.6439330  67.4955691  47.9496771  37.4924611
  67.5821717  48.7016705  37.2874002  67.1722529  60.3118436  39.8421769
  67.6618460  59.6129226  39.6597433  66.6006762  60.0142306  40.4297826
  67.1607059  60.1644660  39.9022810  62.9593281  49.2919975  32.8128284
  63.1157900  49.2266778  33.6684276  63.2993874  50.0668527  32.6006964
  63.0326516  49.3969173  32.9082878  69.4972426  48.6677858  31.6821647
  70.0387971  48.1648239  32.1460268  69.8118985  48.6143053  30.8711132
  69.6236823  48.5857279  31.6305459  73.3689533  52.8780506  48.7948559
  74.1824398  52.6065655  48.9553692  73.2084499  52.5788046  47.9908755
  73.4659481  52.7935432  48.6993965  67.6658875  54.0595210  28.9661675
  67.7351696  53.2009748  29.1054676  68.4447330  54.2767091  28.6380700
  67.7911725  53.9648074  28.9378832  72.0566363  56.4832911  33.1798169
  71.6646155  56.1799626  32.4621035  72.2119435  57.3202001  32.9903122
  72.0219953  56.5616748  33.0454666  59.5327542  46.4754925  33.1289051
  59.9126507  46.8939470  32.4649318  58.9582907  47.0568381  33.4357894
  59.5038867  46.6232784  33.0765792  72.2206038  53.0482900  33.1204199
  71.8620692  53.2197543  33.8968231  71.7344748  53.5096106  32.5632198
  72.0964735  53.1421871  33.1529468  67.0094403  48.7282065  25.6604433
  67.2986928  49.5046948  25.9348008  67.0966202  48.2170797  26.3618933
  67.0648659  48.7673984  25.8046931  69.9054290  46.5763300  47.4555957
  70.3753922  47.2005416  47.8423831  69.9516171  45.9080275  48.0149172
  69.9822166  46.5697980  47.5956028  73.3810777  53.9386796  44.0671400
  74.0190498  53.4446992  43.7333856  72.7384869  53.8664196  43.4823627
  73.3805004  53.8545805  43.9313755  73.4365034  54.6306604  40.7076757
  74.2257412  54.2795669  40.8278838  73.6108631  55.4442993  40.4453391
  73.5785315  54.6992461  40.6864625  63.1758344  48.0415330  37.7604546
  62.3346351  47.9419204  37.9683439  63.3848352  48.8110810  38.1118866
  63.0823037  48.1407373  37.8431860  60.6533911  45.6634867  35.5889296
  60.2590609  45.7377879  34.8139406  60.0974028  46.0492813  36.1397658
  60.5136723  45.7316642  35.5556956  66.9875009  45.9696729  37.0102143
  66.6838146  45.4152717  37.6112551  66.2854430  46.1488939  36.5230177
  66.8391219  45.9141512  37.0271849  66.0441106  43.2797249  31.5746845
  66.3200840  42.5616162  31.1624412  66.6439775  43.8782169  31.3667951
  66.1734371  43.2617620  31.4827606  65.0493360  53.1846450  41.7174241
  64.9413715  53.1948512  42.5836299  65.2589141  54.0101230  41.5279195
  65.0643471  53.3087525  41.8178332  69.5451626  40.9510766  29.8493440
  69.9995373  41.1221327  30.5741284  70.0191672  40.3378877  29.4491216
  69.6819947  40.8861652  29.8967201  63.0667152  50.4359092  39.1796178
  62.4755085  51.0768591  39.1499194  63.8288175  50.8596710  39.1527478
  63.0915413  50.5934931  39.1711326  63.4627775  41.5961090  39.8464196
  63.9229256  41.6700020  40.5839320  63.5083881  42.3942344  39.4964017
  63.5378330  41.7255237  39.9036953  65.1111124  42.2627785  44.4136223
  64.7196690  41.6161132  44.8492001  65.2796987  42.8539220  45.0330479
  65.0782035  42.2542053  44.5698929  79.1857573  50.2664862  40.1773457
  79.2440697  50.7151511  40.9233433  78.5524041  50.6763675  39.7403537
  79.1008869  50.3938597  40.2226005  72.8256668  55.8868404  36.6128203
  72.6276357  56.3759218  35.9184414  72.2044379  56.0909645  37.1912336
  72.7044233  55.9884942  36.5951426  66.8864646  47.6553301  30.9538447
  67.6306691  48.0427577  31.1921397  67.0325343  46.8110726  31.1178935
  67.0175232  47.5883774  31.0132417  60.2515552  45.2250281  42.2215912
  61.1141166  45.1245990  42.1353242  59.9207335  44.6444990  41.6601484
  60.3300749  45.1241907  42.1261318  76.1379253  48.2881150  38.2639147
  75.8977476  47.4487565  38.2681573  76.6171260  48.3681316  38.9879921
  76.1731437  48.1762549  38.3713949  71.8026022  44.1215329  29.9158120
  71.2749041  44.2044073  29.2263829  72.2621730  44.8633200  29.9122765
  71.7927872  44.2435991  29.8132815  78.1384440  45.0682607  36.2168406
  77.8994210  45.0278441  35.3789191  78.3018341  45.9153759  36.3434127
  78.1274743  45.1874692  36.1121888  74.7430470  49.4532556  42.1473451
  75.4664669  49.0005083  41.9684471  74.4780432  49.7337222  41.3645779
  74.8111743  49.4283525  42.0052167  63.6117338  44.0492730  38.8826330
  62.9870409  44.0611122  38.2752283  63.2762933  44.5252905  39.5317571
  63.4702830  44.1211247  38.8882899  63.7959087  42.3917848  24.9399015
  63.4471891  43.0437573  25.4030565  63.3155533  42.3774961  24.2122887
  63.6729331  42.4860902  24.9010107  60.3243014  52.1093190  40.3230095
  59.7942939  51.4185629  40.3725069  60.5968107  52.1003375  39.4942803
  60.2867736  52.0060322  40.2077511  71.3563104  52.6918892  29.0467777
  72.0797303  53.1577005  28.9032351  70.9163696  52.7592502  28.2965374
  71.3978797  52.7702729  28.9152559  70.5249260  49.5516434  40.2968466
  69.9106253  49.0074485  40.5917102  71.0416545  49.0380671  39.8174282
  70.5104922  49.3952844  40.2692695  69.7645557  50.6220704  38.0312765
  69.3373165  49.9970423  37.5978200  69.7570501  50.3395626  38.8571772
  69.7004698  50.4873485  38.0892593  62.8808084  45.6585878  41.1001199
  63.0401571  44.9029202  41.5052921  62.7000977  46.2076817  41.7541937
  62.8773443  45.6279691  41.2563905  55.6038856  48.7820954  37.6798443
  55.4982305  48.7367798  36.8150527  54.8539076  49.1274735  37.9612728
  55.4774459  48.8261862  37.5935773  66.5562202  49.7921017  45.7281338
  65.7057832  49.9292732  45.8638983  66.7190329  49.0584796  46.1729040
  66.4546065  49.7035118  45.8136937  65.7946952  46.7420787  39.9234942
  64.9638882  46.9094605  39.7170190  65.7398469  46.3656738  40.7083828
  65.6636367  46.7110518  40.0083470  63.6030735  40.2329680  45.5591353
  64.2283439  39.6891813  45.8320785  63.1481215  39.7524598  44.9899143
  63.6278996  40.0819161  45.5152947  64.1682996  45.0176379  30.4525060
  64.3085957  45.5148843  31.1553701  64.6665529  44.3162673  30.5939274
  64.2624077  44.9878357  30.5776639  64.1983218  45.8843490  27.7817637
  64.8328298  46.4803915  27.7167099  64.2808829  45.5846947  28.5963507
  64.3039769  45.9284398  27.8920723  77.1765784  48.4158967  40.6504001
  77.7683624  49.0556218  40.6822199  77.6124779  47.7182004  40.9396068
  77.3284215  48.4077317  40.6984834  65.7762201  41.8157465  27.7563079
  66.0978042  41.3360548  27.1022341  66.0389145  42.6257111  27.5653890
  65.8628227  41.8647363  27.6318571  69.0059174  52.8376339  41.2761895
  68.4984265  53.3912186  41.7202525  68.7085820  52.8984629  40.4580669
  68.8864059  52.9282651  41.2210352  60.7036206  48.0811330  31.0507183
  61.2128435  48.6775838  31.4318488  61.1770478  47.8137304  30.3683602
  60.8479582  48.1297146  31.0061706  71.6166954  56.7539597  29.2065838
  70.8996264  56.5800459  28.7413076  72.2673692  56.5192169  28.6741324
  71.6068805  56.6935390  29.0595056  74.2014925  45.6304186  32.9507143
  73.5306115  46.1733888  32.8220209  74.8954676  46.0999041  32.7088838
  74.2043793  45.7802457  32.8962671  68.2501659  57.7700898  38.1818902
  68.0267314  57.0119727  38.5502928  67.7611502  57.7998919  37.4599341
  68.1445108  57.6623122  38.1295643  63.0626738  44.7167589  33.9180363
  62.3438727  45.1331722  34.1853227  63.4339100  45.2821828  33.3672001
  63.0118670  44.8616870  33.8763170  70.3072649  51.9382630  45.7330836
  70.2668503  51.2932307  45.1475991  71.1195967  51.8819247  46.0456248
  70.4215802  51.8341597  45.6927785  66.8980116  57.9901356  35.6355986
  66.4840515  57.3275486  35.2459828  67.5827490  58.1379215  35.1151681
  66.9378488  57.9142014  35.5012484  70.2645410  57.1491441  36.3879603
  69.8661693  57.2593711  35.6200423  69.6496630  57.3573507  36.9706163
  70.1144300  57.1965009  36.3610902  68.8373312  43.7565589  29.2553743
  68.2438152  44.0782585  28.7038310  68.8748590  42.9106684  29.0474849
  68.7547701  43.6789917  29.1436514  71.7131129  43.7145093  32.6855493
  71.4844822  43.7377795  31.8433851  71.9729205  42.8902560  32.8050503
  71.7177317  43.5961173  32.5780691  65.9950357  45.5679566  42.2880593
  65.4829260  44.9600749  42.6465625  65.8229853  46.2836159  42.7554569
  65.8939994  45.5842866  42.4096817  60.8416072  44.0117142  44.9382955
  60.6718662  44.6718517  44.3931162  60.3982022  44.2223703  45.6595444
  60.7515406  44.1403124  44.9644584  77.9987253  51.7243408  29.7722694
  78.3820859  52.4734764  30.0020791  77.2031366  51.9709227  29.5134683
  77.9381035  51.8713102  29.7680267  57.7418136  46.9164007  40.1971445
  57.1944856  46.2464653  40.3152313  58.5310515  46.5493855  40.2614912
  57.7770320  46.7628994  40.2240145  67.5902545  46.5771464  45.6934856
  68.3413872  46.8923141  46.0074410  67.7825121  46.3750635  44.8668778
  67.7293959  46.5938846  45.6178252  66.8102544  44.3962839  27.3483073
  67.1901509  44.4142469  26.5634187  66.0695141  44.8416828  27.2273920
  66.7571382  44.4644614  27.2146641  74.4387835  42.7045031  32.9358651
  74.4382061  42.5493687  33.7942928  74.2344015  43.5508018  32.8800037
  74.4087613  42.8065651  33.0546591  56.5005106  46.1284815  37.3517468
  56.3226867  45.6761424  38.0772383  56.2124128  46.9310977  37.5355945
  56.4318059  46.1807373  37.4860971  67.6087299  51.2340346  28.7391863
  66.7998621  50.9107019  28.6925172  68.1162207  50.5273568  28.6720111
  67.5636965  51.0821662  28.7222157  58.2377576  48.6612539  34.4639227
  57.3723095  48.6498229  34.3521998  58.3376392  48.4742762  35.3110366
  58.1251743  48.6318600  34.5728171  74.2280506  50.1346220  39.2771987
  74.6535577  49.6120642  38.7242412  73.8637426  50.7327057  38.7560610
  74.2367108  50.1456447  39.1180997  63.8634586  58.4310437  38.0369332
  64.1781145  59.2446826  38.0447114  64.2727999  58.0460656  38.7051492
  63.9702684  58.4939140  38.1373424  70.8159105  53.8480484  35.6073144
  71.2870284  54.5620747  35.7763130  71.1519284  53.2479234  36.1433014
  70.9354220  53.8651949  35.7105520  72.9036090  55.4581798  47.7865216
  73.0133055  54.6690358  48.1421964  73.2326987  55.3687734  46.9839555
  72.9688496  55.3287651  47.7207607  71.4533052  53.6398418  42.3700837
  70.9053998  53.0156302  42.1020902  71.9146080  53.8292690  41.6544916
  71.4400261  53.5757469  42.2251268  66.8021715  40.6224368  30.0310704
  67.6237410  40.7922681  29.7892399  66.3391366  40.7771629  29.3077002
  66.8552877  40.6706101  29.8882348  61.2047606  52.3783546  37.6847941
  61.8092463  52.3379380  37.0561762  60.9974918  53.2254698  37.7151997
  61.2636503  52.4971548  37.5964057  71.0191378  54.6449491  38.9010178
  71.8389752  54.5012457  39.1626473  70.7385456  55.2695690  39.4426616
  71.0988121  54.7159843  39.0198118  56.4398888  51.3618163  37.5546864
  56.3423166  50.5514435  37.8636921  57.2227758  51.3409957  37.1693132
  56.5415025  51.2385254  37.5433727  87.4905028  62.3014343  31.8653055
  87.4599033  63.1558979  32.0371324  88.0886377  62.0009635  32.4239198
  87.5742186  62.3830839  31.9727857  80.6904713  61.3889994  36.6205985
  79.8342609  61.5498492  36.6715102  80.7372367  60.5182058  36.6411046
  80.5703825  61.2840796  36.6312051  75.0745853  70.9252712  32.3843217
  74.3228752  70.5468250  32.1559262  75.5231865  70.9571145  31.6362027
  75.0295520  70.8738319  32.2400719  83.9998430  67.6576519  46.2266441
  84.7065197  67.1628550  46.3553376  84.1886365  68.0985601  45.4969099
  84.1326335  67.6494870  46.1375487  80.5270813  71.3478081  27.8128764
  80.1922181  72.0255003  27.3772986  81.0397683  70.9583392  27.2245635
  80.5536394  71.3902659  27.6615555  80.0675104  73.2992350  33.7539875
  80.4514483  73.8679249  33.2144650  80.0034245  72.5741860  33.2745691
  80.1148531  73.2767813  33.6033738  83.5356534  63.4482038  39.2637637
  84.0812494  64.1267124  39.3231606  83.4773411  63.3069499  38.4039218
  83.6072449  63.5274039  39.1449697  76.6530609  70.9371104  34.6505989
  76.7540972  70.1271458  34.9603117  76.0572354  70.8428050  34.0205668
  76.5803148  70.8036132  34.6032228  85.3121603  64.8766645  30.1371364
  85.1961129  65.6274331  30.5663503  86.1077490  64.6190598  30.3867451
  85.4126192  64.9501492  30.2375456  76.4931349  75.8548693  36.0520845
  77.1368804  76.2961857  36.4417003  76.8187604  75.0502119  35.9651104
  76.6363177  75.8013888  36.0966322  69.8495653  66.9591390  34.2758323
  69.6145838  66.1259043  34.1690592  69.9881294  67.2396056  33.4619524
  69.8351316  66.8774894  34.1400678  72.1485741  59.1277121  37.1742630
  71.5290772  58.5369768  37.0052645  72.0469604  59.7188556  36.5406954
  72.0423416  59.1281203  37.0547620  77.1951928  68.8660668  31.4240707
  77.5167769  69.4065875  30.8202015  77.8424025  68.2957439  31.5562997
  77.3377984  68.8619843  31.3547742  79.2453636  60.8676663  31.5075094
  79.9433801  61.0464790  31.9996557  79.5605969  60.3447002  30.8845483
  79.3948974  60.8170435  31.4877104  71.8754874  62.6729403  39.4186199
  71.7513571  63.2591848  40.0536018  72.5273158  62.1789598  39.7198474
  71.9528523  62.6868207  39.5572129  79.4341572  67.2547108  31.4954885
  79.8735207  66.6464208  31.9409658  79.2846235  66.8754481  30.7240350
  79.4763038  67.1085579  31.4474052  76.9013215  65.8491120  38.6973710
  77.5462217  65.3563563  38.3784659  77.1414992  65.9915906  39.5239789
  77.0323800  65.7968562  38.7723244  79.4399306  68.6946025  38.3480603
  79.7222549  67.8997431  38.1267359  80.1685467  69.1726613  38.3685664
  79.5888870  68.6480622  38.3183618  77.4180500  56.2369059  35.5896368
  77.0883830  56.6880203  34.9200067  76.7425502  56.1585223  36.1369375
  77.2690936  56.2920195  35.5719591  83.0350908  65.6074289  28.4485654
  82.9502204  66.4635256  28.5935223  83.5235292  65.3318613  29.1167813
  83.0939806  65.6931611  28.5687736  84.6256908  52.2254582  33.8345979
  84.3110349  52.9158061  34.2666401  84.1083849  52.1699365  33.1331479
  84.5021378  52.3189471  33.7942928  83.9669342  62.2259083  29.9483389
  83.4380813  62.4418717  30.6080696  84.4894362  62.9195222  29.8684359
  83.9657795  62.3602220  30.0338989  89.4217395  67.8005388  35.3216434
  88.5915098  68.0116031  35.4849850  89.3726647  66.9742442  35.0458717
  89.2924130  67.7094994  35.3053799  75.8568949  66.1222300  28.7490857
  75.2726165  66.6272331  29.1556721  75.4539045  65.8964687  28.0087449
  75.7108253  66.1630548  28.6995883  71.4112978  71.8377061  35.5514529
  70.9280556  72.5627551  35.5274112  72.2236296  72.1353191  35.6624687
  71.4603726  71.9879415  35.5641808  77.4827132  70.6309242  38.1564343
  76.9654074  70.2716657  37.5525651  78.1801523  70.1071416  38.1670409
  77.5092713  70.5006930  38.0694602  81.1390724  71.0804056  44.1180516
  81.2274070  70.8930196  44.9658727  81.5680437  70.4341486  43.7185363
  81.2152826  70.9567064  44.1852268  78.7061184  70.3635216  43.0998179
  78.1432019  69.9507826  43.6237840  79.4682207  70.2888122  43.5191322
  78.7355632  70.2912616  43.2391179  80.3146164  62.3687952  27.2259778
  80.5542168  62.5765936  26.4135121  80.6362005  61.5645461  27.3348722
  80.3983322  62.2802053  27.1220331  75.6236454  54.2981348  31.0719316
  76.3782422  54.6659665  30.8336366  75.4463989  54.6720902  31.8398495
  75.7090933  54.4079536  31.1504204  74.2657175  72.3533237  35.7034809
  74.9677755  71.8385226  35.7607565  74.1854658  72.6807388  36.5081684
  74.3580936  72.3247463  35.8307601  88.9171353  60.4475788  39.1166855
  88.0799774  60.5177975  39.3514450  88.8859584  60.4500283  38.2441158
  88.7889635  60.4586015  39.0226403  75.3136082  62.5908824  44.8315224
  75.4856586  62.4814719  45.6800505  75.8505439  63.2363229  44.5946416
  75.4181086  62.6700826  44.9220321  73.9793519  56.7051667  27.7697429
  73.7969092  56.9223548  26.9438422  74.8419132  56.8190680  27.8256043
  74.0798108  56.7541565  27.6551916  73.5907951  68.5439589  35.2120417
  74.4296850  68.7762522  35.2594178  73.6219720  67.6743900  35.1427452
  73.7189668  68.4496536  35.2085061  74.2160654  68.9640464  39.5133722
  74.7558879  68.8211595  40.1837095  73.5330600  69.3637215  39.8817749
  74.1952808  69.0020135  39.6668144  79.6593238  53.7078078  30.8046453
  80.3879398  53.5294032  30.3584609  79.7488131  54.5496157  31.0153631
  79.7799900  53.8061956  30.7699970  83.6401539  64.6431465  34.7078747
  84.3959054  65.0762979  34.7467655  83.7463863  63.9936235  35.2813383
  83.7671709  64.6108949  34.7976772  86.6781710  68.4704742  35.4581150
  86.2416942  68.4741485  36.2140121  86.3444625  69.1510241  35.0260727
  86.5644330  68.5717198  35.5061982  81.2510783  70.5113075  46.7824300
  82.0351200  70.6243923  47.1480042  81.0507378  69.6854212  46.9782986
  81.3376809  70.4059794  46.8658686  69.6197799  65.1840755  39.6668144
  69.3536214  64.3679872  39.8259134  69.6336363  65.2293911  38.7963659
  69.5822521  65.0697660  39.5621626  86.5979193  55.5118570  37.7010578
  87.2405101  55.5816675  38.2872493  86.8502213  54.8447793  37.1990119
  86.7301325  55.4244919  37.7137857  73.5255546  59.9825839  26.2819902
  72.8113723  59.6964019  26.6942334  74.0099514  60.3222465  26.9226289
  73.4914909  59.9907489  26.4375537  74.3696405  58.7219133  42.3135152
  73.6768202  58.2516113  42.5595883  74.9856733  58.4957438  42.8876859
  74.3580935  58.6186265  42.4344304  81.4081177  72.4223177  40.4290756
  80.6096422  72.1822677  40.6864624  81.8567188  72.4737570  41.1757803
  81.3555788  72.3945568  40.5775680  89.8126056  65.1885662  34.3500787
  90.4742490  64.6276331  34.2496695  89.1717468  64.6937693  34.6753478
  89.8154923  65.0322071  34.3833127  80.7002864  68.4855793  26.6581710
  81.1154012  68.1540817  25.9666206  79.8694793  68.2524696  26.5301847
  80.6390872  68.4027049  26.5372558  70.0291212  65.9699534  36.9479888
  69.8466786  65.9446420  36.0952180  70.7640881  66.4398472  36.9868797
  70.1105276  66.0360897  36.8277807  86.0990887  66.2051044  34.0912776
  86.3346476  66.3496243  33.2639626  86.2480450  66.9693452  34.4844289
  86.1556690  66.3390099  34.0276380  73.0936964  62.6884537  43.4561997
  73.8176936  62.6737568  43.9426891  73.1953101  63.3979893  42.9583965
  73.2155173  62.7909241  43.4540784  87.9281343  65.0452710  31.9282379
  88.2589561  65.5780351  31.3222474  88.5014432  65.0991598  32.5844330
  88.0615023  65.1322279  31.9360161  80.4681914  66.1683622  48.3210944
  79.6754894  66.4827134  48.5063563  80.5830841  66.3835090  47.4831728
  80.3677324  66.2467459  48.2249278  83.1413233  62.8917613  32.6105960
  83.2360087  63.6306907  33.0645585  82.5172076  62.4635089  33.0440524
  83.0622263  62.9378934  32.7414107  81.3965706  66.0703826  43.2596240
  81.9704568  65.4331070  43.4144804  81.3180510  66.0707908  42.3905898
  81.4698941  65.9768937  43.1542651  69.9962123  62.8493035  37.0978955
  70.5735625  62.7129486  37.7371200  69.2976185  62.3928819  37.3524539
  69.9783144  62.7615301  37.2301244  83.3936254  64.7366353  25.8442912
  83.3116416  64.8068540  26.7097899  84.0315974  65.2996097  25.6526652
  83.4756091  64.8305324  25.9432861  76.7529425  64.5027091  35.3117438
  76.4948669  63.6698826  35.2848737  76.8077908  64.7284704  34.4709938
  76.7229203  64.4124862  35.1837575  81.8330475  56.6055542  35.4121531
  81.1286802  56.1164727  35.5705450  81.8815449  56.6178016  34.5409975
  81.7360527  56.5345189  35.3060870  75.7264137  62.0564853  35.7982333
  75.1513728  62.2157022  36.4346294  75.3499813  61.4200262  35.3350783
  75.5866949  61.9862666  35.8236891  79.3937426  60.5288203  40.6574711
  79.0051859  60.1042420  40.0026902  78.7292124  60.7770352  41.1651738
  79.2384354  60.5026924  40.6362579  89.0360695  60.2863207  33.4322541
  88.7797260  59.4743149  33.2420424  89.8790009  60.2940774  33.2052728
  89.1226720  60.1675205  33.3707358  65.4720956  61.7004928  33.8126773
  65.5581208  61.3236796  34.5940303  66.0996753  61.3265374  33.3346731
  65.5777507  61.5890410  33.8572251  83.2163787  54.2262831  38.1698695
  83.5974299  53.5441002  38.5566569  82.4127072  53.9372433  37.9874360
  83.1540249  54.0829880  38.2002751  80.4976364  64.7586807  28.8551518
  81.3117003  65.0501700  28.7434289  80.4335505  64.1046670  28.2809811
  80.6079103  64.7052002  28.7540355  86.7185854  67.4412803  43.2681094
  86.4824492  66.6100868  43.1493154  87.3629083  67.3898410  43.8535938
  86.7780525  67.3110491  43.3366987  76.3684272  68.2308325  33.9823830
  77.0058219  67.9920072  34.5275623  76.7939344  68.4345484  33.2476991
  76.5260439  68.2259335  33.9540987  71.0596915  70.4696661  37.8658134
  71.1001060  70.7411512  37.0377913  71.6191439  70.9938569  38.2815922
  71.1480261  70.5872416  37.8050022  77.0087087  63.4510614  28.3198719
  77.3932240  63.2318321  29.0715265  76.7598708  64.2773560  28.4499796
  77.0289160  63.5408761  28.4499796  77.1755628  56.7317030  48.0361304
  76.8609069  57.5016592  47.7730866  76.8545560  56.1687286  47.4513531
  77.0814547  56.7627298  47.9102654  87.7422275  67.2257252  39.3309388
  87.4368092  67.9585309  39.6922704  87.0228491  66.8195182  39.0502174
  87.5909617  67.2738985  39.3422525  78.7505744  68.7080747  35.6617616
  78.8244753  68.5455919  36.5159466  79.5675251  68.8970937  35.4178098
  78.8822103  68.7117490  35.7515642  93.4424067  63.8650253  38.6577732
  93.3748567  63.8846212  37.7880319  93.4279729  64.7080580  38.8833403
  93.4302823  63.9923987  38.5630209  72.5111501  69.0538610  32.6912060
  71.6849619  69.3000347  32.5646339  72.5723492  68.9750691  33.5574118
  72.3985668  69.0783559  32.8001004  74.7287525  55.1207551  33.6507500
  73.8609950  55.1930151  33.7165109  75.0162729  55.9229630  33.8395475
  74.6427273  55.2501698  33.6882267  83.8520413  55.2685410  41.9818822
  84.5974005  55.0795221  41.5682247  83.4357718  55.7943648  41.4232678
  83.9005388  55.3187556  41.8383395  77.2910330  71.6715490  30.3931090
  77.5808628  71.2804472  29.6690316  78.0213811  71.8532195  30.8336365
  77.4417214  71.6409304  30.3513897  91.2282684  62.6394639  36.9324327
  91.7790606  62.0062708  37.1721419  91.2126800  63.1710032  37.6239831
  91.3067881  62.6243587  37.0703185  77.8805075  66.4733236  41.4784220
  77.3816769  67.1849004  41.5569109  78.6905299  66.7933903  41.4402383
  77.9261182  66.6260085  41.4840789  75.2316246  73.6482873  33.4591239
  75.0116541  73.3580227  34.2517906  75.0110768  72.9897828  32.9309152
  75.1663840  73.5082581  33.4980148  74.1433193  65.7356189  35.7246941
  73.8546441  65.1093660  36.2592668  75.0116541  65.6776477  35.7911622
  74.2293445  65.6343733  35.8137896  84.9311091  60.8790973  36.0428923
  84.5875856  60.1581308  36.3936173  85.0304133  60.6704824  35.2007281
  84.8953133  60.7415176  35.9700603  77.3984201  75.0212263  32.2421932
  78.0508259  74.4888705  32.4712958  76.7009810  74.6680915  32.6289806
  77.3914919  74.8901786  32.3334100  74.3465466  67.3751440  31.6489306
  75.1011434  67.7564479  31.8624769  73.7536079  67.8262584  32.1036003
  74.3702180  67.4980268  31.7472185  85.3924120  67.3416677  31.5852911
  85.9582152  68.0009887  31.5011454  84.7452023  67.6866375  32.0569313
  85.3802876  67.4898618  31.6425668  76.8072133  59.3314281  46.7746519
  75.9971909  59.6372060  46.6636361  77.2846820  60.0519863  46.8899103
  76.7575612  59.4828882  46.7753590  75.6663693  68.5460002  37.0229422
  75.1444446  68.6860293  37.7081286  76.0537713  67.7870666  37.2131539
  75.6467394  68.4545525  37.1530498  72.6554877  58.5965810  31.0924376
  72.3679673  58.2267081  30.3556324  73.3425345  59.0660666  30.8308081
  72.7143774  58.6112780  30.9439452  81.8630698  70.2855461  31.0089990
  81.6217374  69.5523322  30.6017055  82.0432031  70.8342318  30.3556324
  81.8538322  70.2577852  30.8520213  77.0930018  65.5764021  32.4210913
  76.8972801  66.1838755  31.8271216  77.3164364  64.8831965  31.9402587
  77.0964659  65.5641546  32.2626993  75.4908548  62.4618759  32.5391781
  76.2131200  62.6259917  32.0795587  75.0116541  63.1828423  32.4331121
  75.5272279  62.5916988  32.4557395  83.4502056  58.7982557  37.9188466
  82.6113157  58.8243836  37.6826729  83.5206423  59.4453293  38.4993813
  83.3370449  58.8978683  37.9697583  73.1416165  64.8676831  41.6445921
  73.6537262  65.1461084  40.9954681  72.8552508  65.6066125  42.0108734
  73.1751028  65.0179185  41.6035799  81.8971334  55.6967934  32.6516082
  82.5997687  55.4975683  32.1736040  81.6315523  54.9243877  32.9584925
  81.9617967  55.5530900  32.6261523  87.3259580  64.0050544  35.2049708
  87.2393554  64.1605970  36.0584487  86.8710060  64.6488620  34.8309113
  87.2462836  64.1226299  35.2756814  70.2283071  59.3747023  31.9409657
  70.3299208  60.1773184  32.2690633  71.0238958  59.1734359  31.6432738
  70.3610977  59.4632922  31.9445013  76.6599890  56.9603220  41.7046962
  76.4683087  56.9758354  42.5546386  77.5098486  57.1566894  41.6813617
  76.7575612  56.9917571  41.8270257  71.0446803  59.4894201  39.6830779
  70.9032295  58.6378142  39.8075287  71.3287367  59.5322862  38.8592985
  71.0654650  59.3693951  39.5798403  81.1985396  61.3261291  33.8275267
  80.9520110  61.2457042  34.6612056  81.5270519  60.5414759  33.6337795
  81.2106639  61.1987557  33.9222790  85.0933445  68.0344651  37.6162048
  84.9547804  68.7325696  38.1210791  84.3133443  67.8793307  37.2598230
  84.9576672  68.1144817  37.6388323  83.4311530  64.3341026  43.8684430
  83.4259568  63.4620842  43.8726857  84.1372524  64.5329195  43.3953886
  83.5356534  64.2344900  43.7991465  77.1582423  64.0618010  43.2398250
  77.3025799  64.6419218  42.6041360  77.5058072  64.4394307  43.9448105
  77.2309884  64.2038714  43.2497245  79.3302340  63.2608178  41.0223382
  78.5825655  63.4539193  40.6171660  79.4843866  62.4353398  40.7847503
  79.2424768  63.1673290  40.9268788  76.2310178  72.2520782  40.1059277
  76.3799742  71.6923698  39.4532682  77.0110180  72.3312783  40.4891796
  76.3684272  72.1806347  40.0656226  86.5886817  67.3922904  28.3778548
  86.2093626  66.6060042  28.3707837  85.9253063  67.9409761  28.2350192
  86.4345292  67.3567728  28.3559345  78.7563479  72.4235425  41.3843768
  78.6807150  71.7544235  41.9394556  78.6853338  73.1253213  41.8984434
  78.7344086  72.4280332  41.5420616  79.5704117  57.1558729  41.9118786
  80.0276732  57.8882703  42.0391578  79.6460446  56.7325194  42.6706041
  79.6495087  57.2015967  42.0419862  71.8137109  57.4024549  43.0008229
  71.2779298  56.7904907  43.3168997  71.8754873  57.9772685  43.6541896
  71.7432741  57.3971476  43.1443656  84.0431443  50.3348604  35.7812629
  84.1615012  50.7925067  35.0479931  83.8693619  49.5293865  35.4948846
  84.0350614  50.2842376  35.6313562  79.4133726  70.9436423  32.2167374
  80.1783617  70.6746067  31.8950038  79.3111816  70.4586434  32.9337437
  79.5115221  70.8325988  32.2747201  77.4486495  59.1460833  38.7560610
  76.6582570  58.9652293  39.0777945  77.8447118  58.3687785  38.7390904
  77.3903372  59.0048294  38.8013158  81.9352386  67.9748607  24.1967323
  82.7025371  68.0348732  23.7873175  81.4883695  67.4029049  23.7123642
  81.9825813  67.8985183  24.0645034  82.8330182  66.7803263  36.4820056
  82.1575184  66.5488495  36.9833443  82.8422558  66.1724446  35.8562161
  82.7348686  66.6562188  36.4636208  79.9624326  61.6221092  43.2384109
  79.8983467  62.4831048  43.1104245  80.1021513  61.3053085  42.4379660
  79.9739796  61.7021259  43.1012321  84.8346916  69.6368395  28.7130233
  84.9166754  70.4435382  28.3891684  85.3196658  69.6564355  29.4371007
  84.9184074  69.7589058  28.7717132  78.6443420  64.3153231  37.3800311
  78.2205669  64.5157730  36.6439330  78.4688275  63.4682079  37.4924611
  78.5554300  64.2202013  37.2874002  78.1455113  75.8303744  39.8421769
  78.6351043  75.1314534  39.6597433  77.5739345  75.5327614  40.4297826
  78.1339643  75.6829968  39.9022810  73.9325865  64.8105283  32.8128284
  74.0890484  64.7452086  33.6684276  74.2726458  65.5853835  32.6006964
  74.0059099  64.9154481  32.9082878  80.4705009  64.1863166  31.6821647
  81.0120555  63.6833547  32.1460268  80.7851568  64.1328361  30.8711132
  80.5969406  64.1042587  31.6305459  84.3422117  68.3965814  48.7948559
  85.1556982  68.1250963  48.9553692  84.1817083  68.0973354  47.9908755
  84.4392065  68.3120740  48.6993965  78.6391459  69.5780518  28.9661675
  78.7084279  68.7195056  29.1054676  79.4179914  69.7952399  28.6380700
  78.7644309  69.4833382  28.9378832  81.6194279  59.0799471  41.7343948
  81.8336248  58.4410385  41.1807302  81.0028178  59.5245295  41.3051809
  81.5599608  59.0509615  41.5894379  83.0298946  72.0018219  33.1798169
  82.6378738  71.6984934  32.4621035  83.1852019  72.8387309  32.9903122
  82.9952536  72.0802056  33.0454666  70.5060126  61.9940233  33.1289051
  70.8859091  62.4124778  32.4649318  69.9315491  62.5753689  33.4357894
  70.4771451  62.1418092  33.0765792  83.7833367  60.6888536  42.6727255
  82.9710048  60.3814426  42.7540427  84.2423301  60.2087536  43.2369967
  83.7313751  60.5725028  42.7681849  83.1938621  68.5668208  33.1204199
  82.8353276  68.7382851  33.8968231  82.7077332  69.0281414  32.5632198
  83.0697318  68.6607179  33.1529468  81.0109007  52.1899407  36.7231290
  80.1402565  52.1638128  36.6764600  81.2649348  52.0176599  35.9057136
  80.9202567  52.1609550  36.5951427  77.9826987  64.2467373  25.6604433
  78.2719511  65.0232256  25.9348008  78.0698785  63.7356105  26.3618933
  78.0381243  64.2859292  25.8046931  80.8786874  62.0948607  47.4555957
  81.3486505  62.7190724  47.8423831  80.9248754  61.4265583  48.0149172
  80.9554750  62.0883288  47.5956028  78.0358148  54.2005635  38.1804761
  77.5196636  53.5085826  38.3056340  77.4752077  54.8676412  38.1267360
  77.8764661  54.1968893  38.1910827  80.1050381  54.7398595  40.0097613
  79.7182134  54.7647626  40.7911143  79.6183318  54.1740274  39.5572130
  79.9762890  54.6594346  40.0585517  84.3543361  69.4572104  44.0671400
  84.9923081  68.9632300  43.7333856  83.7117452  69.3849504  43.4823627
  84.3537587  69.3731112  43.9313755  86.0800361  61.3061250  38.6337316
  85.6527969  61.2187599  37.8785415  85.4426414  61.4139025  39.2192160
  85.9229968  61.3093910  38.6082757  79.7707523  51.6265580  42.3007873
  80.4000641  52.1625881  42.0228944  79.9393386  51.5342939  43.1521439
  79.8885317  51.6926943  42.3856401  79.5721438  56.4136775  44.5734285
  80.3994867  56.1421924  44.6292899  79.5929284  57.2097617  44.9298103
  79.6974288  56.4916529  44.6349468  84.4097617  70.1491912  40.7076757
  85.1989995  69.7980977  40.8278838  84.5841215  70.9628301  40.4453391
  84.5517899  70.2177769  40.6864625  74.1490928  63.5600638  37.7604546
  73.3078934  63.4604512  37.9683439  74.3580936  64.3296118  38.1118866
  74.0555620  63.6592681  37.8431860  71.6266495  61.1820175  35.5889296
  71.2323192  61.2563187  34.8139406  71.0706611  61.5678121  36.1397658
  71.4869307  61.2501950  35.5556956  83.2631441  54.1601469  35.2693175
  83.4681035  54.0923777  36.1150172  82.9357865  54.9660290  35.2014353
  83.2446689  54.2687409  35.3852830  77.9607592  61.4882037  37.0102143
  77.6570730  60.9338025  37.6112551  77.2587013  61.6674247  36.5230177
  77.8123802  61.4326819  37.0271849  77.0173690  58.7982557  31.5746845
  77.2933424  58.0801469  31.1624412  77.6172359  59.3967477  31.3667951
  77.1466954  58.7802928  31.4827606  76.0225943  68.7031758  41.7174241
  75.9146298  68.7133820  42.5836299  76.2321725  69.5286538  41.5279195
  76.0376055  68.8272833  41.8178332  86.5165129  54.7133233  34.7495941
  85.9039443  55.2003635  35.1349672  86.6129304  54.0376724  35.2933592
  86.4403027  54.6851542  34.8874799  80.5184210  56.4696074  29.8493440
  80.9727957  56.6406635  30.5741284  80.9924256  55.8564185  29.4491216
  80.6552530  56.4046960  29.8967201  74.0399735  65.9544400  39.1796178
  73.4487669  66.5953898  39.1499194  74.8020759  66.3782018  39.1527478
  74.0647996  66.1120239  39.1711326  74.4360358  57.1146398  39.8464196
  74.8961840  57.1885327  40.5839320  74.4816465  57.9127652  39.4964017
  74.5110914  57.2440545  39.9036953  76.0843708  57.7813093  44.4136223
  75.6929273  57.1346440  44.8492001  76.2529571  58.3724528  45.0330479
  76.0514618  57.7727361  44.5698929  90.1590157  65.7850170  40.1773457
  90.2173281  66.2336819  40.9233433  89.5256625  66.1948983  39.7403537
  90.0741452  65.9123905  40.2226005  83.7989252  71.4053712  36.6128203
  83.6008940  71.8944526  35.9184414  83.1776963  71.6094953  37.1912336
  83.6776816  71.5070250  36.5951426  77.8597230  63.1738609  30.9538447
  78.6039275  63.5612885  31.1921397  78.0057926  62.3296034  31.1178935
  77.9907815  63.1069081  31.0132417  79.7776806  54.9688868  35.9870309
  78.9312851  55.1411675  35.8611658  79.7747938  54.1638211  36.3236137
  79.6523955  54.8749897  36.0181436  80.8475106  58.7464082  36.8532366
  80.3735060  58.2205844  37.3637677  81.2193242  58.1993555  36.2847228
  80.8324995  58.5880079  36.8447514  71.2248136  60.7435589  42.2215912
  72.0873749  60.6431298  42.1353242  70.8939919  60.1630298  41.6601484
  71.3033332  60.6427215  42.1261318  87.1111836  63.8066458  38.2639147
  86.8710059  62.9672873  38.2681573  87.5903844  63.8866624  38.9879921
  87.1464020  63.6947857  38.3713949  82.7758606  59.6400637  29.9158120
  82.2481624  59.7229381  29.2263829  83.2354314  60.3818508  29.9122765
  82.7660456  59.7621299  29.8132815  89.1117024  60.5867915  36.2168406
  88.8726793  60.5463749  35.3789191  89.2750925  61.4339067  36.3434127
  89.1007327  60.7060000  36.1121888  85.7163054  64.9717864  42.1473451
  86.4397253  64.5190391  41.9684471  85.4513016  65.2522530  41.3645779
  85.7844327  64.9468833  42.0052167  74.5849922  59.5678038  38.8826330
  73.9602992  59.5796430  38.2752283  74.2495517  60.0438213  39.5317571
  74.4435414  59.6396555  38.8882899  74.7691671  57.9103156  24.9399015
  74.4204475  58.5622881  25.4030565  74.2888117  57.8960269  24.2122887
  74.6461915  58.0046210  24.9010107  71.2975598  67.6278498  40.3230095
  70.7675522  66.9370937  40.3725069  71.5700691  67.6188683  39.4942803
  71.2600320  67.5245630  40.2077511  82.3295688  68.2104200  29.0467777
  83.0529887  68.6762313  28.9032351  81.8896279  68.2777810  28.2965374
  82.3711380  68.2888037  28.9152559  81.4981843  65.0701742  40.2968466
  80.8838836  64.5259793  40.5917102  82.0149128  64.5565979  39.8174282
  81.4837506  64.9138151  40.2692695  80.7378140  66.1406012  38.0312765
  80.3105748  65.5155731  37.5978200  80.7303085  65.8580934  38.8571772
  80.6737281  66.0058793  38.0892593  73.8540667  61.1771185  41.1001199
  74.0134154  60.4214510  41.5052921  73.6733561  61.7262125  41.7541937
  73.8506026  61.1464999  41.2563905  81.7960970  53.3432421  41.6551988
  81.3001532  53.5396095  40.9643555  82.5530032  53.7425089  41.4840790
  81.8347795  53.4310155  41.5272125  79.0663850  57.0174767  38.2455299
  79.0906337  56.4834879  37.5568079  79.3175324  56.5092076  38.9080890
  79.1073769  56.8635671  38.2419944  66.5771440  64.3006262  37.6798443
  66.4714889  64.2553106  36.8150527  65.8271660  64.6460042  37.9612728
  66.4507043  64.3447170  37.5935773  75.3465172  55.7445585  37.6261043
  75.3863544  56.2454792  38.3395751  74.5214837  55.8355979  37.3566966
  75.2304698  55.8327402  37.6911582  77.5294785  65.3106325  45.7281338
  76.6790416  65.4478039  45.8638983  77.6922913  64.5770103  46.1729040
  77.4278649  65.2220426  45.8136937  76.7679536  62.2606095  39.9234942
  75.9371465  62.4279913  39.7170190  76.7131053  61.8842046  40.7083828
  76.6368950  62.2295826  40.0083470  74.5763319  55.7514988  45.5591353
  75.2016022  55.2077121  45.8320785  74.1213799  55.2709906  44.9899143
  74.6011579  55.6004469  45.5152947  75.1415579  60.5361687  30.4525060
  75.2818541  61.0334151  31.1553701  75.6398112  59.8347981  30.5939274
  75.2356660  60.5063665  30.5776639  75.1715802  61.4028798  27.7817637
  75.8060881  61.9989223  27.7167099  75.2541413  61.1032255  28.5963507
  75.2772353  61.4469706  27.8920723  88.1498368  63.9344275  40.6504001
  88.7416208  64.5741526  40.6822199  88.5857362  63.2367312  40.9396068
  88.3016799  63.9262625  40.6984834  76.7494785  57.3342773  27.7563079
  77.0710626  56.8545856  27.1022341  77.0121728  58.1442419  27.5653890
  76.8360810  57.3832671  27.6318571  79.9791757  68.3561647  41.2761895
  79.4716849  68.9097494  41.7202525  79.6818404  68.4169937  40.4580669
  79.8596642  68.4467959  41.2210352  82.1453940  56.7214967  40.1186558
  82.5709011  56.2687493  39.5070084  81.5310933  56.1675038  40.3951345
  82.1182585  56.5728943  40.0691583  71.6768790  63.5996638  31.0507183
  72.1861019  64.1961146  31.4318488  72.1503062  63.3322612  30.3683602
  71.8212165  63.6482454  31.0061706  82.5899538  72.2724905  29.2065838
  81.8728847  72.0985767  28.7413076  83.2406275  72.0377477  28.6741324
  82.5801388  72.2120698  29.0595056  80.5848163  53.1930067  33.5277135
  79.9416480  53.0427713  34.0962273  80.2447570  52.9472412  32.7626240
  80.4393240  53.1342189  33.4980150  85.1747509  61.1489494  32.9507143
  84.5038699  61.6919196  32.8220209  85.8687259  61.6184349  32.7088838
  85.1776376  61.2987765  32.8962671  79.2234243  73.2886206  38.1818902
  78.9999897  72.5305035  38.5502928  78.7344086  73.3184227  37.4599341
  79.1177692  73.1808430  38.1295643  85.3375636  57.6045377  35.8597517
  85.6903247  57.1775100  36.5343315  84.4790438  57.5196221  35.9898593
  85.2625081  57.5290118  35.9792527  74.0359321  60.2352897  33.9180363
  73.3171311  60.6517030  34.1853227  74.4071684  60.8007136  33.3672001
  73.9851253  60.3802178  33.8763170  83.3358902  60.8680746  39.8082359
  83.3156830  60.6864041  40.6617138  83.3838103  61.7392764  39.7841943
  83.3393543  60.9697284  39.9305654  81.2805232  67.4567938  45.7330836
  81.2401087  66.8117615  45.1475991  82.0928550  67.4004555  46.0456248
  81.3948386  67.3526905  45.6927785  77.8712700  73.5086664  35.6355986
  77.4573098  72.8460794  35.2459828  78.5560074  73.6564522  35.1151681
  77.9111071  73.4327322  35.5012484  81.2377994  72.6676749  36.3879603
  80.8394277  72.7779019  35.6200423  80.6229213  72.8758815  36.9706163
  81.0876883  72.7150317  36.3610902  79.8105896  59.2750897  29.2553743
  79.2170735  59.5967893  28.7038310  79.8481174  58.4291992  29.0474849
  79.7280285  59.1975225  29.1436514  86.7699697  52.7263789  36.7881829
  86.2630561  52.0192929  36.7203007  87.5667130  52.3956978  36.9182906
  86.8126936  52.5736940  36.7980824  82.6863712  59.2330401  32.6855493
  82.4577405  59.2563103  31.8433851  82.9461789  58.4087868  32.8050503
  82.6909900  59.1146481  32.5780691  76.9682941  61.0864874  42.2880593
  76.4561844  60.4786057  42.6465625  76.7962437  61.8021467  42.7554569
  76.8672578  61.1028174  42.4096817  71.8148656  59.5302450  44.9382955
  71.6451246  60.1903825  44.3931162  71.3714605  59.7409011  45.6595444
  71.7247989  59.6588432  44.9644584  75.7408475  57.7706948  33.9809689
  76.2165841  58.1324027  33.3459870  75.2397075  58.4263415  34.2609831
  75.7373834  57.9201136  33.9286430  88.9719836  67.2428716  29.7722694
  89.3553442  67.9920072  30.0020791  88.1763950  67.4894535  29.5134683
  88.9113619  67.3898410  29.7680267  80.8452011  59.0089119  44.7282849
  81.4023441  58.7802929  44.0961314  80.5213076  59.7694785  44.4518061
  80.8798421  59.0872956  44.5939346  68.7150720  62.4349315  40.1971445
  68.1677439  61.7649961  40.3152313  69.5043098  62.0679163  40.2614912
  68.7502904  62.2814302  40.2240145  78.5635128  62.0956772  45.6934856
  79.3146455  62.4108449  46.0074410  78.7557705  61.8935943  44.8668778
  78.7026543  62.1124154  45.6178252  77.7835128  59.9148147  27.3483073
  78.1634093  59.9327777  26.5634187  77.0427724  60.3602136  27.2273920
  77.7303966  59.9829922  27.2146641  85.4120419  58.2230339  32.9358651
  85.4114645  58.0678995  33.7942928  85.2076599  59.0693326  32.8800037
  85.3820196  58.3250959  33.0546591  67.4737690  61.6470123  37.3517468
  67.2959451  61.1946732  38.0772383  67.1856712  62.4496284  37.5355945
  67.4050643  61.6992681  37.4860971  83.1361271  62.9027840  36.5894858
  83.6314936  62.1850835  36.5498878  82.3261046  62.5998638  36.4749345
  83.0905164  62.7525487  36.5668584  78.5819882  66.7525654  28.7391863
  77.7731205  66.4292327  28.6925172  79.0894791  66.0458876  28.6720111
  78.5369549  66.6006970  28.7222157  69.2110159  64.1797847  34.4639227
  68.3455679  64.1683537  34.3521998  69.3108975  63.9928070  35.3110366
  69.0984326  64.1503908  34.5728171  85.2013089  65.6531528  39.2771987
  85.6268161  65.1305950  38.7242412  84.8370009  66.2512365  38.7560610
  85.2099692  65.6641755  39.1180997  74.8367169  73.9495745  38.0369332
  75.1513728  74.7632134  38.0447114  75.2460583  73.5645964  38.7051492
  74.9435267  74.0124448  38.1373424  81.7891689  69.3665792  35.6073144
  82.2602867  70.0806055  35.7763130  82.1251867  68.7664542  36.1433014
  81.9086804  69.3837256  35.7105520  83.8768674  70.9767106  47.7865216
  83.9865639  70.1875666  48.1421964  84.2059570  70.8873042  46.9839555
  83.9421079  70.8472958  47.7207607  78.7061184  54.1393263  42.5631239
  78.8389089  53.3424256  42.8912215  79.0906337  54.6659666  43.1429515
  78.7817513  54.0993179  42.6974742  82.4265635  69.1583726  42.3700837
  81.8786581  68.5341610  42.1020902  82.8878664  69.3477998  41.6544916
  82.4132845  69.0942777  42.2251268  81.7793539  51.0623589  39.1612332
  80.9739503  50.9521319  39.4780171  81.6500275  51.1636045  38.3042198
  81.6413672  51.0607259  39.0820373  85.2359500  57.2269081  39.7552029
  84.6522488  57.7278287  39.3429597  85.5563794  56.7198637  39.1216353
  85.1972675  57.2260916  39.6010537  77.7754299  56.1409676  30.0310704
  78.5969993  56.3107988  29.7892399  77.3123950  56.2956937  29.3077002
  77.8285461  56.1891409  29.8882348  76.3649631  54.1352438  40.8109133
  76.9094044  53.7943565  41.4013475  76.4186566  54.9937899  40.9530417
  76.4538750  54.2107697  40.9191006  72.1780189  67.8968854  37.6847941
  72.7825047  67.8564688  37.0561762  71.9707502  68.7440006  37.7151997
  72.2369087  68.0156856  37.5964057  81.9923962  70.1634799  38.9010178
  82.8122335  70.0197765  39.1626473  81.7118039  70.7880998  39.4426616
  82.0720705  70.2345151  39.0198118  67.4131472  66.8803471  37.5546864
  67.3155750  66.0699743  37.8636921  68.1960341  66.8595265  37.1693132
  67.5147608  66.7570562  37.5433727  98.4637612  77.8199651  31.8653055
  98.4331616  78.6744287  32.0371324  99.0618961  77.5194943  32.4239198
  98.5474770  77.9016147  31.9727857  91.6637297  76.9075302  36.6205985
  90.8075192  77.0683800  36.6715102  91.7104951  76.0367366  36.6411046
  91.5436408  76.8026104  36.6312051  86.0478437  86.4438020  32.3843217
  85.2961336  86.0653558  32.1559262  86.4964448  86.4756453  31.6362027
  86.0028103  86.3923627  32.2400719  94.9731013  83.1761827  46.2266441
  95.6797781  82.6813858  46.3553376  95.1618949  83.6170909  45.4969099
  95.1058919  83.1680178  46.1375487  91.5003396  86.8663389  27.8128764
  91.1654765  87.5440311  27.3772986  92.0130267  86.4768700  27.2245635
  91.5268978  86.9087967  27.6615555  91.0407688  88.8177658  33.7539875
  91.4247067  89.3864556  33.2144650  90.9766829  88.0927168  33.2745691
  91.0881115  88.7953121  33.6033738  94.5089118  78.9667346  39.2637637
  95.0545078  79.6452432  39.3231606  94.4505994  78.8254807  38.4039218
  94.5805032  79.0459347  39.1449697  87.6263193  86.4556412  34.6505989
  87.7273556  85.6456766  34.9603117  87.0304938  86.3613358  34.0205668
  87.5535731  86.3221440  34.6032228  96.2854186  80.3951953  30.1371364
  96.1693712  81.1459639  30.5663503  97.0810073  80.1375906  30.3867451
  96.3858776  80.4686800  30.2375456  87.4663932  91.3734001  36.0520845
  88.1101388  91.8147165  36.4417003  87.7920188  90.5687427  35.9651104
  87.6095761  91.3199196  36.0966322  80.8228237  82.4776698  34.2758323
  80.5878421  81.6444351  34.1690592  80.9613878  82.7581364  33.4619524
  80.8083899  82.3960202  34.1400678  83.1218324  74.6462429  37.1742630
  82.5023356  74.0555076  37.0052645  83.0202188  75.2373864  36.5406954
  83.0156000  74.6466511  37.0547620  88.1684512  84.3845976  31.4240707
  88.4900353  84.9251183  30.8202015  88.8156608  83.8142747  31.5562997
  88.3110567  84.3805151  31.3547742  90.2186220  76.3861971  31.5075094
  90.9166385  76.5650098  31.9996557  90.5338553  75.8632310  30.8845483
  90.3681557  76.3355743  31.4877104  82.8487457  78.1914711  39.4186199
  82.7246154  78.7777156  40.0536018  83.5005742  77.6974906  39.7198474
  82.9261107  78.2053515  39.5572129  90.4074155  82.7732416  31.4954885
  90.8467791  82.1649516  31.9409658  90.2578818  82.3939789  30.7240350
  90.4495621  82.6270887  31.4474052  87.8745798  81.3676428  38.6973710
  88.5194801  80.8748871  38.3784659  88.1147575  81.5101214  39.5239789
  88.0056384  81.3153870  38.7723244  90.4131890  84.2131333  38.3480603
  90.6955133  83.4182739  38.1267359  91.1418050  84.6911921  38.3685664
  90.5621453  84.1665930  38.3183618  88.3913084  71.7554367  35.5896368
  88.0616414  72.2065511  34.9200067  87.7158085  71.6770531  36.1369375
  88.2423520  71.8105503  35.5719591  94.0083492  81.1259597  28.4485654
  93.9234787  81.9820564  28.5935223  94.4967875  80.8503921  29.1167813
  94.0672389  81.2116918  28.5687736  95.5989491  67.7439890  33.8345979
  95.2842932  68.4343369  34.2666401  95.0816433  67.6884673  33.1331479
  95.4753962  67.8374779  33.7942928  94.9401925  77.7444391  29.9483389
  94.4113397  77.9604025  30.6080696  95.4626945  78.4380530  29.8684359
  94.9390378  77.8787528  30.0338989 100.3949978  83.3190696  35.3216434
  99.5647681  83.5301339  35.4849850 100.3459230  82.4927750  35.0458717
 100.2656714  83.2280302  35.3053799  86.8301533  81.6407608  28.7490857
  86.2458748  82.1457639  29.1556721  86.4271628  81.4149995  28.0087449
  86.6840837  81.6815856  28.6995883  82.3845562  87.3562369  35.5514529
  81.9013140  88.0812859  35.5274112  83.1968880  87.6538499  35.6624687
  82.4336309  87.5064723  35.5641808  88.4559716  86.1494550  38.1564343
  87.9386657  85.7901965  37.5525651  89.1534107  85.6256724  38.1670409
  88.4825297  86.0192238  38.0694602  92.1123308  86.5989364  44.1180516
  92.2006654  86.4115504  44.9658727  92.5413020  85.9526793  43.7185363
  92.1885410  86.4752372  44.1852268  89.6793767  85.8820524  43.0998179
  89.1164602  85.4693134  43.6237840  90.4414791  85.8073430  43.5191322
  89.7088216  85.8097924  43.2391179  91.2878747  77.8873260  27.2259778
  91.5274751  78.0951244  26.4135121  91.6094588  77.0830769  27.3348722
  91.3715905  77.7987361  27.1220331  86.5969038  69.8166656  31.0719316
  87.3515006  70.1844973  30.8336366  86.4196572  70.1906210  31.8398495
  86.6823516  69.9264844  31.1504204  85.2389759  87.8718545  35.7034809
  85.9410338  87.3570534  35.7607565  85.1587242  88.1992696  36.5081684
  85.3313519  87.8432771  35.8307601  99.8903936  75.9661096  39.1166855
  99.0532357  76.0363283  39.3514450  99.8592167  75.9685591  38.2441158
  99.7622219  75.9771323  39.0226403  86.2868665  78.1094132  44.8315224
  86.4589169  78.0000027  45.6800505  86.8238023  78.7548537  44.5946416
  86.3913669  78.1886134  44.9220321  84.9526102  72.2236975  27.7697429
  84.7701676  72.4408856  26.9438422  85.8151715  72.3375987  27.8256043
  85.0530692  72.2726873  27.6551916  84.5640534  84.0624897  35.2120417
  85.4029434  84.2947830  35.2594178  84.5952303  83.1929208  35.1427452
  84.6922252  83.9681843  35.2085061  85.1893237  84.4825772  39.5133722
  85.7291462  84.3396903  40.1837095  84.5063184  84.8822523  39.8817749
  85.1685391  84.5205443  39.6668144  90.6325822  69.2263385  30.8046453
  91.3611982  69.0479340  30.3584609  90.7220714  70.0681465  31.0153631
  90.7532484  69.3247264  30.7699970  94.6134122  80.1616773  34.7078747
  95.3691637  80.5948287  34.7467655  94.7196447  79.5121543  35.2813383
  94.7404293  80.1294257  34.7976772  97.6514293  83.9890050  35.4581150
  97.2149525  83.9926793  36.2140121  97.3177209  84.6695549  35.0260727
  97.5376913  84.0902506  35.5061982  92.2243367  86.0298383  46.7824300
  93.0083784  86.1429231  47.1480042  92.0239961  85.2039520  46.9782986
  92.3109392  85.9245102  46.8658686  80.5930382  80.7026063  39.6668144
  80.3268798  79.8865180  39.8259134  80.6068947  80.7479219  38.7963659
  80.5555105  80.5882968  39.5621626  97.5711776  71.0303878  37.7010578
  98.2137685  71.1001983  38.2872493  97.8234797  70.3633101  37.1990119
  97.7033908  70.9430227  37.7137857  84.4988129  75.5011147  26.2819902
  83.7846306  75.2149327  26.6942334  84.9832098  75.8407773  26.9226289
  84.4647493  75.5092797  26.4375537  85.3428989  74.2404441  42.3135152
  84.6500786  73.7701421  42.5595883  85.9589316  74.0142746  42.8876859
  85.3313519  74.1371573  42.4344304  92.3813760  87.9408485  40.4290756
  91.5829006  87.7007985  40.6864624  92.8299772  87.9922878  41.1757803
  92.3288372  87.9130876  40.5775680 100.7858640  80.7070970  34.3500787
 101.4475074  80.1461638  34.2496695 100.1450052  80.2123001  34.6753478
 100.7887507  80.5507379  34.3833127  91.6735447  84.0041101  26.6581710
  92.0886596  83.6726125  25.9666206  90.8427377  83.7710004  26.5301847
  91.6123456  83.9212357  26.5372558  81.0023796  81.4884842  36.9479888
  80.8199369  81.4631728  36.0952180  81.7373465  81.9583780  36.9868797
  81.0837860  81.5546205  36.8277807  97.0723470  81.7236352  34.0912776
  97.3079059  81.8681551  33.2639626  97.2213034  82.4878760  34.4844289
  97.1289274  81.8575407  34.0276380  84.0669548  78.2069845  43.4561997
  84.7909520  78.1922876  43.9426891  84.1685684  78.9165201  42.9583965
  84.1887757  78.3094548  43.4540784  98.9013927  80.5638018  31.9282379
  99.2322144  81.0965658  31.3222474  99.4747015  80.6176906  32.5844330
  99.0347606  80.6507587  31.9360161  91.4414497  81.6868930  48.3210944
  90.6487478  82.0012442  48.5063563  91.5563424  81.9020398  47.4831728
  91.3409908  81.7652767  48.2249278  94.1145816  78.4102921  32.6105960
  94.2092670  79.1492215  33.0645585  93.4904660  77.9820396  33.0440524
  94.0354846  78.4564242  32.7414107  92.3698290  81.5889134  43.2596240
  92.9437152  80.9516378  43.4144804  92.2913094  81.5893216  42.3905898
  92.4431525  81.4954245  43.1542651  80.9694706  78.3678343  37.0978955
  81.5468209  78.2314794  37.7371200  80.2708768  77.9114127  37.3524539
  80.9515728  78.2800609  37.2301244  94.3668837  80.2551661  25.8442912
  94.2849000  80.3253848  26.7097899  95.0048558  80.8181405  25.6526652
  94.4488675  80.3490632  25.9432861  87.7262009  80.0212399  35.3117438
  87.4681253  79.1884134  35.2848737  87.7810491  80.2470012  34.4709938
  87.6961786  79.9310170  35.1837575  92.8063059  72.1240849  35.4121531
  92.1019385  71.6350035  35.5705450  92.8548033  72.1363324  34.5409975
  92.7093110  72.0530497  35.3060870  86.6996721  77.5750161  35.7982333
  86.1246312  77.7342330  36.4346294  86.3232397  76.9385570  35.3350783
  86.5599533  77.5047974  35.8236891  90.3670009  76.0473511  40.6574711
  89.9784442  75.6227728  40.0026902  89.7024708  76.2955660  41.1651738
  90.2116937  76.0212232  40.6362579 100.0093279  75.8048515  33.4322541
  99.7529843  74.9928457  33.2420424 100.8522592  75.8126082  33.2052728
 100.0959304  75.6860513  33.3707358  76.4453540  77.2190236  33.8126773
  76.5313791  76.8422104  34.5940303  77.0729337  76.8450682  33.3346731
  76.5510091  77.1075718  33.8572251  94.1896371  69.7448139  38.1698695
  94.5706883  69.0626310  38.5566569  93.3859655  69.4557741  37.9874360
  94.1272833  69.6015188  38.2002751  91.4708948  80.2772115  28.8551518
  92.2849586  80.5687008  28.7434289  91.4068089  79.6231977  28.2809811
  91.5811687  80.2237310  28.7540355  97.6918438  82.9598111  43.2681094
  97.4557075  82.1286176  43.1493154  98.3361667  82.9083718  43.8535938
  97.7513109  82.8295799  43.3366987  87.3416856  83.7493633  33.9823830
  87.9790803  83.5105380  34.5275623  87.7671927  83.9530791  33.2476991
  87.4993022  83.7444643  33.9540987  82.0329498  85.9881969  37.8658134
  82.0733644  86.2596820  37.0377913  82.5924022  86.5123877  38.2815922
  82.1212844  86.1057724  37.8050022  87.9819671  78.9695922  28.3198719
  88.3664824  78.7503629  29.0715265  87.7331291  79.7958868  28.4499796
  88.0021743  79.0594069  28.4499796  88.1488211  72.2502338  48.0361304
  87.8341652  73.0201900  47.7730866  87.8278144  71.6872594  47.4513531
  88.0547130  72.2812606  47.9102654  98.7154858  82.7442560  39.3309388
  98.4100675  83.4770617  39.6922704  97.9961074  82.3380489  39.0502174
  98.5642201  82.7924293  39.3422525  89.7238328  84.2266055  35.6617616
  89.7977336  84.0641227  36.5159466  90.5407834  84.4156245  35.4178098
  89.8554686  84.2302798  35.7515642 104.4156651  79.3835561  38.6577732
 104.3481151  79.4031520  37.7880319 104.4012313  80.2265888  38.8833403
 104.4035407  79.5109295  38.5630209  83.4844085  84.5723918  32.6912060
  82.6582202  84.8185655  32.5646339  83.5456076  84.4935999  33.5574118
  83.3718251  84.5968867  32.8001004  85.7020108  70.6392859  33.6507500
  84.8342534  70.7115458  33.7165109  85.9895313  71.4414938  33.8395475
  85.6159856  70.7687006  33.6882267  94.8252997  70.7870718  41.9818822
  95.5706589  70.5980529  41.5682247  94.4090302  71.3128956  41.4232678
  94.8737971  70.8372864  41.8383395  88.2642914  87.1900798  30.3931090
  88.5541212  86.7989780  29.6690316  88.9946394  87.3717503  30.8336365
  88.4149798  87.1594612  30.3513897 102.2015268  78.1579947  36.9324327
 102.7523189  77.5248016  37.1721419 102.1859383  78.6895340  37.6239831
 102.2800464  78.1428895  37.0703185  88.8537659  81.9918544  41.4784220
  88.3549352  82.7034312  41.5569109  89.6637883  82.3119211  41.4402383
  88.8993765  82.1445393  41.4840789  86.2048829  89.1668181  33.4591239
  85.9849125  88.8765535  34.2517906  85.9843351  88.5083136  32.9309152
  86.1396423  89.0267889  33.4980148  85.1165776  81.2541497  35.7246941
  84.8279025  80.6278968  36.2592668  85.9849124  81.1961785  35.7911622
  85.2026028  81.1529041  35.8137896  95.9043674  76.3976281  36.0428923
  95.5608440  75.6766616  36.3936173  96.0036717  76.1890132  35.2007281
  95.8685717  76.2600484  35.9700603  88.3716785  90.5397571  32.2421932
  89.0240843  90.0074013  32.4712958  87.6742394  90.1866223  32.6289806
  88.3647503  90.4087094  32.3334100  85.3198050  82.8936748  31.6489306
  86.0744018  83.2749787  31.8624769  84.7268662  83.3447892  32.1036003
  85.3434763  83.0165576  31.7472185  96.3656703  82.8601985  31.5852911
  96.9314736  83.5195195  31.5011454  95.7184607  83.2051683  32.0569313
  96.3535460  83.0083926  31.6425668  87.7804717  74.8499589  46.7746519
  86.9704492  75.1557368  46.6636361  88.2579403  75.5705171  46.8899103
  87.7308195  75.0014190  46.7753590  86.6396276  84.0645310  37.0229422
  86.1177030  84.2045601  37.7081286  87.0270297  83.3055974  37.2131539
  86.6199977  83.9730833  37.1530498  83.6287460  74.1151118  31.0924376
  83.3412256  73.7452389  30.3556324  84.3157929  74.5845974  30.8308081
  83.6876358  74.1298088  30.9439452  92.8363281  85.8040769  31.0089990
  92.5949957  85.0708629  30.6017055  93.0164614  86.3527626  30.3556324
  92.8270905  85.7763160  30.8520213  88.0662602  81.0949329  32.4210913
  87.8705385  81.7024063  31.8271216  88.2896948  80.4017273  31.9402587
  88.0697243  81.0826854  32.2626993  86.4641132  77.9804067  32.5391781
  87.1863784  78.1445225  32.0795587  85.9849125  78.7013731  32.4331121
  86.5004863  78.1102296  32.4557395  94.4234640  74.3167865  37.9188466
  93.5845740  74.3429144  37.6826729  94.4939007  74.9638601  38.4993813
  94.3103033  74.4163991  37.9697583  84.1148749  80.3862139  41.6445921
  84.6269846  80.6646392  40.9954681  83.8285091  81.1251433  42.0108734
  84.1483612  80.5364493  41.6035799  92.8703918  71.2153242  32.6516082
  93.5730271  71.0160991  32.1736040  92.6048107  70.4429185  32.9584925
  92.9350550  71.0716208  32.6261523  98.2992163  79.5235852  35.2049708
  98.2126138  79.6791278  36.0584487  97.8442643  80.1673928  34.8309113
  98.2195420  79.6411607  35.2756814  81.2015655  74.8932331  31.9409657
  81.3031791  75.6958492  32.2690633  81.9971542  74.6919667  31.6432738
  81.3343561  74.9818230  31.9445013  87.6332474  72.4788528  41.7046962
  87.4415671  72.4943662  42.5546386  88.4831070  72.6752202  41.6813617
  87.7308196  72.5102879  41.8270257  82.0179387  75.0079509  39.6830779
  81.8764879  74.1563450  39.8075287  82.3019950  75.0508170  38.8592985
  82.0387233  74.8879259  39.5798403  92.1717979  76.8446599  33.8275267
  91.9252694  76.7642350  34.6612056  92.5003102  76.0600067  33.6337795
  92.1839223  76.7172865  33.9222790  96.0666028  83.5529959  37.6162048
  95.9280388  84.2511004  38.1210791  95.2866026  83.3978615  37.2598230
  95.9309255  83.6330125  37.6388323  94.4044113  79.8526334  43.8684430
  94.3992152  78.9806150  43.8726857  95.1105107  80.0514503  43.3953886
  94.5089117  79.7530208  43.7991465  88.1315007  79.5803318  43.2398250
  88.2758382  80.1604526  42.6041360  88.4790655  79.9579614  43.9448105
  88.2042468  79.7224022  43.2497245  90.3034924  78.7793486  41.0223382
  89.5558238  78.9724501  40.6171660  90.4576449  77.9538706  40.7847503
  90.2157352  78.6858598  40.9268788  87.2042762  87.7706090  40.1059277
  87.3532325  87.2109005  39.4532682  87.9842764  87.8498091  40.4891796
  87.3416855  87.6991655  40.0656226  97.5619401  82.9108212  28.3778548
  97.1826210  82.1245350  28.3707837  96.8985646  83.4595069  28.2350192
  97.4077876  82.8753036  28.3559345  89.7296062  87.9420732  41.3843768
  89.6539733  87.2729543  41.9394556  89.6585921  88.6438521  41.8984434
  89.7076669  87.9465640  41.5420616  90.5436701  72.6744037  41.9118786
  91.0009315  73.4068011  42.0391578  90.6193030  72.2510502  42.6706041
  90.6227671  72.7201275  42.0419862  82.7869692  72.9209857  43.0008229
  82.2511882  72.3090215  43.3168997  82.8487457  73.4957993  43.6541896
  82.7165325  72.9156784  43.1443656  95.0164027  65.8533912  35.7812629
  95.1347595  66.3110375  35.0479931  94.8426203  65.0479173  35.4948846
  95.0083198  65.8027684  35.6313562  90.3866309  86.4621731  32.2167374
  91.1516200  86.1931375  31.8950038  90.2844399  85.9771742  32.9337437
  90.4847805  86.3511296  32.2747201  88.4219079  74.6646141  38.7560610
  87.6315154  74.4837601  39.0777945  88.8179702  73.8873093  38.7390904
  88.3635955  74.5233602  38.8013158  92.9084970  83.4933915  24.1967323
  93.6757955  83.5534040  23.7873175  92.4616279  82.9214357  23.7123642
  92.9558397  83.4170491  24.0645034  93.8062765  82.2988571  36.4820056
  93.1307767  82.0673803  36.9833443  93.8155141  81.6909754  35.8562161
  93.7081270  82.1747496  36.4636208  90.9356909  77.1406400  43.2384109
  90.8716050  78.0016356  43.1104245  91.0754097  76.8238393  42.4379660
  90.9472379  77.2206567  43.1012321  95.8079500  85.1553703  28.7130233
  95.8899337  85.9620690  28.3891684  96.2929242  85.1749663  29.4371007
  95.8916658  85.2774366  28.7717132  89.6176003  79.8338539  37.3800311
  89.1938252  80.0343038  36.6439330  89.4420858  78.9867387  37.4924611
  89.5286884  79.7387321  37.2874002  89.1187697  91.3489052  39.8421769
  89.6083627  90.6499841  39.6597433  88.5471929  91.0512922  40.4297826
  89.1072227  91.2015276  39.9022810  84.9058448  80.3290591  32.8128284
  85.0623067  80.2637393  33.6684276  85.2459041  81.1039143  32.6006964
  84.9791683  80.4339789  32.9082878  91.4437593  79.7048474  31.6821647
  91.9853138  79.2018855  32.1460268  91.7584152  79.6513669  30.8711132
  91.5701990  79.6227895  31.6305459  95.3154700  83.9151122  48.7948559
  96.1289565  83.6436270  48.9553692  95.1549666  83.6158662  47.9908755
  95.4124649  83.8306048  48.6993965  89.6124042  85.0965826  28.9661675
  89.6816863  84.2380364  29.1054676  90.3912498  85.3137707  28.6380700
  89.7376893  85.0018690  28.9378832  92.5926862  74.5984779  41.7343948
  92.8068832  73.9595693  41.1807302  91.9760761  75.0430603  41.3051809
  92.5332191  74.5694922  41.5894379  94.0031530  87.5203527  33.1798169
  93.6111322  87.2170242  32.4621035  94.1584602  88.3572617  32.9903122
  93.9685120  87.5987364  33.0454666  81.4792710  77.5125541  33.1289051
  81.8591674  77.9310086  32.4649318  80.9048074  78.0938997  33.4357894
  81.4504035  77.6603400  33.0765792  94.7565950  76.2073844  42.6727255
  93.9442632  75.8999734  42.7540427  95.2155885  75.7272844  43.2369967
  94.7046335  76.0910336  42.7681849  94.1671205  84.0853516  33.1204199
  93.8085860  84.2568159  33.8968231  93.6809916  84.5466722  32.5632198
  94.0429902  84.1792487  33.1529468  91.9841591  67.7084714  36.7231290
  91.1135149  67.6823436  36.6764600  92.2381932  67.5361907  35.9057136
  91.8935151  67.6794858  36.5951427  88.9559570  79.7652681  25.6604433
  89.2452095  80.5417564  25.9348008  89.0431369  79.2541413  26.3618933
  89.0113826  79.8044600  25.8046931  91.8519458  77.6133915  47.4555957
  92.3219089  78.2376032  47.8423831  91.8981338  76.9450891  48.0149172
  91.9287333  77.6068596  47.5956028  89.0090731  69.7190943  38.1804761
  88.4929220  69.0271134  38.3056340  88.4484660  70.3861720  38.1267360
  88.8497245  69.7154200  38.1910827  91.0782965  70.2583903  40.0097613
  90.6914718  70.2832934  40.7911143  90.5915902  69.6925582  39.5572130
  90.9495474  70.1779654  40.0585517  95.3275944  84.9757412  44.0671400
  95.9655665  84.4817608  43.7333856  94.6850036  84.9034812  43.4823627
  95.3270171  84.8916420  43.9313755  97.0532944  76.8246558  38.6337316
  96.6260552  76.7372906  37.8785415  96.4158997  76.9324333  39.2192160
  96.8962551  76.8279218  38.6082757  90.7440106  67.1450888  42.3007873
  91.3733224  67.6811188  42.0228944  90.9125969  67.0528247  43.1521439
  90.8617901  67.2112251  42.3856401  90.5454021  71.9322083  44.5734285
  91.3727451  71.6607232  44.6292899  90.5661867  72.7282925  44.9298103
  90.6706871  72.0101837  44.6349468  95.3830201  85.6677220  40.7076757
  96.1722579  85.3166285  40.8278838  95.5573799  86.4813609  40.4453391
  95.5250482  85.7363077  40.6864625  85.1223511  79.0785946  37.7604546
  84.2811518  78.9789820  37.9683439  85.3313519  79.8481426  38.1118866
  85.0288204  79.1777989  37.8431860  82.5999078  76.7005483  35.5889296
  82.2055776  76.7748495  34.8139406  82.0439195  77.0863429  36.1397658
  82.4601890  76.7687257  35.5556956  94.2364025  69.6786777  35.2693175
  94.4413618  69.6109085  36.1150172  93.9090449  70.4845598  35.2014353
  94.2179273  69.7872717  35.3852830  88.9340176  77.0067345  37.0102143
  88.6303314  76.4523333  37.6112551  88.2319597  77.1859555  36.5230177
  88.7856386  76.9512127  37.0271849  87.9906273  74.3167865  31.5746845
  88.2666007  73.5986777  31.1624412  88.5904942  74.9152785  31.3667951
  88.1199538  74.2988236  31.4827606  86.9958527  84.2217066  41.7174241
  86.8878882  84.2319128  42.5836299  87.2054309  85.0471846  41.5279195
  87.0108638  84.3458141  41.8178332  97.4897713  70.2318541  34.7495941
  96.8772026  70.7188943  35.1349672  97.5861888  69.5562032  35.2933592
  97.4135610  70.2036850  34.8874799  91.4916794  71.9881382  29.8493440
  91.9460540  72.1591943  30.5741284  91.9656839  71.3749493  29.4491216
  91.6285114  71.9232267  29.8967201  85.0132319  81.4729708  39.1796178
  84.4220252  82.1139206  39.1499194  85.7753343  81.8967325  39.1527478
  85.0380580  81.6305547  39.1711326  85.4092942  72.6331706  39.8464196
  85.8694423  72.7070635  40.5839320  85.4549049  73.4312960  39.4964017
  85.4843497  72.7625853  39.9036953  87.0576292  73.2998401  44.4136223
  86.6661857  72.6531748  44.8492001  87.2262154  73.8909836  45.0330479
  87.0247202  73.2912669  44.5698929 101.1322741  81.3035478  40.1773457
 101.1905864  81.7522127  40.9233433 100.4989208  81.7134291  39.7403537
 101.0474036  81.4309213  40.2226005  94.7721835  86.9239020  36.6128203
  94.5741524  87.4129834  35.9184414  94.1509546  87.1280261  37.1912336
  94.6509400  87.0255558  36.5951426  88.8329814  78.6923917  30.9538447
  89.5771859  79.0798193  31.1921397  88.9790510  77.8481342  31.1178935
  88.9640399  78.6254389  31.0132417  90.7509389  70.4874176  35.9870309
  89.9045434  70.6596983  35.8611658  90.7480522  69.6823519  36.3236137
  90.6256539  70.3935204  36.0181436  91.8207690  74.2649390  36.8532366
  91.3467644  73.7391152  37.3637677  92.1925825  73.7178863  36.2847228
  91.8057578  74.1065387  36.8447514  82.1980720  76.2620897  42.2215912
  83.0606333  76.1616606  42.1353242  81.8672503  75.6815606  41.6601484
  82.2765916  76.1612523  42.1261318  98.0844420  79.3251766  38.2639147
  97.8442643  78.4858181  38.2681573  98.5636427  79.4051932  38.9879921
  98.1196604  79.2133165  38.3713949  93.7491189  75.1585945  29.9158120
  93.2214208  75.2414688  29.2263829  94.2086897  75.9003816  29.9122765
  93.7393040  75.2806607  29.8132815 100.0849607  76.1053223  36.2168406
  99.8459377  76.0649057  35.3789191 100.2483508  76.9524375  36.3434127
 100.0739911  76.2245308  36.1121888  96.6895637  80.4903172  42.1473451
  97.4129836  80.0375699  41.9684471  96.4245600  80.7707838  41.3645779
  96.7576911  80.4654141  42.0052167  85.5582506  75.0863346  38.8826330
  84.9335576  75.0981738  38.2752283  85.2228100  75.5623521  39.5317571
  85.4167997  75.1581863  38.8882899  85.7424254  73.4288464  24.9399015
  85.3937059  74.0808189  25.4030565  85.2620700  73.4145577  24.2122887
  85.6194498  73.5231518  24.9010107  82.2708181  83.1463806  40.3230095
  81.7408106  82.4556245  40.3725069  82.5433274  83.1373991  39.4942803
  82.2332903  83.0430938  40.2077511  93.3028272  83.7289508  29.0467777
  94.0262471  84.1947621  28.9032351  92.8628863  83.7963118  28.2965374
  93.3443964  83.8073345  28.9152559  92.4714427  80.5887050  40.2968466
  91.8571420  80.0445101  40.5917102  92.9881712  80.0751287  39.8174282
  92.4570089  80.4323459  40.2692695  91.7110724  81.6591320  38.0312765
  91.2838332  81.0341039  37.5978200  91.7035668  81.3766242  38.8571772
  91.6469865  81.5244101  38.0892593  84.8273251  76.6956493  41.1001199
  84.9866738  75.9399818  41.5052921  84.6466145  77.2447433  41.7541937
  84.8238610  76.6650307  41.2563905  92.7693554  68.8617729  41.6551988
  92.2734115  69.0581403  40.9643555  93.5262616  69.2610397  41.4840790
  92.8080379  68.9495463  41.5272125  90.0396434  72.5360075  38.2455299
  90.0638921  72.0020187  37.5568079  90.2907907  72.0277384  38.9080890
  90.0806352  72.3820979  38.2419944  77.5504023  79.8191570  37.6798443
  77.4447472  79.7738414  36.8150527  76.8004243  80.1645350  37.9612728
  77.4239626  79.8632478  37.5935773  86.3197756  71.2630893  37.6261043
  86.3596127  71.7640100  38.3395751  85.4947420  71.3541287  37.3566966
  86.2037282  71.3512709  37.6911582  88.5027369  80.8291633  45.7281338
  87.6522999  80.9663347  45.8638983  88.6655496  80.0955411  46.1729040
  88.4011232  80.7405734  45.8136937  87.7412119  77.7791403  39.9234942
  86.9104049  77.9465221  39.7170190  87.6863636  77.4027354  40.7083828
  87.6101534  77.7481134  40.0083470  85.5495902  71.2700296  45.5591353
  86.1748606  70.7262429  45.8320785  85.0946382  70.7895213  44.9899143
  85.5744163  71.1189777  45.5152947  86.1148163  76.0546995  30.4525060
  86.2551124  76.5519459  31.1553701  86.6130696  75.3533289  30.5939274
  86.2089244  76.0248973  30.5776639  86.1448385  76.9214106  27.7817637
  86.7793465  77.5174531  27.7167099  86.2273996  76.6217563  28.5963507
  86.2504936  76.9655014  27.8920723  99.1230951  79.4529583  40.6504001
  99.7148791  80.0926834  40.6822199  99.5589946  78.7552620  40.9396068
  99.2749382  79.4447933  40.6984834  87.7227368  72.8528081  27.7563079
  88.0443209  72.3731163  27.1022341  87.9854312  73.6627727  27.5653890
  87.8093394  72.9017979  27.6318571  90.9524341  83.8746955  41.2761895
  90.4449432  84.4282802  41.7202525  90.6550987  83.9355245  40.4580669
  90.8329226  83.9653266  41.2210352  93.1186523  72.2400275  40.1186558
  93.5441595  71.7872801  39.5070084  92.5043516  71.6860346  40.3951345
  93.0915169  72.0914251  40.0691583  82.6501373  79.1181946  31.0507183
  83.1593603  79.7146454  31.4318488  83.1235646  78.8507920  30.3683602
  82.7944749  79.1667762  31.0061706  93.5632121  87.7910213  29.2065838
  92.8461431  87.6171075  28.7413076  94.2138859  87.5562785  28.6741324
  93.5533972  87.7306005  29.0595056  91.5580746  68.7115375  33.5277135
  90.9149064  68.5613021  34.0962273  91.2180153  68.4657720  32.7626240
  91.4125823  68.6527497  33.4980150  96.1480093  76.6674802  32.9507143
  95.4771282  77.2104504  32.8220209  96.8419843  77.1369657  32.7088838
  96.1508960  76.8173073  32.8962671  90.1966826  88.8071514  38.1818902
  89.9732481  88.0490343  38.5502928  89.7076670  88.8369535  37.4599341
  90.0910275  88.6993738  38.1295643  96.3108220  73.1230685  35.8597517
  96.6635830  72.6960408  36.5343315  95.4523022  73.0381529  35.9898593
  96.2357665  73.0475426  35.9792527  85.0091905  75.7538205  33.9180363
  84.2903894  76.1702337  34.1853227  85.3804267  76.3192444  33.3672001
  84.9583837  75.8987486  33.8763170  94.3091486  76.3866054  39.8082359
  94.2889413  76.2049349  40.6617138  94.3570687  77.2578072  39.7841943
  94.3126127  76.4882592  39.9305654  92.2537816  82.9753246  45.7330836
  92.2133671  82.3302923  45.1475991  93.0661134  82.9189863  46.0456248
  92.3680969  82.8712213  45.6927785  88.8445283  89.0271972  35.6355986
  88.4305682  88.3646102  35.2459828  89.5292657  89.1749830  35.1151681
  88.8843655  88.9512630  35.5012484  92.2110577  88.1862057  36.3879603
  91.8126861  88.2964327  35.6200423  91.5961797  88.3944123  36.9706163
  92.0609467  88.2335625  36.3610902  90.7838479  74.7936205  29.2553743
  90.1903319  75.1153201  28.7038310  90.8213757  73.9477300  29.0474849
  90.7012869  74.7160533  29.1436514  97.7432280  68.2449097  36.7881829
  97.2363145  67.5378237  36.7203007  98.5399714  67.9142286  36.9182906
  97.7859519  68.0922248  36.7980824  93.6596296  74.7515709  32.6855493
  93.4309989  74.7748411  31.8433851  93.9194372  73.9273176  32.8050503
  93.6642484  74.6331789  32.5780691  87.9415524  76.6050182  42.2880593
  87.4294427  75.9971365  42.6465625  87.7695021  77.3206775  42.7554569
  87.8405161  76.6213482  42.4096817  82.7881239  75.0487758  44.9382955
  82.6183829  75.7089132  44.3931162  82.3447189  75.2594319  45.6595444
  82.6980573  75.1773740  44.9644584  86.7141058  73.2892256  33.9809689
  87.1898425  73.6509335  33.3459870  86.2129658  73.9448723  34.2609831
  86.7106417  73.4386444  33.9286430  99.9452420  82.7614024  29.7722694
 100.3286026  83.5105380  30.0020791  99.1496533  83.0079843  29.5134683
  99.8846202  82.9083717  29.7680267  91.8184595  74.5274427  44.7282849
  92.3756025  74.2988236  44.0961314  91.4945660  75.2880093  44.4518061
  91.8531005  74.6058264  44.5939346  79.6883304  77.9534623  40.1971445
  79.1410023  77.2835269  40.3152313  80.4775682  77.5864471  40.2614912
  79.7235487  77.7999610  40.2240145  89.5367712  77.6142080  45.6934856
  90.2879039  77.9293757  46.0074410  89.7290288  77.4121251  44.8668778
  89.6759126  77.6309462  45.6178252  88.7567712  75.4333455  27.3483073
  89.1366676  75.4513085  26.5634187  88.0160308  75.8787444  27.2273920
  88.7036549  75.5015230  27.2146641  96.3853002  73.7415647  32.9358651
  96.3847229  73.5864303  33.7942928  96.1809182  74.5878634  32.8800037
  96.3552780  73.8436267  33.0546591  78.4470273  77.1655431  37.3517468
  78.2692034  76.7132040  38.0772383  78.1589295  77.9681592  37.5355945
  78.3783226  77.2177989  37.4860971  94.1093854  78.4213148  36.5894858
  94.6047520  77.7036143  36.5498878  93.2993630  78.1183946  36.4749345
  94.0637747  78.2710795  36.5668584  89.5552466  82.2710962  28.7391863
  88.7463788  81.9477635  28.6925172  90.0627375  81.5644184  28.6720111
  89.5102132  82.1192278  28.7222157  80.1842743  79.6983155  34.4639227
  79.3188262  79.6868845  34.3521998  80.2841559  79.5113378  35.3110366
  80.0716910  79.6689216  34.5728171  96.1745673  81.1716836  39.2771987
  96.6000745  80.6491258  38.7242412  95.8102593  81.7697673  38.7560610
  96.1832276  81.1827063  39.1180997  85.8099753  89.4681053  38.0369332
  86.1246312  90.2817442  38.0447114  86.2193166  89.0831272  38.7051492
  85.9167851  89.5309756  38.1373424  92.7624273  84.8851100  35.6073144
  93.2335451  85.5991363  35.7763130  93.0984451  84.2849850  36.1433014
  92.8819388  84.9022564  35.7105520  94.8501257  86.4952413  47.7865216
  94.9598223  85.7060974  48.1421964  95.1792154  86.4058350  46.9839555
  94.9153663  86.3658266  47.7207607  89.6793767  69.6578571  42.5631239
  89.8121673  68.8609564  42.8912215  90.0638920  70.1844974  43.1429515
  89.7550096  69.6178487  42.6974742  93.3998219  84.6769034  42.3700837
  92.8519165  84.0526918  42.1020902  93.8611248  84.8663306  41.6544916
  93.3865428  84.6128084  42.2251268  92.7526123  66.5808897  39.1612332
  91.9472086  66.4706626  39.4780171  92.6232858  66.6821353  38.3042198
  92.6146255  66.5792567  39.0820373  96.2092083  72.7454389  39.7552029
  95.6255072  73.2463595  39.3429597  96.5296377  72.2383945  39.1216353
  96.1705259  72.7446224  39.6010537  88.7486882  71.6594984  30.0310704
  89.5702577  71.8293296  29.7892399  88.2856533  71.8142245  29.3077002
  88.8018045  71.7076717  29.8882348  87.3382214  69.6537746  40.8109133
  87.8826627  69.3128873  41.4013475  87.3919150  70.5123207  40.9530417
  87.4271334  69.7293005  40.9191006  83.1512773  83.4154162  37.6847941
  83.7557630  83.3749996  37.0561762  82.9440086  84.2625314  37.7151997
  83.2101670  83.5342164  37.5964057  92.9656545  85.6820107  38.9010178
  93.7854919  85.5383073  39.1626473  92.6850623  86.3066306  39.4426616
  93.0453289  85.7530459  39.0198118  78.3864055  82.3988779  37.5546864
  78.2888333  81.5885051  37.8636921  79.1692925  82.3780573  37.1693132
  78.4880192  82.2755869  37.5433727 109.4370196  93.3384959  31.8653055
 109.4064200  94.1929595  32.0371324 110.0351544  93.0380251  32.4239198
 109.5207353  93.4201455  31.9727857 102.6369880  92.4260610  36.6205985
 101.7807776  92.5869108  36.6715102 102.6837534  91.5552674  36.6411046
 102.5168992  92.3211412  36.6312051  97.0211020 101.9623328  32.3843217
  96.2693920 101.5838866  32.1559262  97.4697032 101.9941761  31.6362027
  96.9760687 101.9108935  32.2400719 105.9463597  98.6947135  46.2266441
 106.6530364  98.1999166  46.3553376 106.1351532  99.1356217  45.4969099
 106.0791503  98.6865486  46.1375487 102.4735980 102.3848697  27.8128764
 102.1387348 103.0625619  27.3772986 102.9862850 101.9954008  27.2245635
 102.5001561 102.4273275  27.6615555 102.0140271 104.3362966  33.7539875
 102.3979651 104.9049864  33.2144650 101.9499412 103.6112476  33.2745691
 102.0613698 104.3138429  33.6033738 105.4821701  94.4852654  39.2637637
 106.0277661  95.1637740  39.3231606 105.4238578  94.3440114  38.4039218
 105.5537616  94.5644655  39.1449697  98.5995776 101.9741720  34.6505989
  98.7006139 101.1642074  34.9603117  98.0037522 101.8798666  34.0205668
  98.5268315 101.8406748  34.6032228 107.2586770  95.9137261  30.1371364
 107.1426296  96.6644947  30.5663503 108.0542657  95.6561214  30.3867451
 107.3591359  95.9872108  30.2375456  98.4396516 106.8919309  36.0520845
  99.0833971 107.3332473  36.4417003  98.7652771 106.0872735  35.9651104
  98.5828345 106.8384504  36.0966322  91.7960821  97.9962006  34.2758323
  91.5611005  97.1629659  34.1690592  91.9346461  98.2766672  33.4619524
  91.7816483  97.9145510  34.1400678  94.0950908  90.1647737  37.1742630
  93.4755940  89.5740384  37.0052645  93.9934772  90.7559172  36.5406954
  93.9888584  90.1651819  37.0547620  99.1417096  99.9031284  31.4240707
  99.4632937 100.4436491  30.8202015  99.7889192  99.3328055  31.5562997
  99.2843151  99.8990459  31.3547742 101.1918804  91.9047279  31.5075094
 101.8898968  92.0835406  31.9996557 101.5071136  91.3817618  30.8845483
 101.3414141  91.8541051  31.4877104  93.8220041  93.7100019  39.4186199
  93.6978738  94.2962464  40.0536018  94.4738326  93.2160214  39.7198474
  93.8993690  93.7238823  39.5572129 101.3806739  98.2917724  31.4954885
 101.8200375  97.6834824  31.9409658 101.2311402  97.9125097  30.7240350
 101.4228205  98.1456195  31.4474052  98.8478382  96.8861736  38.6973710
  99.4927385  96.3934179  38.3784659  99.0880159  97.0286522  39.5239789
  98.9788967  96.8339178  38.7723244 101.3864473  99.7316641  38.3480603
 101.6687716  98.9368047  38.1267359 102.1150634 100.2097229  38.3685664
 101.5354037  99.6851238  38.3183618  99.3645667  87.2739675  35.5896368
  99.0348997  87.7250819  34.9200067  98.6890669  87.1955839  36.1369375
  99.2156104  87.3290811  35.5719591 104.9816076  96.6444905  28.4485654
 104.8967371  97.5005872  28.5935223 105.4700459  96.3689229  29.1167813
 105.0404973  96.7302226  28.5687736 106.5722075  83.2625198  33.8345979
 106.2575516  83.9528677  34.2666401 106.0549017  83.2069980  33.1331479
 106.4486545  83.3560087  33.7942928 105.9134509  93.2629699  29.9483389
 105.3845980  93.4789333  30.6080696 106.4359529  93.9565838  29.8684359
 105.9122962  93.3972836  30.0338989 111.3682562  98.8376004  35.3216434
 110.5380265  99.0486647  35.4849850 111.3191814  98.0113058  35.0458717
 111.2389297  98.7465610  35.3053799  97.8034117  97.1592916  28.7490857
  97.2191332  97.6642947  29.1556721  97.4004212  96.9335303  28.0087449
  97.6573420  97.2001164  28.6995883  93.3578145 102.8747677  35.5514529
  92.8745723 103.5998167  35.5274112  94.1701463 103.1723807  35.6624687
  93.4068893 103.0250031  35.5641808  99.4292299 101.6679858  38.1564343
  98.9119241 101.3087273  37.5525651 100.1266691 101.1442032  38.1670409
  99.4557880 101.5377546  38.0694602 103.0855891 102.1174672  44.1180516
 103.1739237 101.9300812  44.9658727 103.5145604 101.4712101  43.7185363
 103.1617994 101.9937680  44.1852268 100.6526351 101.4005832  43.0998179
 100.0897186 100.9878442  43.6237840 101.4147375 101.3258737  43.5191322
 100.6820800 101.3283232  43.2391179 102.2611331  93.4058568  27.2259778
 102.5007335  93.6136552  26.4135121 102.5827172  92.6016077  27.3348722
 102.3448489  93.3172669  27.1220331  97.5701621  85.3351964  31.0719316
  98.3247589  85.7030281  30.8336366  97.3929156  85.7091518  31.8398495
  97.6556100  85.4450152  31.1504204  96.2122342 103.3903853  35.7034809
  96.9142922 102.8755842  35.7607565  96.1319826 103.7178004  36.5081684
  96.3046103 103.3618079  35.8307601 110.8636520  91.4846404  39.1166855
 110.0264941  91.5548591  39.3514450 110.8324751  91.4870899  38.2441158
 110.7354802  91.4956631  39.0226403  97.2601249  93.6279440  44.8315224
  97.4321753  93.5185335  45.6800505  97.7970607  94.2733845  44.5946416
  97.3646253  93.7071442  44.9220321  95.9258686  87.7422283  27.7697429
  95.7434259  87.9594164  26.9438422  96.7884299  87.8561295  27.8256043
  96.0263275  87.7912181  27.6551916  95.5373118  99.5810205  35.2120417
  96.3762017  99.8133138  35.2594178  95.5684887  98.7114516  35.1427452
  95.6654835  99.4867151  35.2085061  96.1625821 100.0011080  39.5133722
  96.7024046  99.8582211  40.1837095  95.4795767 100.4007831  39.8817749
  96.1417975 100.0390751  39.6668144 101.6058405  84.7448693  30.8046453
 102.3344566  84.5664648  30.3584609 101.6953298  85.5866773  31.0153631
 101.7265067  84.8432572  30.7699970 105.5866706  95.6802081  34.7078747
 106.3424221  96.1133595  34.7467655 105.6929030  95.0306850  35.2813383
 105.7136876  95.6479565  34.7976772 108.6246877  99.5075358  35.4581150
 108.1882109  99.5112100  36.2140121 108.2909792 100.1880857  35.0260727
 108.5109497  99.6087814  35.5061982 103.1975951 101.5483691  46.7824300
 103.9816367 101.6614539  47.1480042 102.9972545 100.7224828  46.9782986
 103.2841976 101.4430410  46.8658686  91.5662966  96.2211371  39.6668144
  91.3001381  95.4050488  39.8259134  91.5801530  96.2664526  38.7963659
  91.5287688  96.1068276  39.5621626 108.5444360  86.5489186  37.7010578
 109.1870268  86.6187290  38.2872493 108.7967381  85.8818409  37.1990119
 108.6766492  86.4615534  37.7137857  95.4720713  91.0196455  26.2819902
  94.7578890  90.7334635  26.6942334  95.9564682  91.3593081  26.9226289
  95.4380076  91.0278105  26.4375537  96.3161572  89.7589749  42.3135152
  95.6233369  89.2886729  42.5595883  96.9321900  89.5328054  42.8876859
  96.3046102  89.6556881  42.4344304 103.3546344 103.4593793  40.4290756
 102.5561590 103.2193293  40.6864624 103.8032355 103.5108186  41.1757803
 103.3020955 103.4316184  40.5775680 111.7591223  96.2256278  34.3500787
 112.4207657  95.6646946  34.2496695 111.1182635  95.7308309  34.6753478
 111.7620091  96.0692687  34.3833127 102.6468031  99.5226409  26.6581710
 103.0619179  99.1911433  25.9666206 101.8159960  99.2895312  26.5301847
 102.5856040  99.4397665  26.5372558  91.9756380  97.0070150  36.9479888
  91.7931953  96.9817036  36.0952180  92.7106049  97.4769088  36.9868797
  92.0570444  97.0731513  36.8277807 108.0456054  97.2421660  34.0912776
 108.2811643  97.3866859  33.2639626 108.1945617  98.0064068  34.4844289
 108.1021857  97.3760715  34.0276380  95.0402131  93.7255153  43.4561997
  95.7642104  93.7108184  43.9426891  95.1418268  94.4350508  42.9583965
  95.1620340  93.8279856  43.4540784 109.8746511  96.0823326  31.9282379
 110.2054728  96.6150966  31.3222474 110.4479599  96.1362214  32.5844330
 110.0080190  96.1692895  31.9360161 102.4147081  97.2054238  48.3210944
 101.6220062  97.5197750  48.5063563 102.5296008  97.4205706  47.4831728
 102.3142491  97.2838075  48.2249278 105.0878400  93.9288229  32.6105960
 105.1825254  94.6677523  33.0645585 104.4637243  93.5005704  33.0440524
 105.0087430  93.9749550  32.7414107 103.3430874  97.1074442  43.2596240
 103.9169735  96.4701686  43.4144804 103.2645677  97.1078524  42.3905898
 103.4164108  97.0139553  43.1542651  91.9427290  93.8863651  37.0978955
  92.5200793  93.7500102  37.7371200  91.2441352  93.4299435  37.3524539
  91.9248311  93.7985917  37.2301244 105.3401421  95.7736969  25.8442912
 105.2581584  95.8439156  26.7097899 105.9781141  96.3366713  25.6526652
 105.4221258  95.8675940  25.9432861  98.6994592  95.5397707  35.3117438
  98.4413836  94.7069442  35.2848737  98.7543075  95.7655320  34.4709938
  98.6694370  95.4495478  35.1837575 103.7795642  87.6426157  35.4121531
 103.0751969  87.1535343  35.5705450 103.8280617  87.6548632  34.5409975
 103.6825694  87.5715805  35.3060870  97.6729304  93.0935469  35.7982333
  97.0978896  93.2527638  36.4346294  97.2964981  92.4570878  35.3350783
  97.5332117  93.0233282  35.8236891 101.3402593  91.5658818  40.6574711
 100.9517026  91.1413036  40.0026902 100.6757291  91.8140968  41.1651738
 101.1849521  91.5397540  40.6362579 110.9825862  91.3233823  33.4322541
 110.7262427  90.5113765  33.2420424 111.8255176  91.3311390  33.2052728
 111.0691887  91.2045821  33.3707358  87.4186123  92.7375544  33.8126773
  87.5046375  92.3607412  34.5940303  88.0461921  92.3635990  33.3346731
  87.5242674  92.6261026  33.8572251 105.1628954  85.2633447  38.1698695
 105.5439466  84.5811618  38.5566569 104.3592239  84.9743049  37.9874360
 105.1005416  85.1200496  38.2002751 102.4441531  95.7957423  28.8551518
 103.2582170  96.0872316  28.7434289 102.3800672  95.1417285  28.2809811
 102.5544270  95.7422618  28.7540355 108.6651021  98.4783419  43.2681094
 108.4289659  97.6471484  43.1493154 109.3094250  98.4269026  43.8535938
 108.7245692  98.3481107  43.3366987  98.3149439  99.2678940  33.9823830
  98.9523386  99.0290688  34.5275623  98.7404511  99.4716099  33.2476991
  98.4725606  99.2629951  33.9540987  93.0062082 101.5067277  37.8658134
  93.0466227 101.7782128  37.0377913  93.5656606 102.0309185  38.2815922
  93.0945428 101.6243032  37.8050022  98.9552254  94.4881230  28.3198719
  99.3397407  94.2688937  29.0715265  98.7063875  95.3144176  28.4499796
  98.9754327  94.5779376  28.4499796  99.1220795  87.7687645  48.0361304
  98.8074236  88.5387208  47.7730866  98.8010727  87.2057901  47.4513531
  99.0279714  87.7997914  47.9102654 109.6887442  98.2627868  39.3309388
 109.3833259  98.9955925  39.6922704 108.9693658  97.8565797  39.0502174
 109.5374784  98.3109601  39.3422525 100.6970911  99.7451363  35.6617616
 100.7709920  99.5826535  36.5159466 101.5140418  99.9341553  35.4178098
 100.8287270  99.7488105  35.7515642 115.3889234  94.9020869  38.6577732
 115.3213734  94.9216828  37.7880319 115.3744897  95.7451196  38.8833403
 115.3767991  95.0294603  38.5630209  94.4576668 100.0909226  32.6912060
  93.6314786 100.3370963  32.5646339  94.5188659 100.0121307  33.5574118
  94.3450835 100.1154175  32.8001004  96.6752692  86.1578167  33.6507500
  95.8075117  86.2300766  33.7165109  96.9627896  86.9600246  33.8395475
  96.5892440  86.2872314  33.6882267 105.7985581  86.3056026  41.9818822
 106.5439173  86.1165837  41.5682247 105.3822885  86.8314264  41.4232678
 105.8470555  86.3558172  41.8383395  99.2375497 102.7086106  30.3931090
  99.5273796 102.3175087  29.6690316  99.9678978 102.8902811  30.8336365
  99.3882381 102.6779920  30.3513897 113.1747851  93.6765255  36.9324327
 113.7255773  93.0433324  37.1721419 113.1591967  94.2080648  37.6239831
 113.2533048  93.6614203  37.0703185  99.8270242  97.5103852  41.4784220
  99.3281936  98.2219620  41.5569109 100.6370467  97.8304519  41.4402383
  99.8726349  97.6630701  41.4840789  97.1781413 104.6853489  33.4591239
  96.9581708 104.3950843  34.2517906  96.9575935 104.0268444  32.9309152
  97.1129007 104.5453197  33.4980148  96.0898360  96.7726805  35.7246941
  95.8011609  96.1464276  36.2592668  96.9581708  96.7147093  35.7911622
  96.1758612  96.6714349  35.8137896 106.8776258  91.9161588  36.0428923
 106.5341024  91.1951924  36.3936173 106.9769300  91.7075440  35.2007281
 106.8418301  91.7785792  35.9700603  99.3449368 106.0582879  32.2421932
  99.9973426 105.5259321  32.4712958  98.6474977 105.7051531  32.6289806
  99.3380086 105.9272402  32.3334100  96.2930633  98.4122056  31.6489306
  97.0476601  98.7935095  31.8624769  95.7001246  98.8633200  32.1036003
  96.3167347  98.5350884  31.7472185 107.3389287  98.3787293  31.5852911
 107.9047319  99.0380502  31.5011454 106.6917190  98.7236991  32.0569313
 107.3268043  98.5269234  31.6425668  98.7537300  90.3684896  46.7746519
  97.9437076  90.6742676  46.6636361  99.2311987  91.0890479  46.8899103
  98.7040779  90.5199498  46.7753590  97.6128860  99.5830617  37.0229422
  97.0909613  99.7230909  37.7081286  98.0002880  98.8241282  37.2131539
  97.5932561  99.4916141  37.1530498  94.6020044  89.6336426  31.0924376
  94.3144840  89.2637697  30.3556324  95.2890512  90.1031282  30.8308081
  94.6608941  89.6483396  30.9439452 103.8095865 101.3226077  31.0089990
 103.5682541 100.5893937  30.6017055 103.9897198 101.8712934  30.3556324
 103.8003489 101.2948468  30.8520213  99.0395185  96.6134637  32.4210913
  98.8437968  97.2209371  31.8271216  99.2629531  95.9202581  31.9402587
  99.0429827  96.6012162  32.2626993  97.4373716  93.4989374  32.5391781
  98.1596367  93.6630533  32.0795587  96.9581708  94.2199039  32.4331121
  97.4737446  93.6287604  32.4557395 105.3967223  89.8353173  37.9188466
 104.5578324  89.8614452  37.6826729 105.4671590  90.4823909  38.4993813
 105.2835617  89.9349299  37.9697583  95.0881332  95.9047447  41.6445921
  95.6002429  96.1831700  40.9954681  94.8017675  96.6436741  42.0108734
  95.1216195  96.0549801  41.6035799 103.8436501  86.7338550  32.6516082
 104.5462854  86.5346299  32.1736040 103.5780690  85.9614493  32.9584925
 103.9083134  86.5901516  32.6261523 109.2724747  95.0421160  35.2049708
 109.1858721  95.1976586  36.0584487 108.8175227  95.6859236  34.8309113
 109.1928004  95.1596915  35.2756814  92.1748239  90.4117639  31.9409657
  92.2764375  91.2143800  32.2690633  92.9704125  90.2104975  31.6432738
  92.3076144  90.5003537  31.9445013  98.6065058  87.9973835  41.7046962
  98.4148255  88.0128970  42.5546386  99.4563654  88.1937510  41.6813617
  98.7040780  88.0288187  41.8270257  92.9911971  90.5264817  39.6830779
  92.8497462  89.6748758  39.8075287  93.2752534  90.5693478  38.8592985
  93.0119817  90.4064567  39.5798403 103.1450563  92.3631907  33.8275267
 102.8985277  92.2827658  34.6612056 103.4735686  91.5785375  33.6337795
 103.1571807  92.2358172  33.9222790 107.0398612  99.0715266  37.6162048
 106.9012971  99.7696312  38.1210791 106.2598610  98.9163923  37.2598230
 106.9041839  99.1515433  37.6388323 105.3776697  95.3711642  43.8684430
 105.3724735  94.4991458  43.8726857 106.0837691  95.5699811  43.3953886
 105.4821701  95.2715516  43.7991465  99.1047590  95.0988626  43.2398250
  99.2490966  95.6789834  42.6041360  99.4523239  95.4764922  43.9448105
  99.1775052  95.2409330  43.2497245 101.2767508  94.2978794  41.0223382
 100.5290822  94.4909808  40.6171660 101.4309033  93.4724014  40.7847503
 101.1889935  94.2043905  40.9268788  98.1775345 103.2891397  40.1059277
  98.3264909 102.7294313  39.4532682  98.9575347 103.3683399  40.4891796
  98.3149439 103.2176963  40.0656226 108.5351985  98.4293520  28.3778548
 108.1558793  97.6430658  28.3707837 107.8718230  98.9780377  28.2350192
 108.3810459  98.3938344  28.3559345 100.7028646 103.4606040  41.3843768
 100.6272317 102.7914851  41.9394556 100.6318505 104.1623829  41.8984434
 100.6809253 103.4650948  41.5420616 101.5169285  88.1929345  41.9118786
 101.9741899  88.9253319  42.0391578 101.5925613  87.7695810  42.6706041
 101.5960254  88.2386583  42.0419862  93.7602276  88.4395165  43.0008229
  93.2244465  87.8275523  43.3168997  93.8220041  89.0143300  43.6541896
  93.6897909  88.4342092  43.1443656 105.9896611  81.3719220  35.7812629
 106.1080179  81.8295683  35.0479931 105.8158786  80.5664481  35.4948846
 105.9815782  81.3212992  35.6313562 101.3598893 101.9807039  32.2167374
 102.1248784 101.7116683  31.8950038 101.2576983 101.4957050  32.9337437
 101.4580388 101.8696604  32.2747201  99.3951663  90.1831449  38.7560610
  98.6047737  90.0022909  39.0777945  99.7912285  89.4058401  38.7390904
  99.3368539  90.0418910  38.8013158 104.7795349  97.8173879  36.4820056
 104.1040351  97.5859111  36.9833443 104.7887725  97.2095062  35.8562161
 104.6813853  97.6932804  36.4636208 101.9089493  92.6591708  43.2384109
 101.8448634  93.5201664  43.1104245 102.0486681  92.3423701  42.4379660
 101.9204963  92.7391874  43.1012321 106.7812083 100.6739011  28.7130233
 106.8631921 101.4805997  28.3891684 107.2661826 100.6934970  29.4371007
 106.8649241 100.7959674  28.7717132 100.5908587  95.3523847  37.3800311
 100.1670836  95.5528346  36.6439330 100.4153442  94.5052695  37.4924611
 100.5019467  95.2572629  37.2874002 100.0920280 106.8674360  39.8421769
 100.5816210 106.1685149  39.6597433  99.5204512 106.5698230  40.4297826
 100.0804810 106.7200584  39.9022810  95.8791032  95.8475899  32.8128284
  96.0355651  95.7822701  33.6684276  96.2191625  96.6224451  32.6006964
  95.9524267  95.9525097  32.9082878 102.4170176  95.2233782  31.6821647
 102.9585722  94.7204163  32.1460268 102.7316735  95.1698977  30.8711132
 102.5434573  95.1413203  31.6305459 106.2887284  99.4336430  48.7948559
 107.1022149  99.1621578  48.9553692 106.1282250  99.1343969  47.9908755
 106.3857232  99.3491356  48.6993965 100.5856626 100.6151134  28.9661675
 100.6549446  99.7565672  29.1054676 101.3645081 100.8323015  28.6380700
 100.7109476 100.5203998  28.9378832 103.5659446  90.1170087  41.7343948
 103.7801415  89.4781001  41.1807302 102.9493345  90.5615911  41.3051809
 103.5064775  90.0880230  41.5894379 104.9764114 103.0388835  33.1798169
 104.5843905 102.7355550  32.4621035 105.1317186 103.8757925  32.9903122
 104.9417703 103.1172672  33.0454666  92.4525293  93.0310849  33.1289051
  92.8324258  93.4495394  32.4649318  91.8780658  93.6124305  33.4357894
  92.4236618  93.1788708  33.0765792 105.7298534  91.7259152  42.6727255
 104.9175215  91.4185042  42.7540427 106.1888468  91.2458152  43.2369967
 105.6778918  91.6095644  42.7681849 105.1403788  99.6038824  33.1204199
 104.7818443  99.7753467  33.8968231 104.6542499 100.0652029  32.5632198
 105.0162485  99.6977795  33.1529468 102.9574174  83.2270022  36.7231290
 102.0867732  83.2008743  36.6764600 103.2114516  83.0547215  35.9057136
 102.8667734  83.1980166  36.5951427  99.9292154  95.2837989  25.6604433
 100.2184679  96.0602872  25.9348008 100.0163953  94.7726721  26.3618933
  99.9846410  95.3229908  25.8046931 102.8252041  93.1319223  47.4555957
 103.2951672  93.7561340  47.8423831 102.8713921  92.4636199  48.0149172
 102.9019917  93.1253904  47.5956028  99.9823315  85.2376251  38.1804761
  99.4661803  84.5456442  38.3056340  99.4217244  85.9047028  38.1267360
  99.8229828  85.2339508  38.1910827 102.0515548  85.7769211  40.0097613
 101.6647301  85.8018242  40.7911143 101.5648486  85.2110889  39.5572130
 101.9228057  85.6964962  40.0585517 106.3008528 100.4942720  44.0671400
 106.9388248 100.0002915  43.7333856 105.6582619 100.4220120  43.4823627
 106.3002754 100.4101728  43.9313755 108.0265528  92.3431866  38.6337316
 107.5993136  92.2558214  37.8785415 107.3891581  92.4509641  39.2192160
 107.8695135  92.3464526  38.6082757 101.7172690  82.6636196  42.3007873
 102.3465808  83.1996496  42.0228944 101.8858553  82.5713555  43.1521439
 101.8350485  82.7297559  42.3856401 101.5186605  87.4507391  44.5734285
 102.3460034  87.1792540  44.6292899 101.5394451  88.2468233  44.9298103
 101.6439455  87.5287145  44.6349468 106.3562784 101.1862528  40.7076757
 107.1455162 100.8351593  40.8278838 106.5306382 101.9998917  40.4453391
 106.4983066 101.2548385  40.6864625  96.0956095  94.5971254  37.7604546
  95.2544101  94.4975128  37.9683439  96.3046103  95.3666734  38.1118866
  96.0020787  94.6963297  37.8431860  93.5731662  92.2190791  35.5889296
  93.1788359  92.2933803  34.8139406  93.0171779  92.6048737  36.1397658
  93.4334474  92.2872565  35.5556956 105.2096608  85.1972085  35.2693175
 105.4146202  85.1294393  36.1150172 104.8823032  86.0030906  35.2014353
 105.1911856  85.3058025  35.3852830  99.9072760  92.5252653  37.0102143
  99.6035897  91.9708641  37.6112551  99.2052180  92.7044863  36.5230177
  99.7588969  92.4697435  37.0271849  98.9638857  89.8353173  31.5746845
  99.2398591  89.1172085  31.1624412  99.5637526  90.4338093  31.3667951
  99.0932121  89.8173544  31.4827606  97.9691111  99.7402374  41.7174241
  97.8611466  99.7504436  42.5836299  98.1786892 100.5657154  41.5279195
  97.9841222  99.8643449  41.8178332 108.4630296  85.7503849  34.7495941
 107.8504610  86.2374251  35.1349672 108.5594471  85.0747340  35.2933592
 108.3868194  85.7222158  34.8874799 102.4649377  87.5066690  29.8493440
 102.9193124  87.6777251  30.5741284 102.9389423  86.8934801  29.4491216
 102.6017697  87.4417575  29.8967201  95.9864903  96.9915016  39.1796178
  95.3952836  97.6324514  39.1499194  96.7485926  97.4152633  39.1527478
  96.0113163  97.1490855  39.1711326  96.3825525  88.1517014  39.8464196
  96.8427007  88.2255943  40.5839320  96.4281632  88.9498268  39.4964017
  96.4576081  88.2811161  39.9036953  98.0308875  88.8183709  44.4136223
  97.6394440  88.1717056  44.8492001  98.1994738  89.4095144  45.0330479
  97.9979785  88.8097977  44.5698929 112.1055324  96.8220786  40.1773457
 112.1638448  97.2707435  40.9233433 111.4721792  97.2319599  39.7403537
 112.0206619  96.9494520  40.2226005 105.7454419 102.4424328  36.6128203
 105.5474108 102.9315142  35.9184414 105.1242130 102.6465569  37.1912336
 105.6241983 102.5440866  36.5951426  99.8062397  94.2109225  30.9538447
 100.5504442  94.5983501  31.1921397  99.9523093  93.3666650  31.1178935
  99.9372982  94.1439697  31.0132417 101.7241973  86.0059483  35.9870309
 100.8778018  86.1782291  35.8611658 101.7213105  85.2008827  36.3236137
 101.5989123  85.9120512  36.0181436 102.7940273  89.7834698  36.8532366
 102.3200227  89.2576460  37.3637677 103.1658409  89.2364171  36.2847228
 102.7790162  89.6250694  36.8447514  93.1713303  91.7806205  42.2215912
  94.0338916  91.6801914  42.1353242  92.8405086  91.2000914  41.6601484
  93.2498500  91.6797831  42.1261318 109.0577004  94.8437074  38.2639147
 108.8175227  94.0043489  38.2681573 109.5369011  94.9237240  38.9879921
 109.0929187  94.7318473  38.3713949 104.7223773  90.6771252  29.9158120
 104.1946791  90.7599996  29.2263829 105.1819481  91.4189124  29.9122765
 104.7125623  90.7991915  29.8132815 111.0582191  91.6238531  36.2168406
 110.8191961  91.5834365  35.3789191 111.2216092  92.4709683  36.3434127
 111.0472494  91.7430616  36.1121888 107.6628221  96.0088480  42.1473451
 108.3862420  95.5561006  41.9684471 107.3978183  96.2893146  41.3645779
 107.7309494  95.9839449  42.0052167  96.5315089  90.6048654  38.8826330
  95.9068159  90.6167046  38.2752283  96.1960684  91.0808829  39.5317571
  96.3900581  90.6767171  38.8882899  96.7156838  88.9473772  24.9399015
  96.3669642  89.5993497  25.4030565  96.2353284  88.9330885  24.2122887
  96.5927082  89.0416826  24.9010107  93.2440765  98.6649114  40.3230095
  92.7140689  97.9741553  40.3725069  93.5165858  98.6559299  39.4942803
  93.2065487  98.5616245  40.2077511 104.2760855  99.2474816  29.0467777
 104.9995054  99.7132929  28.9032351 103.8361446  99.3148426  28.2965374
 104.3176547  99.3258653  28.9152559 103.4447010  96.1072358  40.2968466
 102.8304003  95.5630409  40.5917102 103.9614295  95.5936595  39.8174282
 103.4302673  95.9508767  40.2692695 102.6843307  97.1776628  38.0312765
 102.2570916  96.5526347  37.5978200 102.6768252  96.8951550  38.8571772
 102.6202449  97.0429409  38.0892593  95.8005835  92.2141801  41.1001199
  95.9599321  91.4585125  41.5052921  95.6198728  92.7632741  41.7541937
  95.7971194  92.1835615  41.2563905 103.7426138  84.3803037  41.6551988
 103.2466699  84.5766711  40.9643555 104.4995200  84.7795705  41.4840790
 103.7812962  84.4680771  41.5272125 101.0129017  88.0545383  38.2455299
 101.0371504  87.5205495  37.5568079 101.2640491  87.5462692  38.9080890
 101.0538936  87.9006287  38.2419944  88.5236607  95.3376878  37.6798443
  88.4180056  95.2923722  36.8150527  87.7736827  95.6830658  37.9612728
  88.3972210  95.3817786  37.5935773  97.2930339  86.7816201  37.6261043
  97.3328711  87.2825408  38.3395751  96.4680004  86.8726595  37.3566966
  97.1769865  86.8698017  37.6911582  99.4759952  96.3476941  45.7281338
  98.6255583  96.4848655  45.8638983  99.6388080  95.6140719  46.1729040
  99.3743816  96.2591042  45.8136937  98.7144703  93.2976711  39.9234942
  97.8836632  93.4650529  39.7170190  98.6596220  92.9212662  40.7083828
  98.5834118  93.2666442  40.0083470  96.5228486  86.7885604  45.5591353
  97.1481189  86.2447737  45.8320785  96.0678966  86.3080521  44.9899143
  96.5476747  86.6375085  45.5152947  97.0880747  91.5732302  30.4525060
  97.2283708  92.0704767  31.1553701  97.5863279  90.8718597  30.5939274
  97.1821828  91.5434281  30.5776639  97.1180969  92.4399413  27.7817637
  97.7526048  93.0359839  27.7167099  97.2006580  92.1402871  28.5963507
  97.2237520  92.4840322  27.8920723 110.0963535  94.9714891  40.6504001
 110.6881375  95.6112142  40.6822199 110.5322529  94.2737928  40.9396068
 110.2481966  94.9633241  40.6984834  98.6959952  88.3713389  27.7563079
  99.0175793  87.8916471  27.1022341  98.9586896  89.1813035  27.5653890
  98.7825977  88.4203287  27.6318571 101.9256925  99.3932263  41.2761895
 101.4182016  99.9468110  41.7202525 101.6283571  99.4540553  40.4580669
 101.8061810  99.4838574  41.2210352 104.0919107  87.7585583  40.1186558
 104.5174178  87.3058109  39.5070084 103.4776100  87.2045654  40.3951345
 104.0647752  87.6099559  40.0691583  93.6233957  94.6367254  31.0507183
  94.1326186  95.2331762  31.4318488  94.0968229  94.3693228  30.3683602
  93.7677333  94.6853070  31.0061706 104.5364705 103.3095521  29.2065838
 103.8194015 103.1356383  28.7413076 105.1871443 103.0748093  28.6741324
 104.5266555 103.2491313  29.0595056 102.5313330  84.2300683  33.5277135
 101.8881648  84.0798329  34.0962273 102.1912737  83.9843028  32.7626240
 102.3858407  84.1712805  33.4980150 107.1212676  92.1860109  32.9507143
 106.4503866  92.7289812  32.8220209 107.8152426  92.6554965  32.7088838
 107.1241544  92.3358381  32.8962671 101.1699410 104.3256821  38.1818902
 100.9465064 103.5675651  38.5502928 100.6809253 104.3554843  37.4599341
 101.0642859 104.2179046  38.1295643 107.2840804  88.6415993  35.8597517
 107.6368414  88.2145716  36.5343315 106.4255605  88.5566837  35.9898593
 107.2090248  88.5660734  35.9792527  95.9824489  91.2723513  33.9180363
  95.2636478  91.6887645  34.1853227  96.3536851  91.8377752  33.3672001
  95.9316420  91.4172794  33.8763170 105.2824069  91.9051362  39.8082359
 105.2621997  91.7234657  40.6617138 105.3303270  92.7763380  39.7841943
 105.2858710  92.0067900  39.9305654 103.2270399  98.4938554  45.7330836
 103.1866254  97.8488231  45.1475991 104.0393718  98.4375171  46.0456248
 103.3413553  98.3897521  45.6927785  99.8177867 104.5457280  35.6355986
  99.4038265 103.8831410  35.2459828 100.5025241 104.6935138  35.1151681
  99.8576239 104.4697938  35.5012484 103.1843161 103.7047365  36.3879603
 102.7859444 103.8149635  35.6200423 102.5694381 103.9129431  36.9706163
 103.0342050 103.7520933  36.3610902 101.7571063  90.3121513  29.2553743
 101.1635902  90.6338509  28.7038310 101.7946341  89.4662608  29.0474849
 101.6745452  90.2345841  29.1436514 108.7164864  83.7634405  36.7881829
 108.2095728  83.0563545  36.7203007 109.5132297  83.4327594  36.9182906
 108.7592103  83.6107556  36.7980824 104.6328880  90.2701017  32.6855493
 104.4042573  90.2933719  31.8433851 104.8926956  89.4458484  32.8050503
 104.6375068  90.1517097  32.5780691  98.9148108  92.1235490  42.2880593
  98.4027011  91.5156673  42.6465625  98.7427604  92.8392083  42.7554569
  98.8137745  92.1398790  42.4096817  93.7613823  90.5673066  44.9382955
  93.5916413  91.2274440  44.3931162  93.3179773  90.7779627  45.6595444
  93.6713156  90.6959048  44.9644584  97.6873642  88.8077563  33.9809689
  98.1631008  89.1694643  33.3459870  97.1862242  89.4634031  34.2609831
  97.6839001  88.9571752  33.9286430 110.9185004  98.2799332  29.7722694
 111.3018609  99.0290688  30.0020791 110.1229117  98.5265151  29.5134683
 110.8578786  98.4269025  29.7680267 102.7917178  90.0459735  44.7282849
 103.3488608  89.8173544  44.0961314 102.4678243  90.8065400  44.4518061
 102.8263588  90.1243572  44.5939346  90.6615887  93.4719931  40.1971445
  90.1142607  92.8020577  40.3152313  91.4508265  93.1049779  40.2614912
  90.6968071  93.3184918  40.2240145 100.5100296  93.1327388  45.6934856
 101.2611623  93.4479065  46.0074410 100.7022872  92.9306559  44.8668778
 100.6491710  93.1494770  45.6178252  99.7300295  90.9518763  27.3483073
 100.1099260  90.9698392  26.5634187  98.9892891  91.3972752  27.2273920
  99.6769133  91.0200538  27.2146641 107.3585586  89.2600954  32.9358651
 107.3579812  89.1049611  33.7942928 107.1541766  90.1063942  32.8800037
 107.3285364  89.3621575  33.0546591  89.4202857  92.6840739  37.3517468
  89.2424618  92.2317348  38.0772383  89.1321879  93.4866900  37.5355945
  89.3515810  92.7363297  37.4860971 105.0826438  93.9398456  36.5894858
 105.5780103  93.2221451  36.5498878 104.2726214  93.6369254  36.4749345
 105.0370331  93.7896103  36.5668584 100.5285049  97.7896270  28.7391863
  99.7196372  97.4662943  28.6925172 101.0359958  97.0829492  28.6720111
 100.4834716  97.6377586  28.7222157  91.1575327  95.2168463  34.4639227
  90.2920846  95.2054153  34.3521998  91.2574142  95.0298686  35.3110366
  91.0449494  95.1874524  34.5728171 107.1478257  96.6902144  39.2771987
 107.5733328  96.1676566  38.7242412 106.7835176  97.2882981  38.7560610
 107.1564859  96.7012371  39.1180997  96.7832336 104.9866361  38.0369332
  97.0978895 105.8002750  38.0447114  97.1925750 104.6016580  38.7051492
  96.8900434 105.0495064  38.1373424 103.7356856 100.4036408  35.6073144
 104.2068034 101.1176671  35.7763130 104.0717035  99.8035158  36.1433014
 103.8551971 100.4207872  35.7105520 105.8233841 102.0137721  47.7865216
 105.9330806 101.2246282  48.1421964 106.1524737 101.9243658  46.9839555
 105.8886246 101.8843574  47.7207607 100.6526351  85.1763879  42.5631239
 100.7854257  84.3794872  42.8912215 101.0371504  85.7030282  43.1429515
 100.7282680  85.1363795  42.6974742 104.3730802 100.1954342  42.3700837
 103.8251748  99.5712226  42.1020902 104.8343831 100.3848614  41.6544916
 104.3598012 100.1313392  42.2251268 103.7258706  82.0994205  39.1612332
 102.9204670  81.9891934  39.4780171 103.5965442  82.2006660  38.3042198
 103.5878839  82.0977875  39.0820373 107.1824667  88.2639697  39.7552029
 106.5987656  88.7648903  39.3429597 107.5028961  87.7569253  39.1216353
 107.1437842  88.2631532  39.6010537  99.7219466  87.1780291  30.0310704
 100.5435160  87.3478604  29.7892399  99.2589117  87.3327552  29.3077002
  99.7750628  87.2262024  29.8882348  98.3114798  85.1723054  40.8109133
  98.8559211  84.8314180  41.4013475  98.3651734  86.0308515  40.9530417
  98.4003917  85.2478313  40.9191006  94.1245357  98.9339470  37.6847941
  94.7290214  98.8935304  37.0561762  93.9172669  99.7810622  37.7151997
  94.1834254  99.0527472  37.5964057 103.9389129 101.2005415  38.9010178
 104.7587503 101.0568381  39.1626473 103.6583206 101.8251614  39.4426616
 104.0185872 101.2715767  39.0198118  89.3596639  97.9174087  37.5546864
  89.2620917  97.1070359  37.8636921  90.1425509  97.8965881  37.1693132
  89.4612775  97.7941177  37.5433727 113.6102464 107.9445918  36.6205985
 112.7540359 108.1054416  36.6715102 113.6570118 107.0737982  36.6411046
 113.4901575 107.8396719  36.6312051 116.4554285 110.0037962  39.2637637
 117.0010245 110.6823048  39.3231606 116.3971161 109.8625422  38.4039218
 116.5270199 110.0829963  39.1449697 102.7693404 113.5147314  34.2758323
 102.5343589 112.6814967  34.1690592 102.9079045 113.7951980  33.4619524
 102.7549067 113.4330818  34.1400678 105.0683492 105.6833045  37.1742630
 104.4488523 105.0925692  37.0052645 104.9667355 106.2744480  36.5406954
 104.9621167 105.6837127  37.0547620 104.7952625 109.2285326  39.4186199
 104.6711321 109.8147772  40.0536018 105.4470909 108.7345522  39.7198474
 104.8726274 109.2424131  39.5572129 109.8210966 112.4047043  38.6973710
 110.4659968 111.9119487  38.3784659 110.0612743 112.5471830  39.5239789
 109.9521551 112.3524486  38.7723244 112.3597057 115.2501949  38.3480603
 112.6420300 114.4553355  38.1267359 113.0883217 115.7282537  38.3685664
 112.5086621 115.2036546  38.3183618 110.3378251 102.7924983  35.5896368
 110.0081581 103.2436127  34.9200067 109.6623253 102.7141147  36.1369375
 110.1888687 102.8476118  35.5719591 117.5454659  98.7810506  33.8345979
 117.2308100  99.4713985  34.2666401 117.0281600  98.7255288  33.1331479
 117.4219129  98.8745395  33.7942928 104.3310729 118.3932985  35.5514529
 103.8478307 119.1183475  35.5274112 105.1434047 118.6909115  35.6624687
 104.3801477 118.5435339  35.5641808 110.4024883 117.1865166  38.1564343
 109.8851824 116.8272581  37.5525651 111.0999274 116.6627340  38.1670409
 110.4290464 117.0562854  38.0694602 111.6258935 116.9191140  43.0998179
 111.0629769 116.5063750  43.6237840 112.3879958 116.8444045  43.5191322
 111.6553383 116.8468540  43.2391179 108.5434205 100.8537272  31.0719316
 109.2980173 101.2215589  30.8336366 108.3661739 101.2276826  31.8398495
 108.6288683 100.9635460  31.1504204 121.8369104 107.0031712  39.1166855
 120.9997525 107.0733899  39.3514450 121.8057335 107.0056207  38.2441158
 121.7087386 107.0141939  39.0226403 108.2333833 109.1464748  44.8315224
 108.4054336 109.0370642  45.6800505 108.7703190 109.7919153  44.5946416
 108.3378837 109.2256749  44.9220321 106.5105701 115.0995513  35.2120417
 107.3494601 115.3318446  35.2594178 106.5417471 114.2299824  35.1427452
 106.6387419 115.0052459  35.2085061 107.1358404 115.5196388  39.5133722
 107.6756629 115.3767519  40.1837095 106.4528351 115.9193139  39.8817749
 107.1150558 115.5576059  39.6668144 112.5790989 100.2634001  30.8046453
 113.3077149 100.0849956  30.3584609 112.6685882 101.1052081  31.0153631
 112.6997651 100.3617880  30.7699970 102.5395550 111.7396679  39.6668144
 102.2733965 110.9235796  39.8259134 102.5534114 111.7849834  38.7963659
 102.5020272 111.6253584  39.5621626 119.5176943 102.0674494  37.7010578
 120.1602852 102.1372598  38.2872493 119.7699964 101.4003717  37.1990119
 119.6499075 101.9800842  37.7137857 107.2894156 105.2775057  42.3135152
 106.5965953 104.8072037  42.5595883 107.9054483 105.0513362  42.8876859
 107.2778686 105.1742189  42.4344304 102.9488963 112.5255458  36.9479888
 102.7664536 112.5002344  36.0952180 103.6838632 112.9954396  36.9868797
 103.0303027 112.5916820  36.8277807 106.0134715 109.2440461  43.4561997
 106.7374687 109.2293492  43.9426891 106.1150851 109.9535816  42.9583965
 106.1352924 109.3465164  43.4540784 113.3879664 112.7239546  48.3210944
 112.5952645 113.0383058  48.5063563 113.5028591 112.9391014  47.4831728
 113.2875075 112.8023382  48.2249278 114.3163457 112.6259749  43.2596240
 114.8902319 111.9886994  43.4144804 114.2378261 112.6263832  42.3905898
 114.3896692 112.5324861  43.1542651 102.9159874 109.4048959  37.0978955
 103.4933376 109.2685410  37.7371200 102.2173935 108.9484743  37.3524539
 102.8980895 109.3171225  37.2301244 109.6727176 111.0583015  35.3117438
 109.4146420 110.2254749  35.2848737 109.7275659 111.2840628  34.4709938
 109.6426954 110.9680786  35.1837575 114.7528226 103.1611465  35.4121531
 114.0484553 102.6720651  35.5705450 114.8013200 103.1733940  34.5409975
 114.6558277 103.0901113  35.3060870 108.6461888 108.6120777  35.7982333
 108.0711479 108.7712945  36.4346294 108.2697564 107.9756186  35.3350783
 108.5064700 108.5418590  35.8236891 112.3135177 107.0844126  40.6574711
 111.9249609 106.6598344  40.0026902 111.6489875 107.3326276  41.1651738
 112.1582104 107.0582847  40.6362579  98.3918707 108.2560852  33.8126773
  98.4778959 107.8792720  34.5940303  99.0194504 107.8821297  33.3346731
  98.4975258 108.1446334  33.8572251 116.1361538 100.7818755  38.1698695
 116.5172050 100.0996926  38.5566569 115.3324822 100.4928357  37.9874360
 116.0738000 100.6385804  38.2002751 103.9794665 117.0252585  37.8658134
 104.0198811 117.2967436  37.0377913 104.5389189 117.5494493  38.2815922
 104.0678011 117.1428340  37.8050022 110.0953378 103.2872953  48.0361304
 109.7806820 104.0572516  47.7730866 109.7743311 102.7243209  47.4513531
 110.0012298 103.3183222  47.9102654 107.6485275 101.6763475  33.6507500
 106.7807701 101.7486074  33.7165109 107.9360480 102.4785554  33.8395475
 107.5625024 101.8057622  33.6882267 116.7718164 101.8241334  41.9818822
 117.5171756 101.6351145  41.5682247 116.3555469 102.3499572  41.4232678
 116.8203138 101.8743480  41.8383395 110.8002826 113.0289160  41.4784220
 110.3014520 113.7404928  41.5569109 111.6103050 113.3489827  41.4402383
 110.8458933 113.1816009  41.4840789 107.0630944 112.2912113  35.7246941
 106.7744192 111.6649584  36.2592668 107.9314292 112.2332400  35.7911622
 107.1491195 112.1899657  35.8137896 117.8508841 107.4346896  36.0428923
 117.5073607 106.7137232  36.3936173 117.9501884 107.2260748  35.2007281
 117.8150884 107.2971100  35.9700603 109.7269884 105.8870204  46.7746519
 108.9169660 106.1927984  46.6636361 110.2044571 106.6075787  46.8899103
 109.6773363 106.0384806  46.7753590 108.5861443 115.1015925  37.0229422
 108.0642197 115.2416217  37.7081286 108.9735464 114.3426590  37.2131539
 108.5665144 115.0101449  37.1530498 105.5752628 105.1521734  31.0924376
 105.2877423 104.7823005  30.3556324 106.2623096 105.6216589  30.8308081
 105.6341525 105.1668704  30.9439452 108.4106299 109.0174682  32.5391781
 109.1328951 109.1815840  32.0795587 107.9314292 109.7384347  32.4331121
 108.4470030 109.1472912  32.4557395 116.3699807 105.3538481  37.9188466
 115.5310907 105.3799760  37.6826729 116.4404174 106.0009217  38.4993813
 116.2568200 105.4534607  37.9697583 106.0613916 111.4232755  41.6445921
 106.5735013 111.7017008  40.9954681 105.7750258 112.1622049  42.0108734
 106.0948779 111.5735108  41.6035799 114.8169085 102.2523858  32.6516082
 115.5195438 102.0531606  32.1736040 114.5513274 101.4799801  32.9584925
 114.8815717 102.1086824  32.6261523 103.1480822 105.9302947  31.9409657
 103.2496959 106.7329108  32.2690633 103.9436709 105.7290283  31.6432738
 103.2808728 106.0188845  31.9445013 109.5797641 103.5159143  41.7046962
 109.3880838 103.5314278  42.5546386 110.4296237 103.7122818  41.6813617
 109.6773363 103.5473495  41.8270257 103.9644554 106.0450125  39.6830779
 103.8230046 105.1934065  39.8075287 104.2485118 106.0878785  38.8592985
 103.9852400 105.9249875  39.5798403 114.1183147 107.8817215  33.8275267
 113.8717861 107.8012966  34.6612056 114.4468270 107.0970683  33.6337795
 114.1304390 107.7543480  33.9222790 116.3509281 110.8896950  43.8684430
 116.3457319 110.0176766  43.8726857 117.0570274 111.0885119  43.3953886
 116.4554285 110.7900824  43.7991465 110.0780174 110.6173934  43.2398250
 110.2223550 111.1975142  42.6041360 110.4255822 110.9950230  43.9448105
 110.1507635 110.7594638  43.2497245 112.2500091 109.8164102  41.0223382
 111.5023405 110.0095116  40.6171660 112.4041616 108.9909322  40.7847503
 112.1622519 109.7229213  40.9268788 112.4901868 103.7114653  41.9118786
 112.9474482 104.4438627  42.0391578 112.5658197 103.2881118  42.6706041
 112.5692838 103.7571891  42.0419862 104.7334859 103.9580472  43.0008229
 104.1977049 103.3460831  43.3168997 104.7952624 104.5328608  43.6541896
 104.6630492 103.9527400  43.1443656 116.9629194  96.8904528  35.7812629
 117.0812762  97.3480991  35.0479931 116.7891370  96.0849789  35.4948846
 116.9548365  96.8398300  35.6313562 110.3684246 105.7016757  38.7560610
 109.5780321 105.5208217  39.0777945 110.7644869 104.9243709  38.7390904
 110.3101122 105.5604218  38.8013158 112.8822076 108.1777016  43.2384109
 112.8181218 109.0386972  43.1104245 113.0219264 107.8609009  42.4379660
 112.8937546 108.2577182  43.1012321 111.5641170 110.8709155  37.3800311
 111.1403419 111.0713654  36.6439330 111.3886026 110.0238003  37.4924611
 111.4752051 110.7757937  37.2874002 106.8523615 111.3661207  32.8128284
 107.0088234 111.3008009  33.6684276 107.1924208 112.1409759  32.6006964
 106.9256850 111.4710405  32.9082878 114.5392029 105.6355395  41.7343948
 114.7533999 104.9966309  41.1807302 113.9225928 106.0801218  41.3051809
 114.4797359 105.6065538  41.5894379 103.4257877 108.5496157  33.1289051
 103.8056842 108.9680702  32.4649318 102.8513242 109.1309613  33.4357894
 103.3969202 108.6974016  33.0765792 116.7031117 107.2444460  42.6727255
 115.8907799 106.9370350  42.7540427 117.1621052 106.7643460  43.2369967
 116.6511502 107.1280952  42.7681849 113.9306758  98.7455330  36.7231290
 113.0600316  98.7194051  36.6764600 114.1847099  98.5732522  35.9057136
 113.8400318  98.7165474  36.5951427 113.7984625 108.6504531  47.4555957
 114.2684256 109.2746648  47.8423831 113.8446505 107.9821507  48.0149172
 113.8752501 108.6439212  47.5956028 110.9555898 100.7561559  38.1804761
 110.4394387 100.0641750  38.3056340 110.3949827 101.4232336  38.1267360
 110.7962412 100.7524816  38.1910827 113.0248132 101.2954519  40.0097613
 112.6379885 101.3203550  40.7911143 112.5381069 100.7296197  39.5572130
 112.8960641 101.2150270  40.0585517 118.9998111 107.8617174  38.6337316
 118.5725719 107.7743522  37.8785415 118.3624164 107.9694949  39.2192160
 118.8427719 107.8649834  38.6082757 112.6905274  98.1821504  42.3007873
 113.3198392  98.7181804  42.0228944 112.8591136  98.0898863  43.1521439
 112.8083068  98.2482866  42.3856401 112.4919188 102.9692699  44.5734285
 113.3192618 102.6977848  44.6292899 112.5127035 103.7653541  44.9298103
 112.6172039 103.0472453  44.6349468 107.0688678 110.1156562  37.7604546
 106.2276685 110.0160436  37.9683439 107.2778686 110.8852042  38.1118866
 106.9753371 110.2148605  37.8431860 104.5464245 107.7376099  35.5889296
 104.1520943 107.8119111  34.8139406 103.9904362 108.1234045  36.1397658
 104.4067058 107.8057873  35.5556956 116.1829192 100.7157393  35.2693175
 116.3878785 100.6479701  36.1150172 115.8555616 101.5216214  35.2014353
 116.1644440 100.8243333  35.3852830 110.8805343 108.0437961  37.0102143
 110.5768481 107.4893949  37.6112551 110.1784764 108.2230171  36.5230177
 110.7321553 107.9882743  37.0271849 109.9371440 105.3538481  31.5746845
 110.2131175 104.6357393  31.1624412 110.5370110 105.9523401  31.3667951
 110.0664705 105.3358851  31.4827606 108.9423694 115.2587682  41.7174241
 108.8344049 115.2689744  42.5836299 109.1519476 116.0842462  41.5279195
 108.9573805 115.3828756  41.8178332 119.4362880 101.2689157  34.7495941
 118.8237193 101.7559559  35.1349672 119.5327055 100.5932648  35.2933592
 119.3600777 101.2407466  34.8874799 106.9597486 112.5100324  39.1796178
 106.3685419 113.1509822  39.1499194 107.7218510 112.9337941  39.1527478
 106.9845747 112.6676162  39.1711326 107.3558109 103.6702322  39.8464196
 107.8159591 103.7441251  40.5839320 107.4014216 104.4683576  39.4964017
 107.4308664 103.7996469  39.9036953 109.0041459 104.3369017  44.4136223
 108.6127024 103.6902364  44.8492001 109.1727321 104.9280452  45.0330479
 108.9712369 104.3283285  44.5698929 112.6974556 101.5244791  35.9870309
 111.8510601 101.6967599  35.8611658 112.6945689 100.7194135  36.3236137
 112.5721706 101.4305820  36.0181436 113.7672857 105.3020006  36.8532366
 113.2932811 104.7761768  37.3637677 114.1390992 104.7549479  36.2847228
 113.7522746 105.1436002  36.8447514 104.1445887 107.2991512  42.2215912
 105.0071500 107.1987222  42.1353242 103.8137670 106.7186222  41.6601484
 104.2231083 107.1983139  42.1261318 120.0309587 110.3622381  38.2639147
 119.7907810 109.5228797  38.2681573 120.5101594 110.4422548  38.9879921
 120.0661771 110.2503781  38.3713949 118.6360804 111.5273788  42.1473451
 119.3595003 111.0746314  41.9684471 118.3710767 111.8078454  41.3645779
 118.7042078 111.5024756  42.0052167 107.5047673 106.1233961  38.8826330
 106.8800743 106.1352353  38.2752283 107.1693268 106.5994137  39.5317571
 107.3633165 106.1952478  38.8882899 104.2173348 114.1834422  40.3230095
 103.6873273 113.4926861  40.3725069 104.4898442 114.1744607  39.4942803
 104.1798071 114.0801553  40.2077511 114.4179594 111.6257666  40.2968466
 113.8036587 111.0815716  40.5917102 114.9346879 111.1121903  39.8174282
 114.4035256 111.4694075  40.2692695 113.6575891 112.6961936  38.0312765
 113.2303499 112.0711655  37.5978200 113.6500835 112.4136858  38.8571772
 113.5935032 112.5614717  38.0892593 106.7738418 107.7327109  41.1001199
 106.9331905 106.9770433  41.5052921 106.5931312 108.2818049  41.7541937
 106.7703777 107.7020923  41.2563905 114.7158721  99.8988345  41.6551988
 114.2199282 100.0952019  40.9643555 115.4727783 100.2981013  41.4840790
 114.7545546  99.9866079  41.5272125 111.9861601 103.5730691  38.2455299
 112.0104088 103.0390803  37.5568079 112.2373074 103.0648000  38.9080890
 112.0271519 103.4191595  38.2419944  99.4969191 110.8562186  37.6798443
  99.3912640 110.8109030  36.8150527  98.7469411 111.2015966  37.9612728
  99.3704793 110.9003094  37.5935773 108.2662923 102.3001509  37.6261043
 108.3061295 102.8010716  38.3395751 107.4412588 102.3911903  37.3566966
 108.1502449 102.3883325  37.6911582 110.4492536 111.8662249  45.7281338
 109.5988166 112.0033963  45.8638983 110.6120664 111.1326027  46.1729040
 110.3476399 111.7776350  45.8136937 109.6877286 108.8162019  39.9234942
 108.8569216 108.9835837  39.7170190 109.6328804 108.4397970  40.7083828
 109.5566701 108.7851750  40.0083470 107.4961070 102.3070912  45.5591353
 108.1213773 101.7633045  45.8320785 107.0411550 101.8265829  44.9899143
 107.5209330 102.1560393  45.5152947 108.0613330 107.0917610  30.4525060
 108.2016291 107.5890075  31.1553701 108.5595863 106.3903905  30.5939274
 108.1554411 107.0619589  30.5776639 112.8989508 114.9117571  41.2761895
 112.3914599 115.4653418  41.7202525 112.6016154 114.9725861  40.4580669
 112.7794393 115.0023882  41.2210352 115.0651690 103.2770891  40.1186558
 115.4906762 102.8243417  39.5070084 114.4508684 102.7230961  40.3951345
 115.0380336 103.1284867  40.0691583 104.5966540 110.1552562  31.0507183
 105.1058770 110.7517070  31.4318488 105.0700813 109.8878536  30.3683602
 104.7409916 110.2038378  31.0061706 113.5045913  99.7485991  33.5277135
 112.8614231  99.5983637  34.0962273 113.1645320  99.5028336  32.7626240
 113.3590991  99.6898113  33.4980150 118.2573387 104.1601301  35.8597517
 118.6100997 103.7331024  36.5343315 117.3988189 104.0752145  35.9898593
 118.1822832 104.0846042  35.9792527 106.9557072 106.7908821  33.9180363
 106.2369061 107.2072953  34.1853227 107.3269434 107.3563059  33.3672001
 106.9049004 106.9358102  33.8763170 116.2556653 107.4236670  39.8082359
 116.2354580 107.2419965  40.6617138 116.3035854 108.2948688  39.7841943
 116.2591294 107.5253208  39.9305654 114.2002983 114.0123862  45.7330836
 114.1598838 113.3673539  45.1475991 115.0126301 113.9560479  46.0456248
 114.3146136 113.9082828  45.6927785 119.6897447  99.2819713  36.7881829
 119.1828312  98.5748852  36.7203007 120.4864881  98.9512902  36.9182906
 119.7324686  99.1292864  36.7980824 109.8880692 107.6420798  42.2880593
 109.3759595 107.0341981  42.6465625 109.7160188 108.3577391  42.7554569
 109.7870329 107.6584097  42.4096817 104.7346406 106.0858373  44.9382955
 104.5648997 106.7459748  44.3931162 104.2912356 106.2964935  45.6595444
 104.6445740 106.2144356  44.9644584 108.6606226 104.3262871  33.9809689
 109.1363592 104.6879951  33.3459870 108.1594825 104.9819339  34.2609831
 108.6571585 104.4757060  33.9286430 113.7649762 105.5645043  44.7282849
 114.3221192 105.3358852  44.0961314 113.4410827 106.3250708  44.4518061
 113.7996172 105.6428879  44.5939346 101.6348471 108.9905239  40.1971445
 101.0875190 108.3205885  40.3152313 102.4240849 108.6235087  40.2614912
 101.6700654 108.8370225  40.2240145 111.4832879 108.6512696  45.6934856
 112.2344206 108.9664373  46.0074410 111.6755456 108.4491867  44.8668778
 111.6224293 108.6680078  45.6178252 100.3935440 108.2026047  37.3517468
 100.2157201 107.7502656  38.0772383 100.1054462 109.0052208  37.5355945
 100.3248393 108.2548605  37.4860971 116.0559021 109.4583764  36.5894858
 116.5512687 108.7406759  36.5498878 115.2458797 109.1554562  36.4749345
 116.0102915 109.3081410  36.5668584 102.1307910 110.7353771  34.4639227
 101.2653430 110.7239461  34.3521998 102.2306726 110.5483993  35.3110366
 102.0182077 110.7059832  34.5728171 118.1210840 112.2087452  39.2771987
 118.5465912 111.6861874  38.7242412 117.7567760 112.8068289  38.7560610
 118.1297443 112.2197679  39.1180997 111.6258935 100.6949187  42.5631239
 111.7586840  99.8980180  42.8912215 112.0104087 101.2215590  43.1429515
 111.7015263 100.6549103  42.6974742 114.6991290  97.6179513  39.1612332
 113.8937253  97.5077242  39.4780171 114.5698025  97.7191968  38.3042198
 114.5611423  97.6163183  39.0820373 118.1557250 103.7825005  39.7552029
 117.5720239 104.2834211  39.3429597 118.4761544 103.2754561  39.1216353
 118.1170426 103.7816840  39.6010537 110.6952049 102.6965599  30.0310704
 111.5167744 102.8663912  29.7892399 110.2321700 102.8512860  29.3077002
 110.7483212 102.7447332  29.8882348 109.2847381 100.6908362  40.8109133
 109.8291794 100.3499488  41.4013475 109.3384317 101.5493823  40.9530417
 109.3736501 100.7663621  40.9191006 105.0977940 114.4524778  37.6847941
 105.7022798 114.4120612  37.0561762 104.8905253 115.2995930  37.7151997
 105.1566837 114.5712780  37.5964057 100.3329222 113.4359395  37.5546864
 100.2353500 112.6255667  37.8636921 101.1158092 113.4151189  37.1693132
 100.4345359 113.3126485  37.5433727  50.7751503  -1.9601273  33.1606488
  51.4818270  -2.4549242  33.2893422  50.9639438  -1.5192192  32.4309146
  50.9079409  -1.9682923  33.0715533  47.9143797   1.4626263  31.0520563
  48.0027143   1.2752404  31.8998774  48.3433510   0.8163693  30.6525410
  47.9905900   1.3389271  31.1192315  45.4814257   0.7457423  30.0338225
  44.9185092   0.3330033  30.5577887  46.2435281   0.6710329  30.4531369
  45.5108706   0.6734824  30.1731226  48.0263857   0.8935282  33.7164347
  48.8104273   1.0066130  34.0820089  47.8260451   0.0676419  33.9123033
  48.1129882   0.7882002  33.7998733  48.1834250   2.8045384  27.3630802
  47.3849496   2.5644884  27.6204671  48.6320261   2.8559777  28.1097850
  48.1308861   2.7767776  27.5115727  47.2434987  -3.4494171  35.2550991
  46.4507968  -3.1350659  35.4403610  47.3583914  -3.2342702  34.4171775
  47.1430397  -3.3710334  35.1589325  53.4938927  -2.1764989  30.2021140
  53.2577565  -3.0076925  30.0833201  54.1382156  -2.2279382  30.7875985
  53.5533598  -2.3067301  30.2707034  45.5316552   2.8057632  28.3183815
  45.4560223   2.1366442  28.8734603  45.4606411   3.5075420  28.8324481
  45.5097159   2.8102539  28.4760663  51.1175190  -1.2211979  35.7288606
  51.9310055  -1.4926830  35.8893739  50.9570156  -1.5204439  34.9248802
  51.2145138  -1.3057053  35.6334012  47.6539947  -7.5229185  34.3896004
  48.1239578  -6.8987069  34.7763878  47.7001827  -8.1912210  34.9489219
  47.7307823  -7.5294505  34.5296075  51.1296434  -0.1605689  31.0011447
  51.7676154  -0.6545493  30.6673903  50.4870525  -0.2328288  30.4163674
  51.1290660  -0.2446680  30.8653802  51.1850690   0.5314120  27.6416804
  51.9743069   0.1803184  27.7618885  51.3594288   1.3450508  27.3793437
  51.3270972   0.5999977  27.6204671  48.0558305  -2.1609855  32.6670882
  48.0154160  -2.8060178  32.0816038  48.8681624  -2.2173237  32.9796294
  48.1701459  -2.2650888  32.6267831  50.6521747   1.3589313  34.7205263
  50.7618712   0.5697874  35.0762010  50.9812643   1.2695249  33.9179601
  50.7174153   1.2295166  34.6547654  65.2390685   8.2021858  18.7993101
  65.2084689   9.0566495  18.9711371  65.8372034   7.9017151  19.3579245
  65.3227843   8.2838355  18.9067904  58.4390370   7.2897509  23.5546032
  57.5828266   7.4506007  23.6055149  58.4858024   6.4189573  23.5751093
  58.3189481   7.1848311  23.5652098  52.8231510  16.8260227  19.3183263
  52.0714409  16.4475765  19.0899308  53.2717521  16.8578661  18.5702074
  52.7781177  16.7745834  19.1740766  61.7484087  13.5584035  33.1606488
  62.4550854  13.0636065  33.2893422  61.9372022  13.9993116  32.4309146
  61.8811992  13.5502385  33.0715533  57.8160761  19.1999865  20.6879922
  58.2000140  19.7686764  20.1484697  57.7519902  18.4749376  20.2085738
  57.8634188  19.1775329  20.5373785  61.2842191   9.3489553  26.1977683
  61.8298151  10.0274640  26.2571653  61.2259067   9.2077014  25.3379265
  61.3558105   9.4281555  26.0789744  54.4016266  16.8378619  21.5846036
  54.5026629  16.0278973  21.8943164  53.8058011  16.7435566  20.9545714
  54.3288805  16.7043647  21.5372274  63.0607260  10.7774160  17.0711411
  62.9446786  11.5281846  17.5003549  63.8563146  10.5198113  17.3207498
  63.1611849  10.8509007  17.1715503  54.2417005  21.7556208  22.9860892
  54.8854461  22.1969372  23.3757050  54.5673261  20.9509635  22.8991151
  54.3848834  21.7021403  23.0306369  54.9437585  14.7668183  18.3580754
  55.2653426  15.3073390  17.7542062  55.5909682  14.1964955  18.4903043
  55.0863640  14.7627358  18.2887789  49.6240531   8.5736918  26.3526246
  49.4999227   9.1599364  26.9876065  50.2758815   8.0797114  26.6538521
  49.7014180   8.5875722  26.4912176  54.6498872  11.7498635  25.6313757
  55.2947874  11.2571078  25.3124706  54.8900649  11.8923422  26.4579836
  54.7809457  11.6976077  25.7063291  57.1884963  14.5953541  25.2820650
  57.4708206  13.8004947  25.0607406  57.9171123  15.0734128  25.3025711
  57.3374527  14.5488138  25.2523665  67.1703051  13.7012903  22.2556481
  66.3400754  13.9123547  22.4189897  67.1212304  12.8749958  21.9798764
  67.0409787  13.6102509  22.2393846  49.1598635  17.7384577  22.4854576
  48.6766213  18.4635066  22.4614159  49.9721953  18.0360707  22.5964733
  49.2089383  17.8886930  22.4981855  55.2312789  16.5316757  25.0904390
  54.7139731  16.1724172  24.4865698  55.9287180  16.0078932  25.1010456
  55.2578370  16.4014445  25.0034649  58.8876381  16.9811571  31.0520563
  58.9759727  16.7937712  31.8998774  59.3166093  16.3349001  30.6525410
  58.9638483  16.8574579  31.1192315  56.4546841  16.2642731  30.0338225
  55.8917675  15.8515341  30.5577887  57.2167864  16.1895637  30.4531369
  56.4841289  16.1920132  30.1731226  52.0142832  18.2540752  22.6374856
  52.7163411  17.7392741  22.6947612  51.9340315  18.5814904  23.4421731
  52.1066593  18.2254979  22.7647648  66.6657010   6.3483304  26.0506902
  65.8285431   6.4185491  26.2854496  66.6345241   6.3507799  25.1781204
  66.5375292   6.3593531  25.9566450  53.0621739   8.4916339  31.7655271
  53.2342242   8.3822234  32.6140552  53.5991096   9.1370745  31.5286463
  53.1666743   8.5708341  31.8560367  51.3393608  14.4447104  22.1460464
  52.1782507  14.6770037  22.1934225  51.3705377  13.5751416  22.0767499
  51.4675325  14.3504051  22.1425108  51.9646311  14.8647980  26.4473769
  52.5044535  14.7219111  27.1177141  51.2816257  15.2644730  26.8157795
  51.9438464  14.9027651  26.6008191  61.3887195  10.5438980  21.6418793
  62.1444710  10.9770495  21.6807702  61.4949520   9.8943750  22.2153429
  61.5157366  10.5116464  21.7316819  64.4267367  14.3712257  22.3921196
  63.9902598  14.3749000  23.1480168  64.0930282  15.0517756  21.9600774
  64.3129986  14.4724713  22.4402029  58.9996440  16.4120590  33.7164347
  59.7836857  16.5251438  34.0820089  58.7993035  15.5861727  33.9123033
  59.0862466  16.3067310  33.7998733  47.3683456  11.0848270  26.6008191
  47.1021871  10.2687387  26.7599181  47.3822020  11.1301426  25.7303706
  47.3308178  10.9705175  26.4961673  64.3464849   1.4126085  24.6350624
  64.9890758   1.4824190  25.2212540  64.5987870   0.7455308  24.1330166
  64.4786982   1.3252434  24.6477904  52.1182062   4.6226649  29.2475198
  51.4253859   4.1523628  29.4935930  52.7342389   4.3964953  29.8216905
  52.1066592   4.5193781  29.3684351  59.1566833  18.3230692  27.3630802
  58.3582079  18.0830192  27.6204671  59.6052845  18.3745085  28.1097850
  59.1041445  18.2953084  27.5115727  67.5611713  11.0893177  21.2840834
  68.2228147  10.5283846  21.1836742  66.9203125  10.5945208  21.6093525
  67.5640580  10.9329586  21.3173174  47.7776869  11.8707050  23.8819935
  47.5952442  11.8453936  23.0292227  48.5126538  12.3405988  23.9208844
  47.8590933  11.9368412  23.7617853  63.8476543  12.1058560  21.0252822
  64.0832133  12.2503759  20.1979673  63.9966107  12.8700968  21.4184336
  63.9042347  12.2397614  20.9616426  50.8422621   8.5892053  30.3902044
  51.5662593   8.5745083  30.8766938  50.9438757   9.2987408  29.8924012
  50.9640830   8.6916756  30.3880830  65.6767000  10.9460226  18.8622426
  66.0075217  11.4787866  18.2562521  66.2500088  10.9999113  19.5184377
  65.8100679  11.0329795  18.8700208  58.2167570  12.0691137  35.2550991
  57.4240551  12.3834649  35.4403610  58.3316497  12.2842606  34.4171775
  58.1162981  12.1474974  35.1589325  60.8898889   8.7925128  19.5446006
  60.9845744   9.5314423  19.9985632  60.2657733   8.3642604  19.9780571
  60.8107919   8.8386449  19.6754154  59.1451363  11.9711341  30.1936287
  59.7190225  11.3338585  30.3484851  59.0666167  11.9715423  29.3245945
  59.2184598  11.8776452  30.0882698  54.5015082  10.4034606  22.2457485
  54.2434326   9.5706341  22.2188784  54.5563565  10.6292219  21.4049985
  54.4714860  10.3132377  22.1177621  57.1423083   6.4295718  27.5914758
  56.7537515   6.0049936  26.9366949  56.4777781   6.6777868  28.0991784
  56.9870010   6.4034439  27.5702626  66.7846352   6.1870723  20.3662588
  66.5282917   5.3750664  20.1760471  67.6275666   6.1948290  20.1392775
  66.8712377   6.0682720  20.3047405  60.9649444   0.1270347  25.1038742
  61.3459956  -0.5551482  25.4906616  60.1612728  -0.1620051  24.9214407
  60.9025906  -0.0162605  25.1342798  64.4671511  13.3420319  30.2021140
  64.2310148  12.5108383  30.0833201  65.1114740  13.2905926  30.7875985
  64.5266182  13.2118007  30.2707034  54.1169929  14.1315840  20.9163877
  54.7543876  13.8927587  21.4615670  54.5425001  14.3352999  20.1817038
  54.2746095  14.1266850  20.8881034  48.8082571  16.3704176  24.7998181
  48.8486717  16.6419028  23.9717960  49.3677096  16.8946085  25.2155969
  48.8965917  16.4879932  24.7390069  54.9241285   2.6324545  34.9701351
  54.6094726   3.4024108  34.7070913  54.6031217   2.0694801  34.3853577
  54.8300204   2.6634814  34.8442700  65.4907932  13.1264767  26.2649435
  65.1853749  13.8592824  26.6262751  64.7714147  12.7202697  25.9842221
  65.3395274  13.1746500  26.2762572  56.4991401  14.6088263  22.5957663
  56.5730409  14.4463434  23.4499513  57.3160907  14.7978452  22.3518145
  56.6307760  14.6125005  22.6855689  71.1909724   9.7657768  25.5917779
  71.1234224   9.7853727  24.7220366  71.1765386  10.6088095  25.8173450
  71.1788480   9.8931503  25.4970256  50.2597158  14.9546125  19.6252107
  49.4335275  15.2007863  19.4986385  50.3209149  14.8758206  20.4914165
  50.1471325  14.9791074  19.7341051  61.6006070   1.1692926  28.9158869
  62.3459662   0.9802736  28.5022294  61.1843375   1.6951164  28.3572725
  61.6491044   1.2195071  28.7723442  55.0395987  17.5723006  17.3271137
  55.3294285  17.1811987  16.6030363  55.7699468  17.7539711  17.7676412
  55.1902871  17.5416819  17.2853944  68.9768341   8.5402154  23.8664374
  69.5276263   7.9070223  24.1061466  68.9612456   9.0717547  24.5579878
  69.0553537   8.5251102  24.0043232  55.6290732  12.3740752  28.4124267
  55.1302426  13.0856519  28.4909155  56.4390956  12.6941418  28.3742429
  55.6746839  12.5267600  28.4180836  52.9801902  19.5490388  20.3931286
  52.7602198  19.2587743  21.1857953  52.7596424  18.8905343  19.8649199
  52.9149497  19.4090096  20.4320195  51.8918850  11.6363705  22.6586988
  51.6032098  11.0101176  23.1932715  52.7602198  11.5783992  22.7251668
  51.9779101  11.5351249  22.7477943  62.6796747   6.7798488  22.9768970
  62.3361513   6.0588823  23.3276219  62.7789790   6.5712339  22.1347328
  62.6438790   6.6422691  22.9040650  55.1469858  20.9219778  19.1761979
  55.7993916  20.3896220  19.4053005  54.4495467  20.5688430  19.5629853
  55.1400576  20.7909301  19.2674146  63.1409776  13.2424192  18.5192958
  63.7067809  13.9017402  18.4351501  62.4937680  13.5873890  18.9909360
  63.1288533  13.3906133  18.5765714  54.5557790   5.2321796  33.7086565
  53.7457566   5.5379576  33.5976408  55.0332477   5.9527378  33.8239149
  54.5061269   5.3836397  33.7093636  53.4149350  14.4467517  23.9569468
  52.8930103  14.5867809  24.6421333  53.8023370  13.6878181  24.1471586
  53.3953050  14.3553041  24.0870545  59.6116355  16.1862976  17.9430037
  59.3703030  15.4530837  17.5357102  59.7917687  16.7349833  17.2896370
  59.6023978  16.1585367  17.7860260  61.1987713   4.6990073  24.8528513
  60.3598813   4.7251352  24.6166776  61.2692080   5.3460808  25.4333859
  61.0856106   4.7986199  24.9037630  50.8901822  10.7684346  28.5785968
  51.4022919  11.0468600  27.9294727  50.6038164  11.5073640  28.9448781
  50.9236685  10.9186700  28.5375846  65.0745237   9.9058059  22.1389754
  64.9879211  10.0613486  22.9924533  64.6195716  10.5496135  21.7649160
  64.9948493  10.0233815  22.2096861  54.4085547   2.8610735  28.6387009
  54.2168744   2.8765869  29.4886433  55.2584143   3.0574409  28.6153664
  54.5061269   2.8925086  28.7610304  48.7932460   5.3901716  26.6170826
  48.6517952   4.5385657  26.7415334  49.0773024   5.4330377  25.7933032
  48.8140306   5.2701466  26.5138450  58.9471053   7.2268807  20.7615314
  58.7005767   7.1464557  21.5952103  59.2756176   6.4422274  20.5677842
  58.9592296   7.0995072  20.8562837  62.8419101  13.9352166  24.5502095
  62.7033461  14.6333212  25.0550838  62.0619099  13.7800822  24.1938277
  62.7062328  14.0152333  24.5728369  61.1797187  10.2348541  30.8024477
  61.1745225   9.3628358  30.8066903  61.8858180  10.4336710  30.3293933
  61.2842191  10.1352415  30.7331512  54.9068080   9.9625525  30.1738297
  55.0511456  10.5426733  29.5381407  55.2543728  10.3401822  30.8788152
  54.9795541  10.1046229  30.1837292  57.0787997   9.1615694  27.9563429
  56.3311311   9.3546708  27.5511707  57.2329522   8.3360913  27.7187550
  56.9910425   9.0680805  27.8608835  53.9795835  18.1528297  27.0399324
  54.1285399  17.5931213  26.3872728  54.7595837  18.2320299  27.4231843
  54.1169929  18.0813862  26.9996273  64.3372474  13.2930420  15.3118594
  63.9579283  12.5067558  15.3047884  63.6738720  13.8417277  15.1690239
  64.1830949  13.2575244  15.2899391  56.5049136  18.3242940  28.3183815
  56.4292807  17.6551750  28.8734603  56.4338995  19.0260728  28.8324481
  56.4829742  18.3287847  28.4760663  57.3189774   3.0566244  28.8458832
  57.7762388   3.7890219  28.9731625  57.3946103   2.6332710  29.6046088
  57.3980744   3.1023482  28.9759909  49.5622766   3.3032064  29.9348276
  49.0264955   2.6912422  30.2509043  49.6240530   3.8780200  30.5881943
  49.4918398   3.2978992  30.0783703  57.1619382  16.8443939  19.1507421
  57.9269274  16.5753582  18.8290085  57.0597472  16.3593949  19.8677483
  57.2600878  16.7333503  19.2087248  55.1972152   5.0468348  25.6900656
  54.4068227   4.8659808  26.0117992  55.5932775   4.2695301  25.6730951
  55.1389028   4.9055809  25.7353205  60.5815839  12.6810778  23.4160102
  59.9060840  12.4496011  23.9173489  60.5908215  12.0731961  22.7902207
  60.4834343  12.5569704  23.3976255  57.7109982   7.5228607  30.1724155
  57.6469124   8.3838564  30.0444292  57.8507170   7.2060601  29.3719707
  57.7225453   7.6028774  30.0352368  62.5832573  15.5375911  15.6470280
  62.6652410  16.3442897  15.3231731  63.0682315  15.5571870  16.3711054
  62.6669731  15.6596573  15.7057179  56.3929076  10.2160747  24.3140358
  55.9691325  10.4165246  23.5779377  56.2173932   9.3689595  24.4264658
  56.3039957  10.1209528  24.2214048  55.8940770  21.7311260  26.7761816
  56.3836700  21.0322049  26.5937480  55.3225002  21.4335130  27.3637873
  55.8825300  21.5837483  26.8362856  62.0907773  14.2973329  35.7288606
  62.9042639  14.0258478  35.8893739  61.9302740  13.9980869  34.9248802
  62.1877722  14.2128255  35.6334012  59.3679935   4.9806986  28.6683994
  59.5821905   4.3417900  28.1147348  58.7513835   5.4252810  28.2391856
  59.3085265   4.9517130  28.5234426  60.7784603  17.9025734  20.1138215
  60.3864395  17.5992450  19.3961081  60.9337675  18.7394824  19.9243169
  60.7438193  17.9809571  19.9794712  61.5319023   6.5896051  29.6067302
  60.7195705   6.2821942  29.6880474  61.9908958   6.1095051  30.1710014
  61.4799408   6.4732544  29.7021896  60.9424278  14.4675723  20.0544246
  60.5838933  14.6390366  20.8308278  60.4562989  14.9288929  19.4972244
  60.8182975  14.5614694  20.0869515  58.6272531   7.9956123  34.3896004
  59.0972162   8.6198239  34.7763878  58.6734411   7.3273098  34.9489219
  58.7040407   7.9890803  34.5296075  57.8536038   0.6406110  26.9437660
  57.4667791   0.6655142  27.7251190  57.3668975   0.0747789  26.4912177
  57.7248547   0.5601861  26.9925564  62.1029017  15.3579619  31.0011447
  62.7408738  14.8639815  30.6673903  61.4603109  15.2857020  30.4163674
  62.1023244  15.2738628  30.8653802  63.8286017   7.2068765  25.5677362
  63.4013626   7.1195114  24.8125462  63.1912070   7.3146541  26.1532206
  63.6715625   7.2101425  25.5422804  57.5193180  -2.4726904  29.2347920
  58.1486298  -1.9366604  28.9568990  57.6879042  -2.5649545  30.0861486
  57.6370974  -2.4065542  29.3196448  57.3207095   2.3144290  31.5074332
  58.1480524   2.0429439  31.5632946  57.3414941   3.1105132  31.8638150
  57.4459945   2.3924045  31.5689515  62.1583274  16.0499428  27.6416804
  62.9475652  15.6988492  27.7618885  62.3326872  16.8635816  27.3793437
  62.3003556  16.1185285  27.6204671  51.8976584   9.4608153  24.6944592
  51.0564591   9.3612027  24.9023486  52.1066592  10.2303634  25.0458913
  51.8041277   9.5600197  24.7771907  55.7093249   7.3889552  23.9442190
  55.4056387   6.8345541  24.5452598  55.0072670   7.5681762  23.4570224
  55.5609459   7.3334335  23.9611896  53.7711600  14.6039273  28.6514288
  53.6631955  14.6141335  29.5176346  53.9807382  15.4294054  28.4619241
  53.7861711  14.7280348  28.7518379  51.7885392  11.8551916  26.1136225
  51.1973325  12.4961414  26.0839240  52.5506416  12.2789533  26.0867525
  51.8133653  12.0127754  26.1051372  52.1846015   3.0153913  26.7804243
  52.6447497   3.0892843  27.5179367  52.2302122   3.8135167  26.4304064
  52.2596570   3.1448060  26.8376999  53.8329365   3.6820608  31.3476270
  53.4414930   3.0353955  31.7832048  54.0015228   4.2732043  31.9670525
  53.8000275   3.6734876  31.5038976  67.9075814  11.6857685  27.1113504
  67.9658938  12.1344334  27.8573480  67.2742281  12.0956498  26.6743584
  67.8227109  11.8131420  27.1566052  61.5474908  17.3061227  23.5468250
  61.3494597  17.7952042  22.8524461  60.9262620  17.5102469  24.1252383
  61.4262473  17.4077765  23.5291473  58.5960763   4.6471597  23.7872413
  58.1220717   4.1213359  24.2977724  58.9678898   4.1001070  23.2187275
  58.5810652   4.4887594  23.7787561  48.9733793   6.6443104  29.1555959
  49.8359406   6.5438813  29.0693289  48.6425576   6.0637813  28.5941531
  49.0518989   6.5434731  29.0601365  64.8597493   9.7073973  25.1979194
  64.6195716   8.8680388  25.2021620  65.3389500   9.7874140  25.9219967
  64.8949677   9.5955373  25.3053996  66.8602680   6.4875430  23.1508453
  66.6212450   6.4471264  22.3129238  67.0236582   7.3346582  23.2774174
  66.8492984   6.6067515  23.0461935  63.4648710  10.8725379  29.0813498
  64.1882909  10.4197906  28.9024518  63.1998673  11.1530045  28.2985826
  63.5329984  10.8476348  28.9392213  52.3335579   5.4685553  25.8166377
  51.7088649   5.4803945  25.2092330  51.9981174   5.9445728  26.4657617
  52.1921071   5.5404070  25.8222946  49.0461254  13.5286013  27.2570142
  48.5161179  12.8378452  27.3065116  49.3186348  13.5196198  26.4282850
  49.0085977  13.4253145  27.1417558  59.2467500  10.9709258  27.2308513
  58.6324493  10.4267308  27.5257148  59.7634785  10.4573494  26.7514329
  59.2323162  10.8145667  27.2032742  58.4863797  12.0413528  24.9652812
  58.0591405  11.4163246  24.5318247  58.4788741  11.7588450  25.7911819
  58.4222938  11.9066308  25.0232639  51.6026324   7.0778701  28.0341246
  51.7619811   6.3222025  28.4392968  51.4219218   7.6269640  28.6881983
  51.5991683   7.0472515  28.1903952  59.5446627  -0.7560064  28.5892035
  59.0487188  -0.5596389  27.8983602  60.3015689  -0.3567395  28.4180837
  59.5833452  -0.6682330  28.4612172  56.8149507   2.9182282  25.1795346
  56.8391994   2.3842395  24.4908126  57.0660980   2.4099591  25.8420936
  56.8559425   2.7643186  25.1759990  55.2780442  11.2113841  32.6621385
  54.4276072  11.3485555  32.7979030  55.4408570  10.4777619  33.1069086
  55.1764305  11.1227942  32.7476984  54.5165192   8.1613610  26.8574989
  53.6857122   8.3287428  26.6510237  54.4616710   7.7849561  27.6423874
  54.3854607   8.1303342  26.9423517  52.3248976   1.6522503  32.4931400
  52.9501679   1.1084636  32.7660832  51.8699456   1.1717421  31.9239190
  52.3497236   1.5011985  32.4492994  65.8984024   9.8351790  27.5844048
  66.4901865  10.4749041  27.6162246  66.3343019   9.1374827  27.8736115
  66.0502456   9.8270141  27.6324880  57.7277414  14.2569163  28.2101942
  57.2202505  14.8105010  28.6542572  57.4304060  14.3177453  27.3920716
  57.6082299  14.3475474  28.1550398  59.8939596   2.6222482  27.0526605
  60.3194668   2.1695009  26.4410131  59.2796590   2.0682553  27.3291392
  59.8668242   2.4736459  27.0031630  60.3385195  18.1732420  16.1405885
  59.6214504  17.9993283  15.6753123  60.9891932  17.9384993  15.6081371
  60.3287045  18.1128213  15.9935103  62.9233166   7.0497009  19.8847190
  62.2524356   7.5926711  19.7560256  63.6172916   7.5191864  19.6428885
  62.9262033   7.1995280  19.8302718  56.9719900  19.1893721  25.1158949
  56.7485554  18.4312550  25.4842975  56.4829743  19.2191742  24.3939388
  56.8663349  19.0815945  25.0635690  63.0861293   3.5052893  22.7937564
  63.4388903   3.0782615  23.4683362  62.2276095   3.4203736  22.9238640
  63.0110738   3.4297633  22.9132574  61.0844559   6.7688261  26.7422406
  61.0642486   6.5871556  27.5957185  61.1323760   7.6400280  26.7181989
  61.0879200   6.8704799  26.8645701  59.0290889  13.3575453  32.6670882
  58.9886744  12.7125130  32.0816038  59.8414207  13.3012071  32.9796294
  59.1434042  13.2534420  32.6267831  55.6198356  19.4094179  22.5696033
  55.2058755  18.7468309  22.1799875  56.3045731  19.5572038  22.0491727
  55.6596728  19.3334837  22.4352530  58.9863651  18.5684264  23.3219650
  58.5879934  18.6786535  22.5540470  58.3714870  18.7766331  23.9046210
  58.8362540  18.6157832  23.2950949  64.5185353  -1.3728696  23.7221876
  64.0116218  -2.0799556  23.6543054  65.3152787  -1.7035507  23.8522953
  64.5612593  -1.5255544  23.7320871  54.7168598   6.9872390  29.2220640
  54.2047501   6.3793573  29.5805671  54.5448094   7.7028982  29.6894616
  54.6158235   7.0035689  29.3436864  49.5634312   5.4309965  31.8723002
  49.3936903   6.0911340  31.3271208  49.1200262   5.6416526  32.5935491
  49.4733646   5.5595947  31.8984631  66.7205493  13.1436231  16.7062740
  67.1039099  13.8927587  16.9360837  65.9249607  13.3902051  16.4474730
  66.6599275  13.2905925  16.7020314  58.5937668   4.9096634  31.6622896
  59.1509098   4.6810444  31.0301361  58.2698733   5.6702300  31.3858108
  58.6284078   4.9880471  31.5279393  46.4636377   8.3356831  27.1311492
  45.9163096   7.6657476  27.2492360  47.2528755   7.9686678  27.1954959
  46.4988560   8.1821817  27.1580192  56.3120785   7.9964288  32.6274903
  57.0632112   8.3115964  32.9414457  56.5043362   7.7943459  31.8008824
  56.4512199   8.0131669  32.5518298  60.8846927   8.8035356  23.5234905
  61.3800593   8.0858351  23.4838925  60.0746703   8.5006153  23.4089392
  60.8390821   8.6533002  23.5008631  62.9498746  11.5539043  26.2112034
  63.3753818  11.0313465  25.6582459  62.5855666  12.1519881  25.6900657
  62.9585349  11.5649270  26.0521043  52.5852826  19.8503261  24.9709379
  52.8999385  20.6639649  24.9787161  52.9946239  19.4653479  25.6391538
  52.6920924  19.9131963  25.0713471  59.5377346  15.2673307  22.5413191
  60.0088524  15.9813570  22.7103176  59.8737524  14.6672058  23.0773061
  59.6572461  15.2844772  22.6445567  61.6254330  16.8774621  34.7205263
  61.7351296  16.0883181  35.0762010  61.9545227  16.7880557  33.9179601
  61.6906736  16.7480474  34.6547654  56.4546841   0.0400778  29.4971286
  56.5874746  -0.7568229  29.8252262  56.8391993   0.5667181  30.0769562
  56.5303170   0.0000695  29.6314789  60.1751292  15.0591242  29.3040884
  59.6272238  14.4349125  29.0360949  60.6364321  15.2485514  28.5884963
  60.1618502  14.9950292  29.1591315  62.9845156   3.1276596  26.6892076
  62.4008145   3.6285803  26.2769644  63.3049450   2.6206152  26.0556399
  62.9458332   3.1268431  26.5350583  54.1135287   0.0359953  27.7449180
  54.6579700  -0.3048920  28.3353521  54.1672223   0.8945415  27.8870464
  54.2024407   0.1115212  27.8531053  49.9265846  13.7976369  24.6187988
  50.5310704  13.7572203  23.9901808  49.7193159  14.6447521  24.6492043
  49.9854743  13.9164372  24.5304104  59.7409618  16.0642314  25.8350225
  60.5607992  15.9205280  26.0966520  59.4603696  16.6888513  26.3766663
  59.8206362  16.1352666  25.9538164  45.1617129  12.7810987  24.4886911
  45.0641407  11.9707258  24.7976967  45.9445998  12.7602780  24.1033179
  45.2633265  12.6578077  24.4773774  76.2123269  23.7207166  18.7993101
  76.1817273  24.5751803  18.9711371  76.8104617  23.4202459  19.3579245
  76.2960427  23.8023663  18.9067904  69.4122954  22.8082817  23.5546032
  68.5560849  22.9691315  23.6055149  69.4590607  21.9374881  23.5751093
  69.2922065  22.7033619  23.5652098  63.7964093  32.3445535  19.3183263
  63.0446993  31.9661073  19.0899308  64.2450105  32.3763969  18.5702074
  63.7513760  32.2931142  19.1740766  72.7216670  29.0769343  33.1606488
  73.4283437  28.5821373  33.2893422  72.9104606  29.5178424  32.4309146
  72.8544576  29.0687693  33.0715533  69.2489053  32.7670904  14.7468810
  68.9140422  33.4447826  14.3113033  69.7615924  32.3776216  14.1585682
  69.2754634  32.8095483  14.5955602  68.7893344  34.7185173  20.6879922
  69.1732724  35.2872072  20.1484697  68.7252486  33.9934683  20.2085738
  68.8366772  34.6960637  20.5373785  72.2574775  24.8674861  26.1977683
  72.8030735  25.5459948  26.2571653  72.1991651  24.7262322  25.3379265
  72.3290689  24.9466863  26.0789744  65.3748849  32.3563927  21.5846036
  65.4759212  31.5464281  21.8943164  64.7790595  32.2620873  20.9545714
  65.3021388  32.2228955  21.5372274  74.0339843  26.2959468  17.0711411
  73.9179369  27.0467154  17.5003549  74.8295730  26.0383421  17.3207498
  74.1344433  26.3694315  17.1715503  65.2149589  37.2741516  22.9860892
  65.8587045  37.7154680  23.3757050  65.5405845  36.4694942  22.8991151
  65.3581418  37.2206711  23.0306369  58.5713894  28.3784214  21.2098370
  58.3364078  27.5451866  21.1030638  58.7099534  28.6588879  20.3959570
  58.5569556  28.2967717  21.0740725  60.8703981  20.5469944  24.1082677
  60.2509013  19.9562591  23.9392692  60.7687845  21.1381379  23.4747000
  60.7641657  20.5474027  23.9887667  65.9170169  30.2853491  18.3580754
  66.2386010  30.8258698  17.7542062  66.5642265  29.7150262  18.4903043
  66.0596224  30.2812666  18.2887789  67.9671877  22.2869486  18.4415140
  68.6652042  22.4657614  18.9336604  68.2824209  21.7639825  17.8185530
  68.1167214  22.2363258  18.4217150  60.5973114  24.0922226  26.3526246
  60.4731811  24.6784671  26.9876065  61.2491399  23.5982422  26.6538521
  60.6746764  24.1061030  26.4912176  68.1559812  28.6739931  18.4294932
  68.5953448  28.0657032  18.8749705  68.0064475  28.2947304  17.6580397
  68.1981278  28.5278402  18.3814099  65.6231455  27.2683943  25.6313757
  66.2680458  26.7756386  25.3124706  65.8633232  27.4108730  26.4579836
  65.7542040  27.2161385  25.7063291  68.1617547  30.1138849  25.2820650
  68.4440789  29.3190255  25.0607406  68.8903707  30.5919436  25.3025711
  68.3107110  30.0673446  25.2523665  66.1398740  17.6561883  22.5236415
  65.8102070  18.1073026  21.8540114  65.4643742  17.5778046  23.0709421
  65.9909177  17.7113018  22.5059638  71.7569149  27.0267112  15.3825701
  71.6720444  27.8828079  15.5275270  72.2453532  26.7511436  16.0507860
  71.8158046  27.1124434  15.5027783  73.3475148  13.6447406  20.7686026
  73.0328589  14.3350884  21.2006448  72.8302090  13.5892188  20.0671526
  73.2239619  13.7382294  20.7282975  72.6887582  23.6451907  16.8823436
  72.1599053  23.8611540  17.5420742  73.2112602  24.3388045  16.8024406
  72.6876035  23.7795043  16.9679035  78.1435635  29.2198211  22.2556481
  77.3133338  29.4308855  22.4189897  78.0944887  28.3935266  21.9798764
  78.0142370  29.1287817  22.2393846  64.5787190  27.5415123  15.6830904
  63.9944405  28.0465155  16.0896768  64.1757285  27.3157510  14.9427496
  64.4326494  27.5823372  15.6335929  60.1331218  33.2569884  22.4854576
  59.6498797  33.9820374  22.4614159  60.9454537  33.5546014  22.5964733
  60.1821966  33.4072238  22.4981855  66.2045372  32.0502065  25.0904390
  65.6872314  31.6909480  24.4865698  66.9019764  31.5264240  25.1010456
  66.2310954  31.9199753  25.0034649  69.8608964  32.4996879  31.0520563
  69.9492310  32.3123020  31.8998774  70.2898677  31.8534309  30.6525410
  69.9371067  32.3759887  31.1192315  67.4279424  31.7828039  30.0338225
  66.8650259  31.3700649  30.5577887  68.1900448  31.7080945  30.4531369
  67.4573873  31.7105440  30.1731226  69.0364404  23.7880775  14.1599825
  69.2760408  23.9958759  13.3475168  69.3580245  22.9838284  14.2688769
  69.1201562  23.6994877  14.0560378  64.3454694  15.7174171  18.0059363
  65.1000663  16.0852488  17.7676413  64.1682229  16.0913725  18.7738542
  64.4309173  15.8272359  18.0844251  62.9875416  33.7726060  22.6374856
  63.6895995  33.2578049  22.6947612  62.9072899  34.1000212  23.4421731
  63.0799176  33.7440287  22.7647648  77.6389593  21.8668612  26.0506902
  76.8018014  21.9370799  26.2854496  77.6077824  21.8693106  25.1781204
  77.5107876  21.8778839  25.9566450  64.0354322  24.0101647  31.7655271
  64.2074826  23.9007542  32.6140552  64.5723680  24.6556053  31.5286463
  64.1399326  24.0893649  31.8560367  62.7011759  18.1244490  14.7037476
  62.5187332  18.3416371  13.8778468  63.5637372  18.2383503  14.7596090
  62.8016349  18.1734388  14.5891963  62.3126191  29.9632412  22.1460464
  63.1515091  30.1955345  22.1934225  62.3437960  29.0936724  22.0767499
  62.4407909  29.8689359  22.1425108  62.9378894  30.3833288  26.4473769
  63.4777119  30.2404419  27.1177141  62.2548840  30.7830038  26.8157795
  62.9171048  30.4212958  26.6008191  68.3811478  15.1270901  17.7386499
  69.1097639  14.9486856  17.2924656  68.4706371  15.9688981  17.9493678
  68.5018140  15.2254779  17.7040017  72.3619779  26.0624288  21.6418793
  73.1177294  26.4955803  21.6807702  72.4682103  25.4129058  22.2153429
  72.4889950  26.0301772  21.7316819  75.3999950  29.8897565  22.3921196
  74.9635182  29.8934308  23.1480168  75.0662866  30.5703064  21.9600774
  75.2862570  29.9910021  22.4402029  69.9729024  31.9305898  33.7164347
  70.7569440  32.0436746  34.0820089  69.7725618  31.1047035  33.9123033
  70.0595049  31.8252618  33.7998733  58.3416039  26.6033578  26.6008191
  58.0754454  25.7872695  26.7599181  58.3554603  26.6486734  25.7303706
  58.3040762  26.4890483  26.4961673  75.3197433  16.9311393  24.6350624
  75.9623341  17.0009498  25.2212540  75.5720454  16.2640616  24.1330166
  75.4519565  16.8437742  24.6477904  62.2473786  21.4018663  13.2159949
  61.5331963  21.1156842  13.6282381  62.7317755  21.7415289  13.8566336
  62.2133149  21.4100312  13.3715584  63.0914646  20.1411957  29.2475198
  62.3986442  19.6708936  29.4935930  63.7074973  19.9150261  29.8216905
  63.0799176  20.0379088  29.3684351  70.1299417  33.8416000  27.3630802
  69.3314663  33.6015500  27.6204671  70.5785429  33.8930393  28.1097850
  70.0774028  33.8138391  27.5115727  78.5344296  26.6078485  21.2840834
  79.1960730  26.0469154  21.1836742  77.8935708  26.1130516  21.6093525
  78.5373164  26.4514894  21.3173174  69.4221104  29.9048617  13.5921757
  69.8372253  29.5733641  12.9006253  68.5913034  29.6717519  13.4641894
  69.3609113  29.8219873  13.4712604  58.7509453  27.3892358  23.8819935
  58.5685026  27.3639244  23.0292227  59.4859122  27.8591296  23.9208844
  58.8323517  27.4553720  23.7617853  74.8209127  27.6243868  21.0252822
  75.0564716  27.7689067  20.1979673  74.9698691  28.3886276  21.4184336
  74.8774930  27.7582922  20.9616426  61.8155205  24.1077361  30.3902044
  62.5395177  24.0930391  30.8766938  61.9171341  24.8172716  29.8924012
  61.9373414  24.2102064  30.3880830  76.6499584  26.4645534  18.8622426
  76.9807801  26.9973174  18.2562521  77.2232672  26.5184421  19.5184377
  76.7833263  26.5515102  18.8700208  69.1900154  27.5876445  35.2550991
  68.3973135  27.9019957  35.4403610  69.3049081  27.8027914  34.4171775
  69.0895564  27.6660282  35.1589325  71.8631473  24.3110436  19.5446006
  71.9578327  25.0499730  19.9985632  71.2390316  23.8827912  19.9780571
  71.7840503  24.3571757  19.6754154  70.1183947  27.4896649  30.1936287
  70.6922808  26.8523893  30.3484851  70.0398750  27.4900731  29.3245945
  70.1917182  27.3961760  30.0882698  58.7180363  24.2685858  24.0319001
  59.2953866  24.1322309  24.6711247  58.0194425  23.8121643  24.2864586
  58.7001385  24.1808125  24.1641291  72.1154494  26.1559176  12.7782958
  72.0334657  26.2261363  13.6437945  72.7534215  26.7188920  12.5866699
  72.1974332  26.2498147  12.8772908  65.4747665  25.9219914  22.2457485
  65.2166910  25.0891649  22.2188784  65.5296148  26.1477527  21.4049985
  65.4447443  25.8317685  22.1177621  70.5548716  18.0248365  22.3461577
  69.8505042  17.5357550  22.5045496  70.6033690  18.0370839  21.4750022
  70.4578767  17.9538013  22.2400917  64.4482378  23.4757677  22.7322379
  63.8731969  23.6349845  23.3686340  64.0718054  22.8393086  22.2690830
  64.3085190  23.4055489  22.7576938  68.1155666  21.9481026  27.5914758
  67.7270099  21.5235244  26.9366949  67.4510365  22.1963175  28.0991784
  67.9602594  21.9219747  27.5702626  77.7578935  21.7056031  20.3662588
  77.5015500  20.8935972  20.1760471  78.6008249  21.7133598  20.1392775
  77.8444961  21.5868028  20.3047405  54.1939196  23.1197751  20.7466820
  54.2799448  22.7429620  21.5280350  54.8214994  22.7458197  20.2686778
  54.2995747  23.0083233  20.7912297  71.9382028  15.6455655  25.1038742
  72.3192539  14.9633826  25.4906616  71.1345312  15.3565257  24.9214407
  71.8758489  15.5022703  25.1342798  69.2194604  26.1779630  15.7891565
  70.0335243  26.4694523  15.6774336  69.1553746  25.5239493  15.2149858
  69.3297343  26.1244825  15.6880402  75.4404095  28.8605627  30.2021140
  75.2042732  28.0293691  30.0833201  76.0847324  28.8091234  30.7875985
  75.4998765  28.7303315  30.2707034  65.0902513  29.6501148  20.9163877
  65.7276460  29.4112895  21.4615670  65.5157584  29.8538307  20.1817038
  65.2478679  29.6452158  20.8881034  59.7815155  31.8889484  24.7998181
  59.8219300  32.1604335  23.9717960  60.3409679  32.4131392  25.2155969
  59.8698501  32.0065239  24.7390069  65.7305328  24.8703438  15.2538766
  66.1150480  24.6511144  16.0055311  65.4816948  25.6966383  15.3839843
  65.7507400  24.9601584  15.3839843  65.8973868  18.1509853  34.9701351
  65.5827309  18.9209416  34.7070913  65.5763801  17.5880109  34.3853577
  65.8032787  18.1820122  34.8442700  76.4640515  28.6450075  26.2649435
  76.1586332  29.3778132  26.6262751  75.7446731  28.2388005  25.9842221
  76.3127857  28.6931808  26.2762572  67.4723985  30.1273570  22.5957663
  67.5462993  29.9648742  23.4499513  68.2893491  30.3163760  22.3518145
  67.6040343  30.1310313  22.6855689  82.1642307  25.2843076  25.5917779
  82.0966808  25.3039035  24.7220366  82.1497970  26.1273403  25.8173450
  82.1521064  25.4116811  25.4970256  61.2329741  30.4731433  19.6252107
  60.4067859  30.7193170  19.4986385  61.2941733  30.3943514  20.4914165
  61.1203908  30.4976382  19.7341051  63.4505765  16.5400374  20.5847547
  62.5828191  16.6122974  20.6505156  63.7380969  17.3422453  20.7735522
  63.3645513  16.6694521  20.6222313  72.5738654  16.6878234  28.9158869
  73.3192246  16.4988044  28.5022294  72.1575958  17.2136472  28.3572725
  72.6223628  16.7380379  28.7723442  66.0128570  33.0908314  17.3271137
  66.3026869  32.6997295  16.6030363  66.7432051  33.2725018  17.7676412
  66.1635455  33.0602127  17.2853944  79.9500925  24.0587462  23.8664374
  80.5008846  23.4255531  24.1061466  79.9345040  24.5902855  24.5579878
  80.0286121  24.0436410  24.0043232  66.6023316  27.8926059  28.4124267
  66.1035009  28.6041827  28.4909155  67.4123540  28.2126726  28.3742429
  66.6479422  28.0452908  28.4180836  63.9534486  35.0675696  20.3931286
  63.7334781  34.7773051  21.1857953  63.7329008  34.4090651  19.8649199
  63.8882080  34.9275404  20.4320195  62.8651433  27.1549012  22.6586988
  62.5764682  26.5286484  23.1932715  63.7334781  27.0969300  22.7251668
  62.9511685  27.0536557  22.7477943  73.6529331  22.2983796  22.9768970
  73.3094097  21.5774131  23.3276219  73.7522373  22.0897647  22.1347328
  73.6171374  22.1607999  22.9040650  66.1202442  36.4405086  19.1761979
  66.7726500  35.9081528  19.4053005  65.4228050  36.0873738  19.5629853
  66.1133160  36.3094609  19.2674146  63.0683706  28.7944264  18.5829353
  63.8229674  29.1757303  18.7964816  62.4754319  29.2455407  19.0376050
  63.0920420  28.9173091  18.6812231  74.1142360  28.7609500  18.5192958
  74.6800393  29.4202710  18.4351501  73.4670263  29.1059198  18.9909360
  74.1021116  28.9091441  18.5765714  65.5290374  20.7507104  33.7086565
  64.7190149  21.0564884  33.5976408  66.0065060  21.4712686  33.8239149
  65.4793852  20.9021705  33.7093636  64.3881933  29.9652825  23.9569468
  63.8662687  30.1053117  24.6421333  64.7755953  29.2063489  24.1471586
  64.3685634  29.8738349  24.0870545  61.3773117  20.0158634  18.0264423
  61.0897913  19.6459904  17.2896370  62.0643585  20.4853489  17.7648128
  61.4362014  20.0305603  17.8779499  70.5848938  31.7048284  17.9430037
  70.3435614  30.9716145  17.5357102  70.7650271  32.2535141  17.2896370
  70.5756562  31.6770675  17.7860260  65.8148259  26.9956844  19.3550959
  65.6191041  27.6031578  18.7611262  66.0382604  26.3024788  18.8742633
  65.8182900  26.9834369  19.1967040  64.2126789  23.8811582  19.4731828
  64.9349441  24.0452740  19.0135634  63.7334781  24.6021247  19.3671168
  64.2490519  24.0109811  19.3897442  72.1720296  20.2175381  24.8528513
  71.3331397  20.2436660  24.6166776  72.2424664  20.8646116  25.4333859
  72.0588690  20.3171506  24.9037630  61.8634405  26.2869654  28.5785968
  62.3755502  26.5653908  27.9294727  61.5770748  27.0258948  28.9448781
  61.8969269  26.4372008  28.5375846  70.6189575  17.1160758  19.5856129
  71.3215927  16.9168506  19.1076087  70.3533763  16.3436700  19.8924972
  70.6836207  16.9723724  19.5601570  76.0477820  25.4243367  22.1389754
  75.9611795  25.5798793  22.9924533  75.5928300  26.0681443  21.7649160
  75.9681077  25.5419122  22.2096861  58.9501312  20.7939846  18.8749704
  59.0517448  21.5966007  19.2030680  59.7457198  20.5927182  18.5772785
  59.0829217  20.8825745  18.8785060  65.3818131  18.3796043  28.6387009
  65.1901328  18.3951177  29.4886433  66.2316727  18.5759717  28.6153664
  65.4793853  18.4110394  28.7610304  59.7665044  20.9087024  26.6170826
  59.6250536  20.0570965  26.7415334  60.0505607  20.9515685  25.7933032
  59.7872890  20.7886774  26.5138450  69.9203636  22.7454114  20.7615314
  69.6738350  22.6649865  21.5952103  70.2488759  21.9607582  20.5677842
  69.9324880  22.6180380  20.8562837  73.8151685  29.4537474  24.5502095
  73.6766044  30.1518520  25.0550838  73.0351683  29.2986130  24.1938277
  73.6794912  29.5337640  24.5728369  72.1529770  25.7533849  30.8024477
  72.1477809  24.8813666  30.8066903  72.8590764  25.9522018  30.3293933
  72.2574774  25.6537723  30.7331512  65.8800663  25.4810833  30.1738297
  66.0244039  26.0612041  29.5381407  66.2276312  25.8587130  30.8788152
  65.9528125  25.6231537  30.1837292  68.0520581  24.6801001  27.9563429
  67.3043895  24.8732016  27.5511707  68.2062106  23.8546221  27.7187550
  67.9643008  24.5866113  27.8608835  64.9528418  33.6713605  27.0399324
  65.1017982  33.1116521  26.3872728  65.7328421  33.7505607  27.4231843
  65.0902512  33.5999170  26.9996273  75.3105058  28.8115728  15.3118594
  74.9311867  28.0252866  15.3047884  74.6471303  29.3602585  15.1690239
  75.1563533  28.7760552  15.2899391  67.4781719  33.8428248  28.3183815
  67.4025390  33.1737058  28.8734603  67.4071578  34.5446036  28.8324481
  67.4562326  33.8473155  28.4760663  68.2922358  18.5751552  28.8458832
  68.7494972  19.3075526  28.9731625  68.3678687  18.1518017  29.6046088
  68.3713328  18.6208790  28.9759909  60.5355349  18.8217372  29.9348276
  59.9997539  18.2097730  30.2509043  60.5973114  19.3965508  30.5881943
  60.4650982  18.8164300  30.0783703  72.7649684  11.7541427  22.7152675
  72.8833252  12.2117891  21.9819978  72.5911860  10.9486689  22.4288893
  72.7568855  11.7035199  22.5653609  68.1351966  32.3629247  19.1507421
  68.9001857  32.0938890  18.8290085  68.0330056  31.8779257  19.8677483
  68.2333461  32.2518811  19.2087248  66.1704736  20.5653656  25.6900656
  65.3800811  20.3845116  26.0117992  66.5665359  19.7880609  25.6730951
  66.1121612  20.4241117  25.7353205  70.6570627  29.3941430  11.1307370
  71.4243612  29.4541555  10.7213222  70.2101936  28.8221872  10.6463689
  70.7044054  29.3178006  10.9985080  71.5548422  28.1996086  23.4160102
  70.8793424  27.9681318  23.9173489  71.5640798  27.5917269  22.7902207
  71.4566927  28.0755011  23.3976255  68.6842566  23.0413915  30.1724155
  68.6201707  23.9023872  30.0444292  68.8239754  22.7245908  29.3719707
  68.6958036  23.1214082  30.0352368  73.5565157  31.0561219  15.6470280
  73.6384994  31.8628205  15.3231731  74.0414899  31.0757178  16.3711054
  73.6402315  31.1781881  15.7057179  67.3661660  25.7346055  24.3140358
  66.9423909  25.9350554  23.5779377  67.1906515  24.8874903  24.4264658
  67.2772541  25.6394836  24.2214048  66.8673353  37.2496568  26.7761816
  67.3569284  36.5507357  26.5937480  66.2957586  36.9520438  27.3637873
  66.8557883  37.1022791  26.8362856  62.6544105  26.2298106  19.7468331
  62.8108724  26.1644909  20.6024323  62.9944698  27.0046659  19.5347010
  62.7277340  26.3347304  19.8422925  69.1923250  25.6055990  18.6161694
  69.7338795  25.1026371  19.0800315  69.5069809  25.5521184  17.8051179
  69.3187647  25.5235411  18.5645506  73.0640357  29.8158637  35.7288606
  73.8775222  29.5443786  35.8893739  72.9035323  29.5166177  34.9248802
  73.1610305  29.7313563  35.6334012  67.3609699  30.9973341  15.9001722
  67.4302520  30.1387880  16.0394722  68.1398154  31.2145222  15.5720747
  67.4862549  30.9026205  15.8718879  70.3412519  20.4992294  28.6683994
  70.5554488  19.8603208  28.1147348  69.7246418  20.9438118  28.2391856
  70.2817848  20.4702438  28.5234426  71.7517187  33.4211042  20.1138215
  71.3596979  33.1177758  19.3961081  71.9070259  34.2580132  19.9243169
  71.7170777  33.4994879  19.9794712  59.2278366  23.4133056  20.0629098
  59.6077331  23.8317601  19.3989365  58.6533731  23.9946512  20.3697941
  59.1989691  23.5610915  20.0105839  72.5051607  22.1081359  29.6067302
  71.6928289  21.8007250  29.6880474  72.9641542  21.6280359  30.1710014
  72.4531992  21.9917852  29.7021896  71.9156862  29.9861031  20.0544246
  71.5571516  30.1575674  20.8308278  71.4295572  30.4474237  19.4972244
  71.7915558  30.0800002  20.0869515  69.7327248  13.6092230  23.6571337
  68.8620806  13.5830951  23.6104647  69.9867589  13.4369422  22.8397183
  69.6420808  13.5802373  23.5291474  66.7045227  25.6660197  12.5944480
  66.9937752  26.4425079  12.8688055  66.7917026  25.1548928  13.2958980
  66.7599483  25.7052115  12.7386978  69.6005114  23.5141431  34.3896004
  70.0704746  24.1383547  34.7763878  69.6466995  22.8458406  34.9489219
  69.6772990  23.5076111  34.5296075  66.7576388  15.6198458  25.1144808
  66.2414877  14.9278650  25.2396387  66.1970317  16.2869235  25.0607406
  66.5982901  15.6161716  25.1250874  68.8268622  16.1591418  26.9437660
  68.4400375  16.1840450  27.7251190  68.3401559  15.5933097  26.4912177
  68.6981130  16.0787169  26.9925564  73.0761601  30.8764927  31.0011447
  73.7141321  30.3825123  30.6673903  72.4335693  30.8042328  30.4163674
  73.0755827  30.7923936  30.8653802  74.8018601  22.7254073  25.5677362
  74.3746209  22.6380422  24.8125462  74.1644654  22.8331849  26.1532206
  74.6448208  22.7286733  25.5422804  68.4925763  13.0458404  29.2347920
  69.1218881  13.5818704  28.9568990  68.6611626  12.9535763  30.0861486
  68.6103558  13.1119766  29.3196448  68.2939678  17.8329598  31.5074332
  69.1213107  17.5614747  31.5632946  68.3147524  18.6290440  31.8638150
  68.4192528  17.9109353  31.5689515  73.1315858  31.5684735  27.6416804
  73.9208236  31.2173800  27.7618885  73.3059455  32.3821124  27.3793437
  73.2736139  31.6370593  27.6204671  62.8709168  24.9793461  24.6944592
  62.0297175  24.8797335  24.9023486  63.0799176  25.7488942  25.0458913
  62.7773861  25.0785505  24.7771907  60.3484735  22.6012998  22.5229343
  59.9541433  22.6756010  21.7479453  59.7924852  22.9870945  23.0737705
  60.2087547  22.6694773  22.4897003  71.9849682  15.5794292  22.2033222
  72.1899275  15.5116600  23.0490219  71.6576106  16.3853113  22.1354399
  71.9664930  15.6880233  22.3192877  66.6825833  22.9074860  23.9442190
  66.3788970  22.3530849  24.5452598  65.9805254  23.0867070  23.4570224
  66.5342043  22.8519643  23.9611896  65.7391930  20.2175380  18.5086892
  66.0151664  19.4994293  18.0964459  66.3390599  20.8160300  18.3007998
  65.8685195  20.1995751  18.4167653  64.7444184  30.1224581  28.6514288
  64.6364539  30.1326643  29.5176346  64.9539965  30.9479362  28.4619241
  64.7594295  30.2465656  28.7518379  75.2383369  16.1326056  21.6835987
  74.6257683  16.6196459  22.0689719  75.3347544  15.4569547  22.2273639
  75.1621267  16.1044365  21.8214846  69.2402450  17.8888898  16.7833487
  69.6946197  18.0599458  17.5081331  69.7142496  17.2757008  16.3831262
  69.3770771  17.8239783  16.8307248  62.7617976  27.3737224  26.1136225
  62.1705909  28.0146722  26.0839240  63.5238999  27.7974841  26.0867525
  62.7866236  27.5313062  26.1051372  63.1578599  18.5339221  26.7804243
  63.6180080  18.6078151  27.5179367  63.2034705  19.3320475  26.4304064
  63.2329154  18.6633368  26.8376999  64.8061948  19.2005916  31.3476270
  64.4147513  18.5539263  31.7832048  64.9747811  19.7917351  31.9670525
  64.7732859  19.1920184  31.5038976  78.8808397  27.2042993  27.1113504
  78.9391521  27.6529642  27.8573480  78.2474865  27.6141806  26.6743584
  78.7959692  27.3316728  27.1566052  72.5207492  32.8246535  23.5468250
  72.3227181  33.3137350  22.8524461  71.8995203  33.0287777  24.1252383
  72.3995057  32.9263073  23.5291473  66.5815470  24.5931432  17.8878494
  67.3257515  24.9805708  18.1261444  66.7276167  23.7488857  18.0518982
  66.7126056  24.5261905  17.9472464  68.4995046  16.3881691  22.9210355
  67.6531091  16.5604499  22.7951705  68.4966178  15.5831035  23.2576184
  68.3742196  16.2942720  22.9521482  69.5693346  20.1656905  23.7872413
  69.0953301  19.6398667  24.2977724  69.9411482  19.6186378  23.2187275
  69.5543235  20.0072902  23.7787561  59.9466376  22.1628412  29.1555959
  60.8091989  22.0624121  29.0693289  59.6158159  21.5823121  28.5941531
  60.0251573  22.0620039  29.0601365  75.8330077  25.2259281  25.1979194
  75.5928300  24.3865696  25.2021620  76.3122084  25.3059448  25.9219967
  75.8682261  25.1140681  25.3053996  71.4976846  21.0593460  16.8498167
  70.9699865  21.1422204  16.1603876  71.9572554  21.8011331  16.8462812
  71.4878696  21.1814122  16.7472862  77.8335264  22.0060738  23.1508453
  77.5945034  21.9656572  22.3129238  77.9969165  22.8531890  23.2774174
  77.8225567  22.1252823  23.0461935  74.4381294  26.3910687  29.0813498
  75.1615493  25.9383214  28.9024518  74.1731256  26.6715353  28.2985826
  74.5062567  26.3661656  28.9392213  63.3068162  20.9870861  25.8166377
  62.6821233  20.9989253  25.2092330  62.9713757  21.4631036  26.4657617
  63.1653654  21.0589378  25.8222946  60.0193838  29.0471321  27.2570142
  59.4893762  28.3563760  27.3065116  60.2918931  29.0381506  26.4282850
  59.9818560  28.9438453  27.1417558  71.0513928  29.6297023  15.9807824
  71.7748127  30.0955136  15.8372397  70.6114519  29.6970633  15.2305421
  71.0929621  29.7080860  15.8492606  70.2200083  26.4894566  27.2308513
  69.6057077  25.9452616  27.5257148  70.7367368  25.9758802  26.7514329
  70.2055746  26.3330975  27.2032742  69.4596381  27.5598836  24.9652812
  69.0323989  26.9348554  24.5318247  69.4521325  27.2773758  25.7911819
  69.3955522  27.4251616  25.0232639  62.5758908  22.5964009  28.0341246
  62.7352394  21.8407333  28.4392968  62.3951801  23.1454948  28.6881983
  62.5724267  22.5657823  28.1903952  70.5179211  14.7625244  28.5892035
  70.0219772  14.9588919  27.8983602  71.2748273  15.1617913  28.4180837
  70.5566035  14.8502978  28.4612172  67.7882090  18.4367590  25.1795346
  67.8124578  17.9027703  24.4908126  68.0393564  17.9284899  25.8420936
  67.8292009  18.2828494  25.1759990  55.2989680  25.7199085  24.6138490
  55.1933129  25.6745930  23.7490574  54.5489900  26.0652866  24.8952775
  55.1725283  25.7639993  24.5275820  64.0683413  17.1638408  24.5601090
  64.1081784  17.6647615  25.2735797  63.2433077  17.2548802  24.2907013
  63.9522939  17.2520225  24.6251628  66.2513025  26.7299148  32.6621385
  65.4008656  26.8670863  32.7979030  66.4141153  25.9962927  33.1069086
  66.1496889  26.6413250  32.7476984  65.4897776  23.6798918  26.8574989
  64.6589706  23.8472736  26.6510237  65.4349293  23.3034869  27.6423874
  65.3587191  23.6488650  26.9423517  63.2981559  17.1707811  32.4931400
  63.9234263  16.6269944  32.7660832  62.8432039  16.6902729  31.9239190
  63.3229820  17.0197293  32.4492994  63.8633820  21.9554510  17.3865107
  64.0036781  22.4526974  18.0893748  64.3616353  21.2540804  17.5279320
  63.9574901  21.9256489  17.5116686  63.8934042  22.8221621  14.7157684
  64.5279122  23.4182046  14.6507145  63.9759653  22.5225078  15.5303554
  63.9990593  22.8662529  14.8260770  76.8716608  25.3537098  27.5844048
  77.4634448  25.9934349  27.6162246  77.3075602  24.6560135  27.8736115
  77.0235039  25.3455449  27.6324880  65.4713025  18.7535596  14.6903126
  65.7928866  18.2738679  14.0362388  65.7339969  19.5635242  14.4993937
  65.5579050  18.8025494  14.5658618  68.7009998  29.7754471  28.2101942
  68.1935089  30.3290317  28.6542572  68.4036644  29.8362761  27.3920716
  68.5814883  29.8660782  28.1550398  70.8672180  18.1407790  27.0526605
  71.2927252  17.6880317  26.4410131  70.2529173  17.5867861  27.3291392
  70.8400825  17.9921766  27.0031630  60.3987030  25.0189462  17.9847230
  60.9079259  25.6153969  18.3658535  60.8721302  24.7515435  17.3023649
  60.5430406  25.0675277  17.9401752  71.3117778  33.6917728  16.1405885
  70.5947088  33.5178591  15.6753123  71.9624516  33.4570301  15.6081371
  71.3019629  33.6313521  15.9935103  69.3066403  14.6122890  20.4617182
  68.6634721  14.4620536  21.0302320  68.9665810  14.3665235  19.6966286
  69.1611480  14.5535013  20.4320197  73.8965749  22.5682317  19.8847190
  73.2256939  23.1112019  19.7560256  74.5905500  23.0377172  19.6428885
  73.8994617  22.7180588  19.8302718  67.9452483  34.7079029  25.1158949
  67.7218138  33.9497858  25.4842975  67.4562326  34.7377050  24.3939388
  67.8395932  34.6001253  25.0635690  74.0593877  19.0238200  22.7937564
  74.4121487  18.5967923  23.4683362  73.2008678  18.9389044  22.9238640
  73.9843321  18.9482941  22.9132574  62.7577562  21.6545720  20.8520410
  62.0389551  22.0709853  21.1193274  63.1289924  22.2199959  20.3012048
  62.7069494  21.7995002  20.8103217  72.0577143  22.2873569  26.7422406
  72.0375070  22.1056864  27.5957185  72.1056343  23.1585588  26.7181989
  72.0611784  22.3890107  26.8645701  70.0023472  28.8760761  32.6670882
  69.9619327  28.2310438  32.0816038  70.8146791  28.8197378  32.9796294
  70.1166626  28.7719728  32.6267831  66.5930940  34.9279487  22.5696033
  66.1791339  34.2653617  22.1799875  67.2778314  35.0757346  22.0491727
  66.6329312  34.8520145  22.4352530  69.9596234  34.0869572  23.3219650
  69.5612517  34.1971843  22.5540470  69.3447454  34.2951639  23.9046210
  69.8095123  34.1343140  23.2950949  68.5324136  20.6943720  16.1893790
  67.9388975  21.0160717  15.6378357  68.5699414  19.8484815  15.9814896
  68.4498525  20.6168048  16.0776561  75.4917937  14.1456612  23.7221876
  74.9848802  13.4385752  23.6543054  76.2885371  13.8149801  23.8522953
  75.5345176  13.9929764  23.7320871  71.4081953  20.6523225  19.6195540
  71.1795646  20.6755926  18.7773898  71.6680029  19.8280692  19.7390550
  71.4128141  20.5339305  19.5120737  65.6901181  22.5057698  29.2220640
  65.1780084  21.8978881  29.5805671  65.5180677  23.2214290  29.6894616
  65.5890818  22.5220997  29.3436864  60.5366896  20.9495273  31.8723002
  60.3669486  21.6096648  31.3271208  60.0932846  21.1601834  32.5935491
  60.4466229  21.0781255  31.8984631  64.4626715  19.1899771  20.9149735
  64.9384082  19.5516851  20.2799917  63.9615315  19.8456238  21.1949878
  64.4592074  19.3393960  20.8626476  77.6938077  28.6621539  16.7062740
  78.0771683  29.4112895  16.9360837  76.8982190  28.9087359  16.4474730
  77.6331859  28.8091233  16.7020314  69.5670252  20.4281942  31.6622896
  70.1241682  20.1995752  31.0301361  69.2431317  21.1887608  31.3858108
  69.6016662  20.5065779  31.5279393  57.4368960  23.8542138  27.1311492
  56.8895680  23.1842784  27.2492360  58.2261339  23.4871986  27.1954959
  57.4721144  23.7007125  27.1580192  67.2853369  23.5149596  32.6274903
  68.0364696  23.8301272  32.9414457  67.4775945  23.3128766  31.8008824
  67.4244783  23.5316977  32.5518298  66.5053368  21.3340971  14.2823119
  66.8852333  21.3520600  13.4974234  65.7645964  21.7794959  14.1613967
  66.4522206  21.4022745  14.1486688  74.1338659  19.6423162  19.8698698
  74.1332885  19.4871818  20.7282974  73.9294839  20.4886149  19.8140084
  74.1038437  19.7443783  19.9886637  56.1955930  23.0662946  24.2857515
  56.0177691  22.6139555  25.0112430  55.9074952  23.8689108  24.4695992
  56.1268883  23.1185504  24.4201018  71.8579511  24.3220664  23.5234905
  72.3533176  23.6043659  23.4838925  71.0479287  24.0191461  23.4089392
  71.8123404  24.1718310  23.5008631  67.3038122  28.1718477  15.6731909
  66.4949445  27.8485150  15.6265219  67.8113031  27.4651699  15.6060158
  67.2587789  28.0199793  15.6562204  57.9328400  25.5990670  21.3979274
  57.0673919  25.5876361  21.2862045  58.0327216  25.4120893  22.2450413
  57.8202567  25.5696731  21.5068218  73.9231330  27.0724351  26.2112034
  74.3486401  26.5498773  25.6582459  73.5588250  27.6705189  25.6900657
  73.9317932  27.0834578  26.0521043  63.5585410  35.3688569  24.9709379
  63.8731969  36.1824957  24.9787161  63.9678823  34.9838787  25.6391538
  63.6653508  35.4317271  25.0713471  70.5109929  30.7858615  22.5413191
  70.9821107  31.4998878  22.7103176  70.8470108  30.1857366  23.0773061
  70.6305044  30.8030080  22.6445567  72.5986914  32.3959929  34.7205263
  72.7083879  31.6068489  35.0762010  72.9277810  32.3065865  33.9179601
  72.6639320  32.2665782  34.6547654  67.4279424  15.5586086  29.4971286
  67.5607330  14.7617079  29.8252262  67.8124577  16.0852489  30.0769562
  67.5035753  15.5186003  29.6314789  71.1483876  30.5776550  29.3040884
  70.6004822  29.9534433  29.0360949  71.6096904  30.7670822  28.5884963
  71.1351085  30.5135600  29.1591315  70.5011779  12.4816412  26.0952379
  69.6957743  12.3714142  26.4120218  70.3718515  12.5828868  25.2382245
  70.3631912  12.4800082  26.0160420  73.9577740  18.6461904  26.6892076
  73.3740729  19.1471111  26.2769644  74.2782034  18.1391460  26.0556399
  73.9190915  18.6453739  26.5350583  66.4972539  17.5602499  16.9650751
  67.3188233  17.7300812  16.7232446  66.0342190  17.7149760  16.2417049
  66.5503701  17.6084232  16.8222395  65.0867871  15.5545261  27.7449180
  65.6312284  15.2136388  28.3353521  65.1404807  16.4130723  27.8870464
  65.1756990  15.6300520  27.8531053  60.8998430  29.3161677  24.6187988
  61.5043287  29.2757511  23.9901808  60.6925742  30.1632829  24.6492043
  60.9587327  29.4349680  24.5304104  70.7142202  31.5827622  25.8350225
  71.5340576  31.4390588  26.0966520  70.4336280  32.2073821  26.3766663
  70.7938945  31.6537974  25.9538164  56.1349712  28.2996295  24.4886911
  56.0373990  27.4892566  24.7976967  56.9178582  28.2788088  24.1033179
  56.2365849  28.1763385  24.4773774  87.1855852  39.2392474  18.7993101
  87.1549857  40.0937111  18.9711371  87.7837201  38.9387767  19.3579245
  87.2693010  39.3208971  18.9067904  80.3855537  38.3268125  23.5546032
  79.5293433  38.4876623  23.6055149  80.4323191  37.4560189  23.5751093
  80.2654649  38.2218927  23.5652098  74.7696677  47.8630843  19.3183263
  74.0179576  47.4846381  19.0899308  75.2182689  47.8949276  18.5702074
  74.7246344  47.8116450  19.1740766  83.6949254  44.5954651  33.1606488
  84.4016021  44.1006681  33.2893422  83.8837189  45.0363732  32.4309146
  83.8277159  44.5873001  33.0715533  80.2221637  48.2856212  14.7468810
  79.8873005  48.9633134  14.3113033  80.7348507  47.8961524  14.1585682
  80.2487218  48.3280791  14.5955602  79.7625928  50.2370481  20.6879922
  80.1465307  50.8057380  20.1484697  79.6985069  49.5119991  20.2085738
  79.8099355  50.2145944  20.5373785  83.2307358  40.3860169  26.1977683
  83.7763318  41.0645256  26.2571653  83.1724234  40.2447630  25.3379265
  83.3023273  40.4652171  26.0789744  76.3481433  47.8749235  21.5846036
  76.4491796  47.0649589  21.8943164  75.7523178  47.7806181  20.9545714
  76.2753972  47.7414263  21.5372274  85.0072427  41.8144776  17.0711411
  84.8911953  42.5652462  17.5003549  85.8028314  41.5568729  17.3207498
  85.1077016  41.8879623  17.1715503  76.1882173  52.7926824  22.9860892
  76.8319628  53.2339988  23.3757050  76.5138428  51.9880250  22.8991151
  76.3314001  52.7392019  23.0306369  69.5446477  43.8969522  21.2098370
  69.3096662  43.0637174  21.1030638  69.6832118  44.1774187  20.3959570
  69.5302140  43.8153025  21.0740725  71.8436565  36.0655252  24.1082677
  71.2241596  35.4747899  23.9392692  71.7420428  36.6566687  23.4747000
  71.7374240  36.0659335  23.9887667  76.8902752  45.8038799  18.3580754
  77.2118593  46.3444006  17.7542062  77.5374849  45.2335570  18.4903043
  77.0328808  45.7997974  18.2887789  78.9404460  37.8054794  18.4415140
  79.6384625  37.9842922  18.9336604  79.2556793  37.2825133  17.8185530
  79.0899798  37.7548566  18.4217150  71.5705698  39.6107534  26.3526246
  71.4464395  40.1969979  26.9876065  72.2223982  39.1167730  26.6538521
  71.6479347  39.6246338  26.4912176  79.1292396  44.1925239  18.4294932
  79.5686031  43.5842340  18.8749705  78.9797059  43.8132612  17.6580397
  79.1713861  44.0463710  18.3814099  76.5964039  42.7869251  25.6313757
  77.2413041  42.2941694  25.3124706  76.8365816  42.9294037  26.4579836
  76.7274624  42.7346693  25.7063291  79.1350130  45.6324157  25.2820650
  79.4173373  44.8375562  25.0607406  79.8636291  46.1104744  25.3025711
  79.2839694  45.5858754  25.2523665  77.1131324  33.1747191  22.5236415
  76.7834654  33.6258334  21.8540114  76.4376326  33.0963354  23.0709421
  76.9641760  33.2298326  22.5059638  82.7301732  42.5452420  15.3825701
  82.6453027  43.4013387  15.5275270  83.2186116  42.2696744  16.0507860
  82.7890630  42.6309742  15.5027783  84.3207732  29.1632714  20.7686026
  84.0061173  29.8536192  21.2006448  83.8034673  29.1077496  20.0671526
  84.1972202  29.2567602  20.7282975  83.6620166  39.1637214  16.8823436
  83.1331637  39.3796848  17.5420742  84.1845186  39.8573353  16.8024406
  83.6608619  39.2980351  16.9679035  89.1168218  44.7383519  22.2556481
  88.2865922  44.9494163  22.4189897  89.0677471  43.9120573  21.9798764
  88.9874954  44.6473125  22.2393846  75.5519773  43.0600431  15.6830904
  74.9676989  43.5650463  16.0896768  75.1489869  42.8342818  14.9427496
  75.4059077  43.1008680  15.6335929  71.1063802  48.7755192  22.4854576
  70.6231380  49.5005682  22.4614159  71.9187120  49.0731322  22.5964733
  71.1554550  48.9257546  22.4981855  77.1777956  47.5687373  25.0904390
  76.6604898  47.2094788  24.4865698  77.8752347  47.0449548  25.1010456
  77.2043537  47.4385061  25.0034649  80.8341548  48.0182187  31.0520563
  80.9224894  47.8308328  31.8998774  81.2631261  47.3719617  30.6525410
  80.9103650  47.8945195  31.1192315  78.4012008  47.3013347  30.0338225
  77.8382843  46.8885957  30.5577887  79.1633031  47.2266253  30.4531369
  78.4306456  47.2290748  30.1731226  80.0096988  39.3066083  14.1599825
  80.2492991  39.5144067  13.3475168  80.3312829  38.5023592  14.2688769
  80.0934146  39.2180185  14.0560378  75.3187278  31.2359479  18.0059363
  76.0733246  31.6037796  17.7676413  75.1414813  31.6099033  18.7738542
  75.4041756  31.3457667  18.0844251  73.9607999  49.2911368  22.6374856
  74.6628579  48.7763357  22.6947612  73.8805482  49.6185520  23.4421731
  74.0531760  49.2625594  22.7647648  88.6122177  37.3853920  26.0506902
  87.7750598  37.4556107  26.2854496  88.5810408  37.3878414  25.1781204
  88.4840459  37.3964147  25.9566450  75.0086906  39.5286955  31.7655271
  75.1807410  39.4192850  32.6140552  75.5456263  40.1741361  31.5286463
  75.1131910  39.6078957  31.8560367  73.6744343  33.6429798  14.7037476
  73.4919916  33.8601679  13.8778468  74.5369956  33.7568811  14.7596090
  73.7748932  33.6919696  14.5891963  73.2858775  45.4817720  22.1460464
  74.1247674  45.7140653  22.1934225  73.3170544  44.6122032  22.0767499
  73.4140492  45.3874667  22.1425108  73.9111478  45.9018595  26.4473769
  74.4509703  45.7589726  27.1177141  73.2281424  46.3015346  26.8157795
  73.8903632  45.9398266  26.6008191  79.3544062  30.6456209  17.7386499
  80.0830222  30.4672164  17.2924656  79.4438955  31.4874288  17.9493678
  79.4750724  30.7440087  17.7040017  83.3352363  41.5809596  21.6418793
  84.0909878  42.0141110  21.6807702  83.4414687  40.9314366  22.2153429
  83.4622533  41.5487080  21.7316819  86.3732534  45.4082873  22.3921196
  85.9367766  45.4119616  23.1480168  86.0395449  46.0888372  21.9600774
  86.2595154  45.5095329  22.4402029  80.9461607  47.4491206  33.7164347
  81.7302024  47.5622054  34.0820089  80.7458202  46.6232343  33.9123033
  81.0327633  47.3437926  33.7998733  69.3148623  42.1218886  26.6008191
  69.0487038  41.3058003  26.7599181  69.3287187  42.1672042  25.7303706
  69.2773345  42.0075791  26.4961673  86.2930017  32.4496701  24.6350624
  86.9355925  32.5194806  25.2212540  86.5453037  31.7825924  24.1330166
  86.4252149  32.3623050  24.6477904  73.2206370  36.9203971  13.2159949
  72.5064547  36.6342150  13.6282381  73.7050338  37.2600596  13.8566336
  73.1865733  36.9285620  13.3715584  74.0647229  35.6597265  29.2475198
  73.3719026  35.1894244  29.4935930  74.6807556  35.4335569  29.8216905
  74.0531759  35.5564396  29.3684351  81.1032001  49.3601308  27.3630802
  80.3047246  49.1200808  27.6204671  81.5518012  49.4115701  28.1097850
  81.0506612  49.3323699  27.5115727  89.5076880  42.1263793  21.2840834
  90.1693314  41.5654462  21.1836742  88.8668292  41.6315824  21.6093525
  89.5105747  41.9700202  21.3173174  80.3953688  45.4233925  13.5921757
  80.8104836  45.0918948  12.9006253  79.5645617  45.1902827  13.4641894
  80.3341696  45.3405181  13.4712604  69.7242036  42.9077666  23.8819935
  69.5417610  42.8824552  23.0292227  70.4591705  43.3776603  23.9208844
  69.8056100  42.9739028  23.7617853  85.7941711  43.1429176  21.0252822
  86.0297300  43.2874375  20.1979673  85.9431274  43.9071584  21.4184336
  85.8507514  43.2768230  20.9616426  72.7887788  39.6262669  30.3902044
  73.5127760  39.6115699  30.8766938  72.8903925  40.3358024  29.8924012
  72.9105997  39.7287372  30.3880830  87.6232167  41.9830842  18.8622426
  87.9540384  42.5158482  18.2562521  88.1965255  42.0369729  19.5184377
  87.7565846  42.0700410  18.8700208  80.1632738  43.1061753  35.2550991
  79.3705718  43.4205265  35.4403610  80.2781665  43.3213222  34.4171775
  80.0628148  43.1845590  35.1589325  82.8364056  39.8295744  19.5446006
  82.9310911  40.5685038  19.9985632  82.2122900  39.4013220  19.9780571
  82.7573087  39.8757065  19.6754154  81.0916530  43.0081957  30.1936287
  81.6655392  42.3709201  30.3484851  81.0131334  43.0086039  29.3245945
  81.1649765  42.9147068  30.0882698  69.6912947  39.7871166  24.0319001
  70.2686449  39.6507617  24.6711247  68.9927008  39.3306950  24.2864586
  69.6733968  39.6993433  24.1641291  83.0887078  41.6744484  12.7782958
  83.0067240  41.7446671  13.6437945  83.7266798  42.2374228  12.5866699
  83.1706915  41.7683455  12.8772908  76.4480249  41.4405222  22.2457485
  76.1899493  40.6076957  22.2188784  76.5028732  41.6662835  21.4049985
  76.4180027  41.3502993  22.1177621  81.5281299  33.5433673  22.3461577
  80.8237626  33.0542858  22.5045496  81.5766273  33.5556147  21.4750022
  81.4311351  33.4723321  22.2400917  75.4214961  38.9942984  22.7322379
  74.8464552  39.1535153  23.3686340  75.0450637  38.3578394  22.2690830
  75.2817773  38.9240797  22.7576938  79.0888250  37.4666334  27.5914758
  78.7002682  37.0420551  26.9366949  78.4242948  37.7148483  28.0991784
  78.9335178  37.4405055  27.5702626  88.7311519  37.2241338  20.3662588
  88.4748084  36.4121280  20.1760471  89.5740833  37.2318906  20.1392775
  88.8177544  37.1053336  20.3047405  65.1671780  38.6383059  20.7466820
  65.2532032  38.2614928  21.5280350  65.7947577  38.2643505  20.2686778
  65.2728331  38.5268541  20.7912297  82.9114611  31.1640963  25.1038742
  83.2925123  30.4819134  25.4906616  82.1077896  30.8750565  24.9214407
  82.8491073  31.0208011  25.1342798  80.1927188  41.6964938  15.7891565
  81.0067827  41.9879831  15.6774336  80.1286329  41.0424801  15.2149858
  80.3029927  41.6430133  15.6880402  86.4136678  44.3790934  30.2021140
  86.1775316  43.5478999  30.0833201  87.0579907  44.3276542  30.7875985
  86.4731349  44.2488622  30.2707034  76.0635096  45.1686456  20.9163877
  76.7009043  44.9298203  21.4615670  76.4890168  45.3723615  20.1817038
  76.2211262  45.1637466  20.8881034  70.7547739  47.4074792  24.7998181
  70.7951884  47.6789643  23.9717960  71.3142263  47.9316700  25.2155969
  70.8431085  47.5250547  24.7390069  76.7037911  40.3888746  15.2538766
  77.0883064  40.1696452  16.0055311  76.4549532  41.2151691  15.3839843
  76.7239984  40.4786892  15.3839843  76.8706452  33.6695161  34.9701351
  76.5559893  34.4394723  34.7070913  76.5496384  33.1065417  34.3853577
  76.7765371  33.7005429  34.8442700  87.4373099  44.1635383  26.2649435
  87.1318916  44.8963440  26.6262751  86.7179314  43.7573313  25.9842221
  87.2860441  44.2117116  26.2762572  78.4456568  45.6458878  22.5957663
  78.5195576  45.4834050  23.4499513  79.2626075  45.8349068  22.3518145
  78.5772927  45.6495621  22.6855689  93.1374891  40.8028384  25.5917779
  93.0699391  40.8224343  24.7220366  93.1230553  41.6458711  25.8173450
  93.1253647  40.9302119  25.4970256  72.2062325  45.9916741  19.6252107
  71.3800443  46.2378478  19.4986385  72.2674316  45.9128822  20.4914165
  72.0936492  46.0161690  19.7341051  74.4238349  32.0585682  20.5847547
  73.5560774  32.1308282  20.6505156  74.7113553  32.8607761  20.7735522
  74.3378097  32.1879829  20.6222313  83.5471237  32.2063542  28.9158869
  84.2924829  32.0173352  28.5022294  83.1308542  32.7321780  28.3572725
  83.5956212  32.2565687  28.7723442  76.9861154  48.6093621  17.3271137
  77.2759452  48.2182603  16.6030363  77.7164635  48.7910326  17.7676412
  77.1368038  48.5787435  17.2853944  90.9233508  39.5772770  23.8664374
  91.4741430  38.9440839  24.1061466  90.9077624  40.1088163  24.5579878
  91.0018705  39.5621718  24.0043232  77.5755899  43.4111367  28.4124267
  77.0767593  44.1227135  28.4909155  78.3856123  43.7312034  28.3742429
  77.6212006  43.5638216  28.4180836  74.9267070  50.5861004  20.3931286
  74.7067365  50.2958359  21.1857953  74.7061592  49.9275959  19.8649199
  74.8614664  50.4460712  20.4320195  73.8384017  42.6734320  22.6586988
  73.5497265  42.0471792  23.1932715  74.7067365  42.6154608  22.7251668
  73.9244269  42.5721865  22.7477943  84.6261914  37.8169104  22.9768970
  84.2826680  37.0959439  23.3276219  84.7254957  37.6082955  22.1347328
  84.5903957  37.6793307  22.9040650  77.0935025  51.9590394  19.1761979
  77.7459083  51.4266836  19.4053005  76.3960634  51.6059046  19.5629853
  77.0865743  51.8279917  19.2674146  74.0416290  44.3129571  18.5829353
  74.7962258  44.6942611  18.7964816  73.4486903  44.7640715  19.0376050
  74.0653004  44.4358399  18.6812231  85.0874944  44.2794808  18.5192958
  85.6532976  44.9388018  18.4351501  84.4402847  44.6244506  18.9909360
  85.0753700  44.4276749  18.5765714  76.5022957  36.2692412  33.7086565
  75.6922733  36.5750191  33.5976408  76.9797644  36.9897994  33.8239149
  76.4526436  36.4207013  33.7093636  75.3614517  45.4838133  23.9569468
  74.8395270  45.6238424  24.6421333  75.7488537  44.7248797  24.1471586
  75.3418218  45.3923657  24.0870545  72.3505701  35.5343942  18.0264423
  72.0630496  35.1645212  17.2896370  73.0376169  36.0038797  17.7648128
  72.4094598  35.5490911  17.8779499  81.5581522  47.2233592  17.9430037
  81.3168198  46.4901453  17.5357102  81.7382855  47.7720449  17.2896370
  81.5489146  47.1955983  17.7860260  76.7880842  42.5142152  19.3550959
  76.5923625  43.1216886  18.7611262  77.0115188  41.8210096  18.8742633
  76.7915483  42.5019677  19.1967040  75.1859372  39.3996890  19.4731828
  75.9082024  39.5638048  19.0135634  74.7067365  40.1206555  19.3671168
  75.2223103  39.5295119  19.3897442  83.1452880  35.7360689  24.8528513
  82.3063981  35.7621967  24.6166776  83.2157247  36.3831424  25.4333859
  83.0321273  35.8356814  24.9037630  72.8366989  41.8054962  28.5785968
  73.3488086  42.0839215  27.9294727  72.5503332  42.5444256  28.9448781
  72.8701852  41.9557316  28.5375846  81.5922158  32.6346066  19.5856129
  82.2948511  32.4353814  19.1076087  81.3266347  31.8622008  19.8924972
  81.6568790  32.4909032  19.5601570  87.0210404  40.9428675  22.1389754
  86.9344378  41.0984101  22.9924533  86.5660884  41.5866751  21.7649160
  86.9413660  41.0604430  22.2096861  69.9233895  36.3125154  18.8749704
  70.0250032  37.1151315  19.2030680  70.7189782  36.1112490  18.5772785
  70.0561801  36.4011053  18.8785060  76.3550714  33.8981351  28.6387009
  76.1633911  33.9136485  29.4886433  77.2049310  34.0945025  28.6153664
  76.4526436  33.9295702  28.7610304  70.7397627  36.4272332  26.6170826
  70.5983119  35.5756273  26.7415334  71.0238191  36.4700993  25.7933032
  70.7605473  36.3072082  26.5138450  80.8936220  38.2639422  20.7615314
  80.6470934  38.1835173  21.5952103  81.2221343  37.4792890  20.5677842
  80.9057463  38.1365688  20.8562837  84.7884269  44.9722782  24.5502095
  84.6498628  45.6703828  25.0550838  84.0084266  44.8171438  24.1938277
  84.6527495  45.0522948  24.5728369  83.1262354  41.2719157  30.8024477
  83.1210392  40.3998974  30.8066903  83.8323348  41.4707326  30.3293933
  83.2307358  41.1723031  30.7331512  76.8533247  40.9996141  30.1738297
  76.9976623  41.5797349  29.5381407  77.2008896  41.3772438  30.8788152
  76.9260708  41.1416845  30.1837292  79.0253164  40.1986309  27.9563429
  78.2776478  40.3917324  27.5511707  79.1794690  39.3731529  27.7187550
  78.9375592  40.1051421  27.8608835  75.9261002  49.1898913  27.0399324
  76.0750566  48.6301829  26.3872728  76.7061004  49.2690915  27.4231843
  76.0635096  49.1184478  26.9996273  86.2837641  44.3301036  15.3118594
  85.9044450  43.5438173  15.3047884  85.6203887  44.8787893  15.1690239
  86.1296116  44.2945860  15.2899391  78.4514303  49.3613556  28.3183815
  78.3757974  48.6922366  28.8734603  78.3804162  50.0631344  28.8324481
  78.4294910  49.3658463  28.4760663  79.2654941  34.0936860  28.8458832
  79.7227556  34.8260834  28.9731625  79.3411270  33.6703325  29.6046088
  79.3445911  34.1394098  28.9759909  71.5087933  34.3402680  29.9348276
  70.9730122  33.7283038  30.2509043  71.5705697  34.9150816  30.5881943
  71.4383565  34.3349608  30.0783703  83.7382267  27.2726735  22.7152675
  83.8565835  27.7303199  21.9819978  83.5644443  26.4671997  22.4288893
  83.7301438  27.2220507  22.5653609  79.1084550  47.8814555  19.1507421
  79.8734441  47.6124198  18.8290085  79.0062640  47.3964565  19.8677483
  79.2066045  47.7704119  19.2087248  77.1437319  36.0838964  25.6900656
  76.3533394  35.9030424  26.0117992  77.5397942  35.3065917  25.6730951
  77.0854196  35.9426425  25.7353205  81.6303210  44.9126738  11.1307370
  82.3976195  44.9726863  10.7213222  81.1834519  44.3407180  10.6463689
  81.6776637  44.8363314  10.9985080  82.5281006  43.7181394  23.4160102
  81.8526007  43.4866626  23.9173489  82.5373382  43.1102577  22.7902207
  82.4299510  43.5940319  23.3976255  79.6575150  38.5599223  30.1724155
  79.5934291  39.4209180  30.0444292  79.7972337  38.2431216  29.3719707
  79.6690620  38.6399390  30.0352368  84.5297740  46.5746527  15.6470280
  84.6117578  47.3813513  15.3231731  85.0147482  46.5942486  16.3711054
  84.6134898  46.6967189  15.7057179  78.3394244  41.2531362  24.3140358
  77.9156493  41.4535862  23.5779377  78.1639099  40.4060210  24.4264658
  78.2505124  41.1580144  24.2214048  77.8405937  52.7681875  26.7761816
  78.3301867  52.0692665  26.5937480  77.2690169  52.4705745  27.3637873
  77.8290467  52.6208099  26.8362856  73.6276689  41.7483414  19.7468331
  73.7841308  41.6830217  20.6024323  73.9677282  42.5231966  19.5347010
  73.7009923  41.8532612  19.8422925  80.1655833  41.1241298  18.6161694
  80.7071379  40.6211679  19.0800315  80.4802392  41.0706492  17.8051179
  80.2920230  41.0420718  18.5645506  84.0372941  45.3343945  35.7288606
  84.8507806  45.0629094  35.8893739  83.8767907  45.0351485  34.9248802
  84.1342889  45.2498871  35.6334012  78.3342283  46.5158649  15.9001722
  78.4035103  45.6573188  16.0394722  79.1130738  46.7330530  15.5720747
  78.4595133  46.4211513  15.8718879  81.3145103  36.0177602  28.6683994
  81.5287072  35.3788516  28.1147348  80.6979002  36.4623426  28.2391856
  81.2550432  35.9887746  28.5234426  82.7249770  48.9396350  20.1138215
  82.3329562  48.6363065  19.3961081  82.8802843  49.7765440  19.9243169
  82.6903360  49.0180187  19.9794712  70.2010950  38.9318364  20.0629098
  70.5809915  39.3502909  19.3989365  69.6266315  39.5131820  20.3697941
  70.1722275  39.0796223  20.0105839  83.4784191  37.6266667  29.6067302
  82.6660872  37.3192558  29.6880474  83.9374125  37.1465667  30.1710014
  83.4264575  37.5103160  29.7021896  82.8889445  45.5046339  20.0544246
  82.5304100  45.6760982  20.8308278  82.4028156  45.9659545  19.4972244
  82.7648142  45.5985310  20.0869515  80.7059831  29.1277538  23.6571337
  79.8353389  29.1016259  23.6104647  80.9600172  28.9554730  22.8397183
  80.6153391  29.0987681  23.5291474  77.6777811  41.1845505  12.5944480
  77.9670335  41.9610387  12.8688055  77.7649609  40.6734236  13.2958980
  77.7332067  41.2237423  12.7386978  80.5737698  39.0326739  34.3896004
  81.0437329  39.6568855  34.7763878  80.6199578  38.3643714  34.9489219
  80.6505574  39.0261419  34.5296075  77.7308972  31.1383766  25.1144808
  77.2147460  30.4463958  25.2396387  77.1702901  31.8054543  25.0607406
  77.5715485  31.1347024  25.1250874  79.8001205  31.6776726  26.9437660
  79.4132958  31.7025758  27.7251190  79.3134142  31.1118405  26.4912177
  79.6713714  31.5972477  26.9925564  84.0494185  46.3950235  31.0011447
  84.6873905  45.9010431  30.6673903  83.4068276  46.3227636  30.4163674
  84.0488411  46.3109244  30.8653802  85.7751185  38.2439381  25.5677362
  85.3478793  38.1565730  24.8125462  85.1377238  38.3517157  26.1532206
  85.6180792  38.2472041  25.5422804  79.4658347  28.5643712  29.2347920
  80.0951465  29.1004012  28.9568990  79.6344210  28.4721071  30.0861486
  79.5836141  28.6305074  29.3196448  79.2672262  33.3514906  31.5074332
  80.0945691  33.0800055  31.5632946  79.2880108  34.1475748  31.8638150
  79.3925112  33.4294661  31.5689515  84.1048441  47.0870043  27.6416804
  84.8940819  46.7359108  27.7618885  84.2792039  47.9006432  27.3793437
  84.2468723  47.1555901  27.6204671  73.8441752  40.4978769  24.6944592
  73.0029758  40.3982643  24.9023486  74.0531759  41.2674249  25.0458913
  73.7506444  40.5970812  24.7771907  71.3217318  38.1198306  22.5229343
  70.9274016  38.1941318  21.7479453  70.7657435  38.5056252  23.0737705
  71.1820131  38.1880081  22.4897003  82.9582265  31.0979600  22.2033222
  83.1631859  31.0301908  23.0490219  82.6308689  31.9038421  22.1354399
  82.9397513  31.2065541  22.3192877  77.6558416  38.4260168  23.9442190
  77.3521554  37.8716157  24.5452598  76.9537837  38.6052378  23.4570224
  77.5074626  38.3704951  23.9611896  76.7124514  35.7360688  18.5086892
  76.9884248  35.0179601  18.0964459  77.3123183  36.3345608  18.3007998
  76.8417778  35.7181059  18.4167653  75.7176767  45.6409889  28.6514288
  75.6097122  45.6511951  29.5176346  75.9272549  46.4664669  28.4619241
  75.7326878  45.7650964  28.7518379  86.2115953  31.6511364  21.6835987
  85.5990267  32.1381767  22.0689719  86.3080128  30.9754855  22.2273639
  86.1353851  31.6229673  21.8214846  80.2135034  33.4074206  16.7833487
  80.6678781  33.5784766  17.5081331  80.6875080  32.7942316  16.3831262
  80.3503354  33.3425091  16.8307248  73.7350559  42.8922531  26.1136225
  73.1438493  43.5332030  26.0839240  74.4971583  43.3160149  26.0867525
  73.7598820  43.0498370  26.1051372  74.1311182  34.0524529  26.7804243
  74.5912664  34.1263459  27.5179367  74.1767289  34.8505783  26.4304064
  74.2061738  34.1818676  26.8376999  75.7794532  34.7191224  31.3476270
  75.3880097  34.0724571  31.7832048  75.9480395  35.3102659  31.9670525
  75.7465442  34.7105492  31.5038976  89.8540981  42.7228301  27.1113504
  89.9124105  43.1714950  27.8573480  89.2207449  43.1327114  26.6743584
  89.7692276  42.8502036  27.1566052  83.4940076  48.3431843  23.5468250
  83.2959764  48.8322658  22.8524461  82.8727787  48.5473085  24.1252383
  83.3727640  48.4448381  23.5291473  77.5548054  40.1116740  17.8878494
  78.2990099  40.4991016  18.1261444  77.7008750  39.2674165  18.0518982
  77.6858639  40.0447213  17.9472464  79.4727629  31.9066999  22.9210355
  78.6263675  32.0789807  22.7951705  79.4698762  31.1016343  23.2576184
  79.3474779  31.8128028  22.9521482  80.5425930  35.6842213  23.7872413
  80.0685884  35.1583975  24.2977724  80.9144066  35.1371686  23.2187275
  80.5275819  35.5258210  23.7787561  70.9198960  37.6813720  29.1555959
  71.7824573  37.5809429  29.0693289  70.5890743  37.1008429  28.5941531
  70.9984156  37.5805347  29.0601365  86.8062660  40.7444589  25.1979194
  86.5660883  39.9051004  25.2021620  87.2854668  40.8244756  25.9219967
  86.8414844  40.6325989  25.3053996  82.4709430  36.5778768  16.8498167
  81.9432448  36.6607512  16.1603876  82.9305138  37.3196639  16.8462812
  82.4611280  36.6999430  16.7472862  88.8067847  37.5246046  23.1508453
  88.5677617  37.4841880  22.3129238  88.9701749  38.3717198  23.2774174
  88.7958151  37.6438131  23.0461935  85.4113878  41.9095995  29.0813498
  86.1348076  41.4568522  28.9024518  85.1463840  42.1900661  28.2985826
  85.4795151  41.8846964  28.9392213  74.2800746  36.5056169  25.8166377
  73.6553816  36.5174561  25.2092330  73.9446341  36.9816344  26.4657617
  74.1386238  36.5774686  25.8222946  74.4642495  34.8481287  11.8739062
  74.1155299  35.5001013  12.3370612  73.9838940  34.8338400  11.1462933
  74.3412739  34.9424341  11.8350154  70.9926422  44.5656629  27.2570142
  70.4626346  43.8749068  27.3065116  71.2651515  44.5566814  26.4282850
  70.9551144  44.4623761  27.1417558  82.0246512  45.1482331  15.9807824
  82.7480711  45.6140444  15.8372397  81.5847103  45.2155941  15.2305421
  82.0662204  45.2266168  15.8492606  81.1932667  42.0079874  27.2308513
  80.5789660  41.4637924  27.5257148  81.7099952  41.4944110  26.7514329
  81.1788330  41.8516283  27.2032742  80.4328964  43.0784144  24.9652812
  80.0056572  42.4533862  24.5318247  80.4253909  42.7959065  25.7911819
  80.3688105  42.9436924  25.0232639  73.5491491  38.1149317  28.0341246
  73.7084978  37.3592641  28.4392968  73.3684385  38.6640256  28.6881983
  73.5456850  38.0843130  28.1903952  81.4911794  30.2810552  28.5892035
  80.9952356  30.4774226  27.8983602  82.2480856  30.6803220  28.4180837
  81.5298619  30.3688286  28.4612172  78.7614674  33.9552898  25.1795346
  78.7857161  33.4213010  24.4908126  79.0126148  33.4470207  25.8420936
  78.8024593  33.8013802  25.1759990  66.2722264  41.2384393  24.6138490
  66.1665713  41.1931237  23.7490574  65.5222484  41.5838174  24.8952775
  66.1457867  41.2825301  24.5275820  75.0415996  32.6823716  24.5601090
  75.0814368  33.1832923  25.2735797  74.2165661  32.7734110  24.2907013
  74.9255522  32.7705533  24.6251628  77.2245609  42.2484456  32.6621385
  76.3741240  42.3856171  32.7979030  77.3873737  41.5148235  33.1069086
  77.1229473  42.1598558  32.7476984  76.4630360  39.1984226  26.8574989
  75.6322289  39.3658044  26.6510237  76.4081877  38.8220177  27.6423874
  76.3319774  39.1673957  26.9423517  74.2714143  32.6893119  32.4931400
  74.8966846  32.1455252  32.7660832  73.8164623  32.2088037  31.9239190
  74.2962403  32.5382600  32.4492994  74.8366403  37.4739818  17.3865107
  74.9769364  37.9712282  18.0893748  75.3348936  36.7726112  17.5279320
  74.9307484  37.4441797  17.5116686  74.8666626  38.3406929  14.7157684
  75.5011705  38.9367354  14.6507145  74.9492237  38.0410386  15.5303554
  74.9723177  38.3847837  14.8260770  87.8449192  40.8722406  27.5844048
  88.4367032  41.5119657  27.6162246  88.2808186  40.1745443  27.8736115
  87.9967623  40.8640756  27.6324880  76.4445609  34.2720904  14.6903126
  76.7661450  33.7923987  14.0362388  76.7072552  35.0820550  14.4993937
  76.5311634  34.3210802  14.5658618  79.6742581  45.2939779  28.2101942
  79.1667672  45.8475625  28.6542572  79.3769228  45.3548068  27.3920716
  79.5547466  45.3846090  28.1550398  81.8404764  33.6593098  27.0526605
  82.2659835  33.2065625  26.4410131  81.2261757  33.1053169  27.3291392
  81.8133409  33.5107074  27.0031630  71.3719614  40.5374770  17.9847230
  71.8811843  41.1339277  18.3658535  71.8453886  40.2700743  17.3023649
  71.5162989  40.5860585  17.9401752  82.2850362  49.2103036  16.1405885
  81.5679671  49.0363898  15.6753123  82.9357099  48.9755609  15.6081371
  82.2752212  49.1498829  15.9935103  80.2798986  30.1308198  20.4617182
  79.6367304  29.9805844  21.0302320  79.9398393  29.8850543  19.6966286
  80.1344064  30.0720320  20.4320197  84.8698333  38.0867625  19.8847190
  84.1989523  38.6297327  19.7560256  85.5638083  38.5562480  19.6428885
  84.8727200  38.2365896  19.8302718  78.9185067  50.2264337  25.1158949
  78.6950721  49.4683166  25.4842975  78.4294910  50.2562358  24.3939388
  78.8128516  50.1186561  25.0635690  85.0326460  34.5423508  22.7937564
  85.3854070  34.1153231  23.4683362  84.1741262  34.4574352  22.9238640
  84.9575905  34.4668249  22.9132574  73.7310145  37.1731028  20.8520410
  73.0122135  37.5895161  21.1193274  74.1022508  37.7385267  20.3012048
  73.6802077  37.3180310  20.8103217  83.0309726  37.8058877  26.7422406
  83.0107654  37.6242172  27.5957185  83.0788927  38.6770896  26.7181989
  83.0344367  37.9075415  26.8645701  80.9756056  44.3946069  32.6670882
  80.9351911  43.7495746  32.0816038  81.7879374  44.3382686  32.9796294
  81.0899210  44.2905036  32.6267831  77.5663524  50.4464795  22.5696033
  77.1523922  49.7838925  22.1799875  78.2510898  50.5942654  22.0491727
  77.6061895  50.3705453  22.4352530  80.9328818  49.6054880  23.3219650
  80.5345101  49.7157150  22.5540470  80.3180037  49.8136946  23.9046210
  80.7827707  49.6528448  23.2950949  79.5056720  36.2129028  16.1893790
  78.9121559  36.5346024  15.6378357  79.5431997  35.3670123  15.9814896
  79.4231109  36.1353356  16.0776561  86.4650520  29.6641920  23.7221876
  85.9581385  28.9571060  23.6543054  87.2617954  29.3335109  23.8522953
  86.5077760  29.5115072  23.7320871  82.3814536  36.1708532  19.6195540
  82.1528229  36.1941234  18.7773898  82.6412613  35.3466000  19.7390550
  82.3860724  36.0524612  19.5120737  76.6633765  38.0243006  29.2220640
  76.1512668  37.4164188  29.5805671  76.4913261  38.7399598  29.6894616
  76.5623402  38.0406305  29.3436864  71.5099479  36.4680581  31.8723002
  71.3402070  37.1281956  31.3271208  71.0665429  36.6787142  32.5935491
  71.4198813  36.5966563  31.8984631  75.4359299  34.7085079  20.9149735
  75.9116665  35.0702159  20.2799917  74.9347898  35.3641546  21.1949878
  75.4324658  34.8579268  20.8626476  88.6670660  44.1806847  16.7062740
  89.0504266  44.9298203  16.9360837  87.8714774  44.4272667  16.4474730
  88.6064443  44.3276541  16.7020314  80.5402835  35.9467250  31.6622896
  81.0974265  35.7181060  31.0301361  80.2163900  36.7072916  31.3858108
  80.5749245  36.0251087  31.5279393  68.4101544  39.3727446  27.1311492
  67.8628263  38.7028092  27.2492360  69.1993922  39.0057294  27.1954959
  68.4453728  39.2192433  27.1580192  78.2585952  39.0334903  32.6274903
  79.0097279  39.3486580  32.9414457  78.4508529  38.8314074  31.8008824
  78.3977367  39.0502285  32.5518298  77.4785952  36.8526279  14.2823119
  77.8584917  36.8705908  13.4974234  76.7378548  37.2980267  14.1613967
  77.4254790  36.9208053  14.1486688  85.1071243  35.1608470  19.8698698
  85.1065469  35.0057126  20.7282974  84.9027423  36.0071457  19.8140084
  85.0771020  35.2629091  19.9886637  67.1688513  38.5848254  24.2857515
  66.9910275  38.1324863  25.0112430  66.8807536  39.3874416  24.4695992
  67.1001467  38.6370812  24.4201018  82.8312095  39.8405972  23.5234905
  83.3265760  39.1228967  23.4838925  82.0211870  39.5376769  23.4089392
  82.7855988  39.6903618  23.5008631  78.2770706  43.6903785  15.6731909
  77.4682029  43.3670458  15.6265219  78.7845615  42.9837007  15.6060158
  78.2320373  43.5385101  15.6562204  68.9060983  41.1175978  21.3979274
  68.0406503  41.1061668  21.2862045  69.0059799  40.9306201  22.2450413
  68.7935150  41.0882039  21.5068218  84.8963913  42.5909659  26.2112034
  85.3218985  42.0684081  25.6582459  84.5320833  43.1890497  25.6900657
  84.9050516  42.6019886  26.0521043  74.5317993  50.8873877  24.9709379
  74.8464552  51.7010265  24.9787161  74.9411407  50.5024095  25.6391538
  74.6386091  50.9502579  25.0713471  81.4842513  46.3043923  22.5413191
  81.9553691  47.0184186  22.7103176  81.8202691  45.7042674  23.0773061
  81.6037628  46.3215388  22.6445567  83.5719497  47.9145237  34.7205263
  83.6816463  47.1253797  35.0762010  83.9010394  47.8251173  33.9179601
  83.6371903  47.7851090  34.6547654  78.4012008  31.0771394  29.4971286
  78.5339913  30.2802387  29.8252262  78.7857161  31.6037797  30.0769562
  78.4768337  31.0371311  29.6314789  82.1216459  46.0961858  29.3040884
  81.5737405  45.4719741  29.0360949  82.5829488  46.2856130  28.5884963
  82.1083669  46.0320908  29.1591315  81.4744363  28.0001720  26.0952379
  80.6690327  27.8899450  26.4120218  81.3451098  28.1014176  25.2382245
  81.3364496  27.9985390  26.0160420  84.9310324  34.1647212  26.6892076
  84.3473312  34.6656418  26.2769644  85.2514618  33.6576768  26.0556399
  84.8923499  34.1639047  26.5350583  77.4705123  33.0787807  16.9650751
  78.2920817  33.2486120  16.7232446  77.0074774  33.2335068  16.2417049
  77.5236285  33.1269540  16.8222395  76.0600455  31.0730569  27.7449180
  76.6044868  30.7321696  28.3353521  76.1137390  31.9316031  27.8870464
  76.1489574  31.1485828  27.8531053  71.8731013  44.8346985  24.6187988
  72.4775871  44.7942819  23.9901808  71.6658326  45.6818137  24.6492043
  71.9319911  44.9534988  24.5304104  81.6874786  47.1012930  25.8350225
  82.5073159  46.9575896  26.0966520  81.4068863  47.7259129  26.3766663
  81.7671529  47.1723282  25.9538164  67.1082296  43.8181603  24.4886911
  67.0106574  43.0077874  24.7976967  67.8911165  43.7973396  24.1033179
  67.2098432  43.6948693  24.4773774  98.1588436  54.7577782  18.7993101
  98.1282440  55.6122419  18.9711371  98.7569785  54.4573074  19.3579245
  98.2425594  54.8394278  18.9067904  91.3588121  53.8453433  23.5546032
  90.5026016  54.0061931  23.6055149  91.4055774  52.9745497  23.5751093
  91.2387232  53.7404235  23.5652098  85.7429260  63.3816151  19.3183263
  84.9912160  63.0031689  19.0899308  86.1915272  63.4134584  18.5702074
  85.6978927  63.3301758  19.1740766  94.6681837  60.1139959  33.1606488
  95.3748605  59.6191989  33.2893422  94.8569773  60.5549040  32.4309146
  94.8009743  60.1058309  33.0715533  91.1954220  63.8041520  14.7468810
  90.8605589  64.4818442  14.3113033  91.7081091  63.4146832  14.1585682
  91.2219801  63.8466098  14.5955602  90.7358512  65.7555789  20.6879922
  91.1197891  66.3242688  20.1484697  90.6717653  65.0305299  20.2085738
  90.7831939  65.7331252  20.5373785  94.2039942  55.9045477  26.1977683
  94.7495902  56.5830563  26.2571653  94.1456818  55.7632938  25.3379265
  94.2755856  55.9837479  26.0789744  87.3214017  63.3934543  21.5846036
  87.4224380  62.5834897  21.8943164  86.7255762  63.2991489  20.9545714
  87.2486555  63.2599571  21.5372274  95.9805010  57.3330084  17.0711411
  95.8644536  58.0837770  17.5003549  96.7760897  57.0754037  17.3207498
  96.0809600  57.4064931  17.1715503  87.1614756  68.3112132  22.9860892
  87.8052212  68.7525296  23.3757050  87.4871012  67.5065558  22.8991151
  87.3046585  68.2577327  23.0306369  80.5179061  59.4154829  21.2098370
  80.2829245  58.5822482  21.1030638  80.6564702  59.6959495  20.3959570
  80.5034723  59.3338333  21.0740725  82.8169148  51.5840560  24.1082677
  82.1974180  50.9933207  23.9392692  82.7153012  52.1751995  23.4747000
  82.7106824  51.5844643  23.9887667  87.8635336  61.3224107  18.3580754
  88.1851177  61.8629314  17.7542062  88.5107432  60.7520878  18.4903043
  88.0061391  61.3183282  18.2887789  89.9137044  53.3240102  18.4415140
  90.6117209  53.5028229  18.9336604  90.2289377  52.8010441  17.8185530
  90.0632381  53.2733874  18.4217150  82.5438281  55.1292842  26.3526246
  82.4196978  55.7155287  26.9876065  83.1956566  54.6353038  26.6538521
  82.6211931  55.1431646  26.4912176  90.1024979  59.7110547  18.4294932
  90.5418615  59.1027647  18.8749705  89.9529642  59.3317920  17.6580397
  90.1446445  59.5649018  18.3814099  87.5696622  58.3054559  25.6313757
  88.2145625  57.8127002  25.3124706  87.8098399  58.4479345  26.4579836
  87.7007207  58.2532001  25.7063291  90.1082714  61.1509465  25.2820650
  90.3905957  60.3560870  25.0607406  90.8368874  61.6290052  25.3025711
  90.2572277  61.1044062  25.2523665  88.0863908  48.6932499  22.5236415
  87.7567238  49.1443642  21.8540114  87.4108909  48.6148662  23.0709421
  87.9374344  48.7483634  22.5059638  93.7034316  58.0637728  15.3825701
  93.6185611  58.9198695  15.5275270  94.1918699  57.7882052  16.0507860
  93.7623213  58.1495050  15.5027783  95.2940315  44.6818021  20.7686026
  94.9793756  45.3721500  21.2006448  94.7767257  44.6262804  20.0671526
  95.1704786  44.7752910  20.7282975  94.6352749  54.6822522  16.8823436
  94.1064221  54.8982156  17.5420742  95.1577769  55.3758661  16.8024406
  94.6341202  54.8165659  16.9679035 100.0900802  60.2568827  22.2556481
  99.2598505  60.4679471  22.4189897 100.0410054  59.4305881  21.9798764
  99.9607537  60.1658433  22.2393846  86.5252357  58.5785739  15.6830904
  85.9409572  59.0835771  16.0896768  86.1222452  58.3528126  14.9427496
  86.3791661  58.6193987  15.6335929  82.0796386  64.2940500  22.4854576
  81.5963964  65.0190990  22.4614159  82.8919704  64.5916630  22.5964733
  82.1287133  64.4442854  22.4981855  88.1510540  63.0872681  25.0904390
  87.6337481  62.7280096  24.4865698  88.8484931  62.5634855  25.1010456
  88.1776121  62.9570369  25.0034649  91.8074132  63.5367495  31.0520563
  91.8957477  63.3493635  31.8998774  92.2363844  62.8904925  30.6525410
  91.8836234  63.4130503  31.1192315  89.3744591  62.8198655  30.0338225
  88.8115426  62.4071265  30.5577887  90.1365615  62.7451561  30.4531369
  89.4039040  62.7476056  30.1731226  90.9829571  54.8251391  14.1599825
  91.2225575  55.0329375  13.3475168  91.3045412  54.0208900  14.2688769
  91.0666729  54.7365492  14.0560378  86.2919862  46.7544787  18.0059363
  87.0465830  47.1223104  17.7676413  86.1147396  47.1284341  18.7738542
  86.3774340  46.8642975  18.0844251  84.9340583  64.8096676  22.6374856
  85.6361162  64.2948665  22.6947612  84.8538066  65.1370828  23.4421731
  85.0264343  64.7810902  22.7647648  99.5854760  52.9039227  26.0506902
  98.7483181  52.9741415  26.2854496  99.5542991  52.9063722  25.1781204
  99.4573043  52.9149455  25.9566450  85.9819489  55.0472263  31.7655271
  86.1539993  54.9378158  32.6140552  86.5188847  55.6926669  31.5286463
  86.0864493  55.1264265  31.8560367  84.6476926  49.1615106  14.7037476
  84.4652500  49.3786987  13.8778468  85.5102539  49.2754119  14.7596090
  84.7481516  49.2105004  14.5891963  84.2591358  61.0003028  22.1460464
  85.0980258  61.2325961  22.1934225  84.2903127  60.1307340  22.0767499
  84.3873076  60.9059975  22.1425108  84.8844061  61.4203903  26.4473769
  85.4242286  61.2775034  27.1177141  84.2014008  61.8200654  26.8157795
  84.8636215  61.4583574  26.6008191  90.3276645  46.1641517  17.7386499
  91.0562806  45.9857472  17.2924656  90.4171538  47.0059596  17.9493678
  90.4483308  46.2625395  17.7040017  94.3084946  57.0994904  21.6418793
  95.0642461  57.5326418  21.6807702  94.4147271  56.4499674  22.2153429
  94.4355117  57.0672388  21.7316819  97.3465117  60.9268181  22.3921196
  96.9100349  60.9304924  23.1480168  97.0128033  61.6073680  21.9600774
  97.2327737  61.0280637  22.4402029  91.9194191  62.9676514  33.7164347
  92.7034608  63.0807362  34.0820089  91.7190785  62.1417651  33.9123033
  92.0060216  62.8623233  33.7998733  80.2881206  57.6404194  26.6008191
  80.0219622  56.8243311  26.7599181  80.3019770  57.6857350  25.7303706
  80.2505929  57.5261099  26.4961673  97.2662600  47.9682009  24.6350624
  97.9088509  48.0380114  25.2212540  97.5185621  47.3011232  24.1330166
  97.3984732  47.8808358  24.6477904  84.1938953  52.4389279  13.2159949
  83.4797130  52.1527458  13.6282381  84.6782922  52.7785904  13.8566336
  84.1598317  52.4470928  13.3715584  85.0379813  51.1782572  29.2475198
  84.3451609  50.7079552  29.4935930  85.6540140  50.9520877  29.8216905
  85.0264343  51.0749704  29.3684351  92.0764584  64.8786616  27.3630802
  91.2779830  64.6386116  27.6204671  92.5250596  64.9301009  28.1097850
  92.0239195  64.8509007  27.5115727 100.4809463  57.6449101  21.2840834
 101.1425898  57.0839770  21.1836742  99.8400875  57.1501132  21.6093525
 100.4838331  57.4885510  21.3173174  91.3686271  60.9419233  13.5921757
  91.7837420  60.6104256  12.9006253  90.5378201  60.7088135  13.4641894
  91.3074280  60.8590489  13.4712604  80.6974620  58.4262974  23.8819935
  80.5150193  58.4009860  23.0292227  81.4324289  58.8961911  23.9208844
  80.7788684  58.4924336  23.7617853  96.7674294  58.6614484  21.0252822
  97.0029883  58.8059682  20.1979673  96.9163858  59.4256892  21.4184336
  96.8240097  58.7953538  20.9616426  83.7620372  55.1447976  30.3902044
  84.4860344  55.1301007  30.8766938  83.8636508  55.8543332  29.8924012
  83.8838581  55.2472680  30.3880830  98.5964751  57.5016149  18.8622426
  98.9272968  58.0343790  18.2562521  99.1697839  57.5555037  19.5184377
  98.7298430  57.5885718  18.8700208  91.1365321  58.6247061  35.2550991
  90.3438302  58.9390573  35.4403610  91.2514248  58.8398529  34.4171775
  91.0360732  58.7030898  35.1589325  93.8096640  55.3481052  19.5446006
  93.9043494  56.0870346  19.9985632  93.1855484  54.9198528  19.9780571
  93.7305670  55.3942373  19.6754154  92.0649114  58.5267265  30.1936287
  92.6387976  57.8894509  30.3484851  91.9863918  58.5271347  29.3245945
  92.1382349  58.4332376  30.0882698  80.6645530  55.3056474  24.0319001
  81.2419033  55.1692925  24.6711247  79.9659592  54.8492258  24.2864586
  80.6466552  55.2178740  24.1641291  94.0619661  57.1929792  12.7782958
  93.9799824  57.2631979  13.6437945  94.6999382  57.7559536  12.5866699
  94.1439499  57.2868763  12.8772908  87.4212832  56.9590530  22.2457485
  87.1632077  56.1262265  22.2188784  87.4761315  57.1848143  21.4049985
  87.3912610  56.8688301  22.1177621  92.5013883  49.0618981  22.3461577
  91.7970209  48.5728166  22.5045496  92.5498857  49.0741455  21.4750022
  92.4043934  48.9908629  22.2400917  86.3947545  54.5128292  22.7322379
  85.8197136  54.6720461  23.3686340  86.0183221  53.8763702  22.2690830
  86.2550357  54.4426105  22.7576938  90.0620833  52.9851642  27.5914758
  89.6735266  52.5605859  26.9366949  89.3975532  53.2333791  28.0991784
  89.9067761  52.9590363  27.5702626  99.7044102  52.7426646  20.3662588
  99.4480667  51.9306588  20.1760471 100.5473416  52.7504214  20.1392775
  99.7910128  52.6238644  20.3047405  76.1404364  54.1568367  20.7466820
  76.2264615  53.7800235  21.5280350  76.7680161  53.7828813  20.2686778
  76.2460915  54.0453849  20.7912297  93.8847195  46.6826270  25.1038742
  94.2657707  46.0004442  25.4906616  93.0810479  46.3935873  24.9214407
  93.8223657  46.5393319  25.1342798  91.1659772  57.2150246  15.7891565
  91.9800410  57.5065139  15.6774336  91.1018913  56.5610109  15.2149858
  91.2762511  57.1615441  15.6880402  97.3869262  59.8976242  30.2021140
  97.1507899  59.0664307  30.0833201  98.0312491  59.8461850  30.7875985
  97.4463932  59.7673930  30.2707034  87.0367680  60.6871764  20.9163877
  87.6741627  60.4483511  21.4615670  87.4622751  60.8908923  20.1817038
  87.1943846  60.6822774  20.8881034  81.7280322  62.9260100  24.7998181
  81.7684467  63.1974951  23.9717960  82.2874846  63.4502008  25.2155969
  81.8163668  63.0435855  24.7390069  87.6770495  55.9074053  15.2538766
  88.0615648  55.6881760  16.0055311  87.4282115  56.7336999  15.3839843
  87.6972567  55.9972200  15.3839843  87.8439035  49.1880469  34.9701351
  87.5292476  49.9580031  34.7070913  87.5228968  48.6250725  34.3853577
  87.7497954  49.2190737  34.8442700  98.4105682  59.6820691  26.2649435
  98.1051499  60.4148748  26.6262751  97.6911898  59.2758621  25.9842221
  98.2593025  59.7302424  26.2762572  89.4189152  61.1644186  22.5957663
  89.4928160  61.0019358  23.4499513  90.2358658  61.3534376  22.3518145
  89.5505510  61.1680929  22.6855689 104.1107474  56.3213692  25.5917779
 104.0431975  56.3409651  24.7220366 104.0963137  57.1644019  25.8173450
 104.0986231  56.4487427  25.4970256  83.1794908  61.5102049  19.6252107
  82.3533026  61.7563786  19.4986385  83.2406900  61.4314130  20.4914165
  83.0669075  61.5346998  19.7341051  85.3970932  47.5770990  20.5847547
  84.5293358  47.6493590  20.6505156  85.6846137  48.3793069  20.7735522
  85.3110680  47.7065137  20.6222313  94.5203821  47.7248850  28.9158869
  95.2657413  47.5358660  28.5022294  94.1041126  48.2507087  28.3572725
  94.5688795  47.7750995  28.7723442  87.9593737  64.1278929  17.3271137
  88.2492036  63.7367911  16.6030363  88.6897218  64.3095634  17.7676412
  88.1100622  64.0972743  17.2853944 101.8966092  55.0958078  23.8664374
 102.4474013  54.4626147  24.1061466 101.8810207  55.6273471  24.5579878
 101.9751288  55.0807026  24.0043232  88.5488483  58.9296675  28.4124267
  88.0500176  59.6412443  28.4909155  89.3588707  59.2497342  28.3742429
  88.5944589  59.0823524  28.4180836  85.8999653  66.1046312  20.3931286
  85.6799948  65.8143667  21.1857953  85.6794175  65.4461267  19.8649199
  85.8347247  65.9646020  20.4320195  84.8116600  58.1919628  22.6586988
  84.5229849  57.5657100  23.1932715  85.6799948  58.1339916  22.7251668
  84.8976852  58.0907173  22.7477943  95.5994498  53.3354412  22.9768970
  95.2559264  52.6144747  23.3276219  95.6987541  53.1268263  22.1347328
  95.5636541  53.1978615  22.9040650  88.0667609  67.4775702  19.1761979
  88.7191667  66.9452144  19.4053005  87.3693218  67.1244354  19.5629853
  88.0598327  67.3465225  19.2674146  85.0148874  59.8314879  18.5829353
  85.7694842  60.2127918  18.7964816  84.4219486  60.2826023  19.0376050
  85.0385587  59.9543707  18.6812231  96.0607527  59.7980116  18.5192958
  96.6265560  60.4573326  18.4351501  95.4135431  60.1429814  18.9909360
  96.0486284  59.9462057  18.5765714  87.4755541  51.7877720  33.7086565
  86.6655316  52.0935499  33.5976408  87.9530227  52.5083302  33.8239149
  87.4259019  51.9392321  33.7093636  86.3347100  61.0023441  23.9569468
  85.8127854  61.1423732  24.6421333  86.7221121  60.2434105  24.1471586
  86.3150801  60.9108965  24.0870545  83.3238284  51.0529249  18.0264423
  83.0363080  50.6830520  17.2896370  84.0108753  51.5224105  17.7648128
  83.3827182  51.0676219  17.8779499  92.5314105  62.7418900  17.9430037
  92.2900781  62.0086761  17.5357102  92.7115438  63.2905757  17.2896370
  92.5221729  62.7141291  17.7860260  87.7613426  58.0327460  19.3550959
  87.5656208  58.6402194  18.7611262  87.9847771  57.3395404  18.8742633
  87.7648067  58.0204985  19.1967040  86.1591956  54.9182198  19.4731828
  86.8814608  55.0823356  19.0135634  85.6799949  55.6391863  19.3671168
  86.1955687  55.0480427  19.3897442  94.1185463  51.2545996  24.8528513
  93.2796564  51.2807275  24.6166776  94.1889831  51.9016732  25.4333859
  94.0053857  51.3542122  24.9037630  83.8099573  57.3240270  28.5785968
  84.3220670  57.6024523  27.9294727  83.5235915  58.0629564  28.9448781
  83.8434436  57.4742624  28.5375846  92.5654742  48.1531373  19.5856129
  93.2681095  47.9539122  19.1076087  92.2998930  47.3807316  19.8924972
  92.6301374  48.0094340  19.5601570  97.9942987  56.4613983  22.1389754
  97.9076962  56.6169409  22.9924533  97.5393467  57.1052059  21.7649160
  97.9146244  56.5789738  22.2096861  80.8966479  51.8310462  18.8749704
  80.9982615  52.6336623  19.2030680  81.6922366  51.6297798  18.5772785
  81.0294385  51.9196361  18.8785060  87.3283298  49.4166659  28.6387009
  87.1366495  49.4321793  29.4886433  88.1781894  49.6130333  28.6153664
  87.4259020  49.4481010  28.7610304  81.7130211  51.9457640  26.6170826
  81.5715703  51.0941581  26.7415334  81.9970774  51.9886301  25.7933032
  81.7338057  51.8257390  26.5138450  91.8668803  53.7824730  20.7615314
  91.6203518  53.7020481  21.5952103  92.1953926  52.9978198  20.5677842
  91.8790047  53.6550996  20.8562837  95.7616852  60.4908090  24.5502095
  95.6231211  61.1889135  25.0550838  94.9816850  60.3356746  24.1938277
  95.6260079  60.5708256  24.5728369  94.0994937  56.7904465  30.8024477
  94.0942976  55.9184282  30.8066903  94.8055931  56.9892634  30.3293933
  94.2039941  56.6908339  30.7331512  87.8265831  56.5181449  30.1738297
  87.9709206  57.0982657  29.5381407  88.1741479  56.8957746  30.8788152
  87.8993292  56.6602153  30.1837292  89.9985748  55.7171617  27.9563429
  89.2509062  55.9102632  27.5511707  90.1527273  54.8916837  27.7187550
  89.9108176  55.6236729  27.8608835  86.8993586  64.7084221  27.0399324
  87.0483149  64.1487137  26.3872728  87.6793588  64.7876222  27.4231843
  87.0367679  64.6369786  26.9996273  97.2570225  59.8486343  15.3118594
  96.8777034  59.0623481  15.3047884  96.5936470  60.3973200  15.1690239
  97.1028700  59.8131167  15.2899391  89.4246886  64.8798864  28.3183815
  89.3490557  64.2107674  28.8734603  89.3536745  65.5816652  28.8324481
  89.4027493  64.8843771  28.4760663  90.2387525  49.6122168  28.8458832
  90.6960139  50.3446142  28.9731625  90.3143854  49.1888633  29.6046088
  90.3178495  49.6579406  28.9759909  82.4820516  49.8587988  29.9348276
  81.9462706  49.2468346  30.2509043  82.5438281  50.4336124  30.5881943
  82.4116149  49.8534915  30.0783703  94.7114851  42.7912043  22.7152675
  94.8298419  43.2488507  21.9819978  94.5377027  41.9857304  22.4288893
  94.7034022  42.7405815  22.5653609  90.0817133  63.3999863  19.1507421
  90.8467024  63.1309506  18.8290085  89.9795223  62.9149873  19.8677483
  90.1798629  63.2889427  19.2087248  88.1169903  51.6024272  25.6900656
  87.3265978  51.4215732  26.0117992  88.5130526  50.8251225  25.6730951
  88.0586779  51.4611733  25.7353205  92.6035794  60.4312046  11.1307370
  93.3708779  60.4912171  10.7213222  92.1567103  59.8592488  10.6463689
  92.6509221  60.3548622  10.9985080  93.5013589  59.2366702  23.4160102
  92.8258591  59.0051934  23.9173489  93.5105965  58.6287885  22.7902207
  93.4032094  59.1125627  23.3976255  90.6307733  54.0784531  30.1724155
  90.5666874  54.9394488  30.0444292  90.7704921  53.7616524  29.3719707
  90.6423203  54.1584698  30.0352368  95.5030324  62.0931834  15.6470280
  95.5850161  62.8998821  15.3231731  95.9880066  62.1127794  16.3711054
  95.5867482  62.2152497  15.7057179  89.3126827  56.7716670  24.3140358
  88.8889076  56.9721169  23.5779377  89.1371682  55.9245518  24.4264658
  89.2237708  56.6765452  24.2214048  88.8138521  68.2867183  26.7761816
  89.3034451  67.5877973  26.5937480  88.2422753  67.9891053  27.3637873
  88.8023051  68.1393407  26.8362856  84.6009272  57.2668722  19.7468331
  84.7573891  57.2015525  20.6024323  84.9409865  58.0417274  19.5347010
  84.6742507  57.3717920  19.8422925  91.1388417  56.6426605  18.6161694
  91.6803962  56.1396987  19.0800315  91.4534976  56.5891800  17.8051179
  91.2652814  56.5606026  18.5645506  95.0105524  60.8529253  35.7288606
  95.8240389  60.5814402  35.8893739  94.8500490  60.5536793  34.9248802
  95.1075473  60.7684179  35.6334012  89.3074866  62.0343957  15.9001722
  89.3767687  61.1758495  16.0394722  90.0863322  62.2515838  15.5720747
  89.4327716  61.9396821  15.8718879  92.2877686  51.5362910  28.6683994
  92.5019656  50.8973824  28.1147348  91.6711585  51.9808734  28.2391856
  92.2283015  51.5073054  28.5234426  93.6982354  64.4581658  20.1138215
  93.3062146  64.1548373  19.3961081  93.8535426  65.2950748  19.9243169
  93.6635944  64.5365495  19.9794712  81.1743534  54.4503672  20.0629098
  81.5542498  54.8688217  19.3989365  80.5998898  55.0317128  20.3697941
  81.1454858  54.5981531  20.0105839  94.4516774  53.1451975  29.6067302
  93.6393456  52.8377865  29.6880474  94.9106709  52.6650975  30.1710014
  94.3997159  53.0288468  29.7021896  93.8622029  61.0231647  20.0544246
  93.5036683  61.1946290  20.8308278  93.3760740  61.4844853  19.4972244
  93.7380726  61.1170618  20.0869515  91.6792415  44.6462846  23.6571337
  90.8085973  44.6201567  23.6104647  91.9332756  44.4740038  22.8397183
  91.5885975  44.6172989  23.5291474  88.6510394  56.7030812  12.5944480
  88.9402919  57.4795695  12.8688055  88.7382193  56.1919544  13.2958980
  88.7064650  56.7422731  12.7386978  91.5470282  54.5512047  34.3896004
  92.0169913  55.1754163  34.7763878  91.5932162  53.8829022  34.9489219
  91.6238157  54.5446727  34.5296075  88.7041555  46.6569074  25.1144808
  88.1880044  45.9649266  25.2396387  88.1435484  47.3239851  25.0607406
  88.5448068  46.6532332  25.1250874  90.7733789  47.1962034  26.9437660
  90.3865542  47.2211066  27.7251190  90.2866726  46.6303713  26.4912177
  90.6446298  47.1157785  26.9925564  95.0226768  61.9135543  31.0011447
  95.6606489  61.4195739  30.6673903  94.3800860  61.8412944  30.4163674
  95.0220995  61.8294552  30.8653802  96.7483768  53.7624689  25.5677362
  96.3211376  53.6751038  24.8125462  96.1109821  53.8702465  26.1532206
  96.5913375  53.7657349  25.5422804  90.4390930  44.0829020  29.2347920
  91.0684048  44.6189320  28.9568990  90.6076793  43.9906379  30.0861486
  90.5568725  44.1490382  29.3196448  90.2404845  48.8700214  31.5074332
  91.0678275  48.5985363  31.5632946  90.2612691  49.6661056  31.8638150
  90.3657695  48.9479969  31.5689515  95.0781025  62.6055351  27.6416804
  95.8673403  62.2544416  27.7618885  95.2524623  63.4191740  27.3793437
  95.2201306  62.6741208  27.6204671  84.8174335  56.0164077  24.6944592
  83.9762342  55.9167951  24.9023486  85.0264343  56.7859557  25.0458913
  84.7239028  56.1156120  24.7771907  82.2949902  53.6383614  22.5229343
  81.9006600  53.7126626  21.7479453  81.7390019  54.0241560  23.0737705
  82.1552714  53.7065389  22.4897003  93.9314849  46.6164908  22.2033222
  94.1364442  46.5487216  23.0490219  93.6041273  47.4223729  22.1354399
  93.9130097  46.7250848  22.3192877  88.6291000  53.9445476  23.9442190
  88.3254137  53.3901465  24.5452598  87.9270421  54.1237686  23.4570224
  88.4807210  53.8890259  23.9611896  87.6857097  51.2545996  18.5086892
  87.9616831  50.5364909  18.0964459  88.2855766  51.8530916  18.3007998
  87.8150362  51.2366367  18.4167653  86.6909351  61.1595197  28.6514288
  86.5829706  61.1697259  29.5176346  86.9005132  61.9849977  28.4619241
  86.7059462  61.2836272  28.7518379  97.1848537  47.1696672  21.6835987
  96.5722850  47.6567074  22.0689719  97.2812711  46.4940163  22.2273639
  97.1086434  47.1414981  21.8214846  91.1867618  48.9259513  16.7833487
  91.6411364  49.0970074  17.5081331  91.6607663  48.3127624  16.3831262
  91.3235938  48.8610399  16.8307248  84.7083143  58.4107839  26.1136225
  84.1171076  59.0517338  26.0839240  85.4704167  58.8345457  26.0867525
  84.7331404  58.5683678  26.1051372  85.1043766  49.5709837  26.7804243
  85.5645247  49.6448767  27.5179367  85.1499873  50.3691091  26.4304064
  85.1794321  49.7003984  26.8376999  86.7527116  50.2376532  31.3476270
  86.3612681  49.5909879  31.7832048  86.9212978  50.8287967  31.9670525
  86.7198026  50.2290800  31.5038976 100.8273565  58.2413609  27.1113504
 100.8856688  58.6900258  27.8573480 100.1940032  58.6512422  26.6743584
 100.7424860  58.3687344  27.1566052  94.4672659  63.8617151  23.5468250
  94.2692348  64.3507965  22.8524461  93.8460370  64.0658392  24.1252383
  94.3460224  63.9633689  23.5291473  88.5280638  55.6302048  17.8878494
  89.2722683  56.0176324  18.1261444  88.6741334  54.7859473  18.0518982
  88.6591223  55.5632521  17.9472464  90.4460213  47.4252307  22.9210355
  89.5996258  47.5975114  22.7951705  90.4431345  46.6201650  23.2576184
  90.3207363  47.3313336  22.9521482  91.5158513  51.2027521  23.7872413
  91.0418468  50.6769283  24.2977724  91.8876649  50.6556994  23.2187275
  91.5008402  51.0443518  23.7787561  81.8931544  53.1999028  29.1555959
  82.7557157  53.0994737  29.0693289  81.5623327  52.6193737  28.5941531
  81.9716740  53.0990655  29.0601365  97.7795244  56.2629897  25.1979194
  97.5393467  55.4236312  25.2021620  98.2587251  56.3430063  25.9219967
  97.8147428  56.1511296  25.3053996  93.4442013  52.0964076  16.8498167
  92.9165032  52.1792820  16.1603876  93.9037721  52.8381947  16.8462812
  93.4343864  52.2184738  16.7472862  99.7800431  53.0431354  23.1508453
  99.5410201  53.0027188  22.3129238  99.9434332  53.8902506  23.2774174
  99.7690734  53.1623439  23.0461935  96.3846461  57.4281303  29.0813498
  97.1080660  56.9753830  28.9024518  96.1196423  57.7085969  28.2985826
  96.4527734  57.4032272  28.9392213  85.2533330  52.0241477  25.8166377
  84.6286400  52.0359869  25.2092330  84.9178924  52.5001652  26.4657617
  85.1118821  52.0959994  25.8222946  85.4375078  50.3666595  11.8739062
  85.0887883  51.0186321  12.3370612  84.9571524  50.3523708  11.1462933
  85.3145322  50.4609649  11.8350154  81.9659005  60.0841937  27.2570142
  81.4358930  59.3934376  27.3065116  82.2384098  60.0752122  26.4282850
  81.9283727  59.9809069  27.1417558  92.9979096  60.6667639  15.9807824
  93.7213294  61.1325752  15.8372397  92.5579687  60.7341249  15.2305421
  93.0394788  60.7451476  15.8492606  92.1665251  57.5265181  27.2308513
  91.5522244  56.9823232  27.5257148  92.6832536  57.0129418  26.7514329
  92.1520913  57.3701591  27.2032742  91.4061548  58.5969452  24.9652812
  90.9789156  57.9719170  24.5318247  91.3986492  58.3144373  25.7911819
  91.3420689  58.4622232  25.0232639  84.5224075  53.6334625  28.0341246
  84.6817562  52.8777949  28.4392968  84.3416969  54.1825564  28.6881983
  84.5189434  53.6028438  28.1903952  92.4644378  45.7995860  28.5892035
  91.9684939  45.9959534  27.8983602  93.2213440  46.1988528  28.4180837
  92.5031203  45.8873594  28.4612172  89.7347258  49.4738206  25.1795346
  89.7589745  48.9398318  24.4908126  89.9858731  48.9655515  25.8420936
  89.7757176  49.3199110  25.1759990  77.2454847  56.7569701  24.6138490
  77.1398296  56.7116545  23.7490574  76.4955067  57.1023482  24.8952775
  77.1190450  56.8010609  24.5275820  86.0148580  48.2009024  24.5601090
  86.0546951  48.7018231  25.2735797  85.1898244  48.2919418  24.2907013
  85.8988106  48.2890841  24.6251628  88.1978193  57.7669764  32.6621385
  87.3473823  57.9041479  32.7979030  88.3606320  57.0333543  33.1069086
  88.0962056  57.6783866  32.7476984  87.4362943  54.7169534  26.8574989
  86.6054873  54.8843352  26.6510237  87.3814460  54.3405485  27.6423874
  87.3052358  54.6859265  26.9423517  85.2446726  48.2078427  32.4931400
  85.8699430  47.6640560  32.7660832  84.7897206  47.7273345  31.9239190
  85.2694987  48.0567908  32.4492994  85.8098987  52.9925126  17.3865107
  85.9501948  53.4897590  18.0893748  86.3081520  52.2911420  17.5279320
  85.9040068  52.9627104  17.5116686  85.8399209  53.8592237  14.7157684
  86.4744289  54.4552662  14.6507145  85.9224820  53.5595694  15.5303554
  85.9455760  53.9033145  14.8260770  98.8181775  56.3907714  27.5844048
  99.4099615  57.0304965  27.6162246  99.2540770  55.6930751  27.8736115
  98.9700206  56.3826064  27.6324880  87.4178192  49.7906212  14.6903126
  87.7394033  49.3109295  14.0362388  87.6805136  50.6005858  14.4993937
  87.5044218  49.8396110  14.5658618  90.6475165  60.8125086  28.2101942
  90.1400256  61.3660933  28.6542572  90.3501811  60.8733376  27.3920716
  90.5280050  60.9031398  28.1550398  92.8137347  49.1778406  27.0526605
  93.2392419  48.7250933  26.4410131  92.1994340  48.6238477  27.3291392
  92.7865993  49.0292382  27.0031630  82.3452197  56.0560077  17.9847230
  82.8544427  56.6524585  18.3658535  82.8186470  55.7886051  17.3023649
  82.4895573  56.1045893  17.9401752  93.2582945  64.7288344  16.1405885
  92.5412255  64.5549206  15.6753123  93.9089683  64.4940916  15.6081371
  93.2484796  64.6684137  15.9935103  91.2531570  45.6493506  20.4617182
  90.6099888  45.4991152  21.0302320  90.9130977  45.4035851  19.6966286
  91.1076647  45.5905628  20.4320197  95.8430916  53.6052933  19.8847190
  95.1722106  54.1482635  19.7560256  96.5370667  54.0747788  19.6428885
  95.8459784  53.7551204  19.8302718  89.8917650  65.7449645  25.1158949
  89.6683305  64.9868474  25.4842975  89.4027494  65.7747666  24.3939388
  89.7861099  65.6371869  25.0635690  96.0059044  50.0608816  22.7937564
  96.3586654  49.6338539  23.4683362  95.1473845  49.9759660  22.9238640
  95.9308489  49.9853557  22.9132574  84.7042729  52.6916336  20.8520410
  83.9854718  53.1080469  21.1193274  85.0755091  53.2570575  20.3012048
  84.6534661  52.8365617  20.8103217  94.0042310  53.3244185  26.7422406
  93.9840237  53.1427480  27.5957185  94.0521510  54.1956203  26.7181989
  94.0076951  53.4260723  26.8645701  91.9488640  59.9131377  32.6670882
  91.9084494  59.2681054  32.0816038  92.7611958  59.8567994  32.9796294
  92.0631793  59.8090344  32.6267831  88.5396107  65.9650103  22.5696033
  88.1256506  65.3024233  22.1799875  89.2243481  66.1127962  22.0491727
  88.5794479  65.8890761  22.4352530  91.9061401  65.1240188  23.3219650
  91.5077685  65.2342458  22.5540470  91.2912621  65.3322254  23.9046210
  91.7560291  65.1713756  23.2950949  90.4789303  51.7314336  16.1893790
  89.8854143  52.0531332  15.6378357  90.5164581  50.8855431  15.9814896
  90.3963692  51.6538664  16.0776561  97.4383104  45.1827228  23.7221876
  96.9313969  44.4756368  23.6543054  98.2350538  44.8520417  23.8522953
  97.4810343  45.0300380  23.7320871  93.3547120  51.6893840  19.6195540
  93.1260813  51.7126542  18.7773898  93.6145196  50.8651307  19.7390550
  93.3593308  51.5709920  19.5120737  87.6366348  53.5428313  29.2220640
  87.1245251  52.9349496  29.5805671  87.4645844  54.2584906  29.6894616
  87.5355985  53.5591613  29.3436864  82.4832063  51.9865889  31.8723002
  82.3134653  52.6467264  31.3271208  82.0398013  52.1972450  32.5935491
  82.3931397  52.1151871  31.8984631  86.4091882  50.2270387  20.9149735
  86.8849249  50.5887467  20.2799917  85.9080482  50.8826854  21.1949878
  86.4057241  50.3764575  20.8626476  99.6403244  59.6992155  16.7062740
 100.0236850  60.4483511  16.9360837  98.8447357  59.9457974  16.4474730
  99.5797026  59.8461849  16.7020314  91.5135419  51.4652558  31.6622896
  92.0706849  51.2366368  31.0301361  91.1896484  52.2258224  31.3858108
  91.5481829  51.5436395  31.5279393  79.3834128  54.8912754  27.1311492
  78.8360847  54.2213400  27.2492360  80.1726506  54.5242602  27.1954959
  79.4186311  54.7377741  27.1580192  89.2318536  54.5520211  32.6274903
  89.9829863  54.8671888  32.9414457  89.4241112  54.3499382  31.8008824
  89.3709950  54.5687593  32.5518298  88.4518536  52.3711587  14.2823119
  88.8317500  52.3891216  13.4974234  87.7111132  52.8165575  14.1613967
  88.3987373  52.4393361  14.1486688  96.0803826  50.6793778  19.8698698
  96.0798053  50.5242434  20.7282974  95.8760006  51.5256765  19.8140084
  96.0503604  50.7814398  19.9886637  78.1421097  54.1033562  24.2857515
  77.9642858  53.6510171  25.0112430  77.8540119  54.9059724  24.4695992
  78.0734050  54.1556120  24.4201018  93.8044678  55.3591280  23.5234905
  94.2998343  54.6414275  23.4838925  92.9944454  55.0562077  23.4089392
  93.7588571  55.2088926  23.5008631  89.2503290  59.2089093  15.6731909
  88.4414612  58.8855766  15.6265219  89.7578199  58.5022315  15.6060158
  89.2052956  59.0570409  15.6562204  79.8793567  56.6361286  21.3979274
  79.0139086  56.6246976  21.2862045  79.9792383  56.4491509  22.2450413
  79.7667734  56.6067347  21.5068218  95.8696497  58.1094967  26.2112034
  96.2951569  57.5869389  25.6582459  95.5053417  58.7075804  25.6900657
  95.8783100  58.1205194  26.0521043  85.5050577  66.4059185  24.9709379
  85.8197136  67.2195573  24.9787161  85.9143990  66.0209403  25.6391538
  85.6118675  66.4687887  25.0713471  92.4575096  61.8229231  22.5413191
  92.9286275  62.5369494  22.7103176  92.7935275  61.2227981  23.0773061
  92.5770211  61.8400696  22.6445567  94.5452081  63.4330545  34.7205263
  94.6549047  62.6439105  35.0762010  94.8742978  63.3436481  33.9179601
  94.6104487  63.3036398  34.6547654  89.3744591  46.5956702  29.4971286
  89.5072497  45.7987695  29.8252262  89.7589744  47.1223105  30.0769562
  89.4500920  46.5556619  29.6314789  93.0949043  61.6147165  29.3040884
  92.5469989  60.9905049  29.0360949  93.5562071  61.8041437  28.5884963
  93.0816252  61.5506216  29.1591315  92.4476947  43.5187028  26.0952379
  91.6422910  43.4084758  26.4120218  92.3183682  43.6199484  25.2382245
  92.3097079  43.5170698  26.0160420  95.9042907  49.6832520  26.6892076
  95.3205896  50.1841726  26.2769644  96.2247201  49.1762076  26.0556399
  95.8656082  49.6824355  26.5350583  88.4437706  48.5973115  16.9650751
  89.2653401  48.7671428  16.7232446  87.9807357  48.7520376  16.2417049
  88.4968869  48.6454848  16.8222395  87.0333038  46.5915877  27.7449180
  87.5777451  46.2507004  28.3353521  87.0869974  47.4501338  27.8870464
  87.1222158  46.6671136  27.8531053  82.8463597  60.3532293  24.6187988
  83.4508454  60.3128127  23.9901808  82.6390909  61.2003445  24.6492043
  82.9052494  60.4720295  24.5304104  92.6607369  62.6198238  25.8350225
  93.4805743  62.4761204  26.0966520  92.3801447  63.2444437  26.3766663
  92.7404112  62.6908590  25.9538164  78.0814879  59.3366911  24.4886911
  77.9839157  58.5263182  24.7976967  78.8643749  59.3158704  24.1033179
  78.1831016  59.2134001  24.4773774 109.1321019  70.2763090  18.7993101
 109.1015024  71.1307727  18.9711371 109.7302368  69.9758382  19.3579245
 109.2158177  70.3579586  18.9067904 102.3320704  69.3638741  23.5546032
 101.4758600  69.5247239  23.6055149 102.3788358  68.4930805  23.5751093
 102.2119816  69.2589543  23.5652098  96.7161844  78.9001459  19.3183263
  95.9644744  78.5216997  19.0899308  97.1647856  78.9319892  18.5702074
  96.6711511  78.8487066  19.1740766 105.6414421  75.6325266  33.1606488
 106.3481188  75.1377297  33.2893422 105.8302356  76.0734348  32.4309146
 105.7742326  75.6243617  33.0715533 102.1686804  79.3226828  14.7468810
 101.8338172  80.0003750  14.3113033 102.6813674  78.9332139  14.1585682
 102.1952385  79.3651406  14.5955602 101.7091095  81.2741097  20.6879922
 102.0930475  81.8427996  20.1484697 101.6450236  80.5490607  20.2085738
 101.7564522  81.2516560  20.5373785 105.1772525  71.4230785  26.1977683
 105.7228485  72.1015871  26.2571653 105.1189402  71.2818246  25.3379265
 105.2488440  71.5022786  26.0789744  98.2946600  78.9119851  21.5846036
  98.3956963  78.1020205  21.8943164  97.6988345  78.8176797  20.9545714
  98.2219139  78.7784879  21.5372274 106.9537594  72.8515392  17.0711411
 106.8377120  73.6023078  17.5003549 107.7493481  72.5939345  17.3207498
 107.0542183  72.9250239  17.1715503  98.1347340  83.8297440  22.9860892
  98.7784795  84.2710604  23.3757050  98.4603595  83.0250866  22.8991151
  98.2779168  83.7762635  23.0306369  91.4911644  74.9340137  21.2098370
  91.2561829  74.1007790  21.1030638  91.6297285  75.2144803  20.3959570
  91.4767307  74.8523641  21.0740725  93.7901732  67.1025868  24.1082677
  93.1706764  66.5118515  23.9392692  93.6885596  67.6937303  23.4747000
  93.6839407  67.1029951  23.9887667  98.8367920  76.8409415  18.3580754
  99.1583761  77.3814622  17.7542062  99.4840016  76.2706186  18.4903043
  98.9793975  76.8368590  18.2887789 100.8869628  68.8425410  18.4415140
 101.5849792  69.0213537  18.9336604 101.2021960  68.3195749  17.8185530
 101.0364965  68.7919182  18.4217150  93.5170865  70.6478150  26.3526246
  93.3929562  71.2340595  26.9876065  94.1689149  70.1538345  26.6538521
  93.5944514  70.6616954  26.4912176 101.0757563  75.2295855  18.4294932
 101.5151198  74.6212955  18.8749705 100.9262226  74.8503228  17.6580397
 101.1179029  75.0834326  18.3814099  98.5429206  73.8239867  25.6313757
  99.1878208  73.3312310  25.3124706  98.7830983  73.9664653  26.4579836
  98.6739791  73.7717309  25.7063291 101.0815297  76.6694773  25.2820650
 101.3638540  75.8746178  25.0607406 101.8101458  77.1475360  25.3025711
 101.2304861  76.6229369  25.2523665  99.0596491  64.2117806  22.5236415
  98.7299821  64.6628950  21.8540114  98.3841493  64.1333970  23.0709421
  98.9106927  64.2668942  22.5059638 104.6766900  73.5823036  15.3825701
 104.5918195  74.4384003  15.5275270 105.1651283  73.3067360  16.0507860
 104.7355797  73.6680358  15.5027783 106.2672899  60.2003329  20.7686026
 105.9526340  60.8906808  21.2006448 105.7499841  60.1448112  20.0671526
 106.1437369  60.2938218  20.7282975 105.6085333  70.2007830  16.8823436
 105.0796804  70.4167464  17.5420742 106.1310353  70.8943969  16.8024406
 105.6073786  70.3350967  16.9679035 111.0633386  75.7754135  22.2556481
 110.2331089  75.9864778  22.4189897 111.0142638  74.9491189  21.9798764
 110.9340121  75.6843741  22.2393846  97.4984941  74.0971047  15.6830904
  96.9142156  74.6021078  16.0896768  97.0955036  73.8713434  14.9427496
  97.3524244  74.1379295  15.6335929  93.0528969  79.8125808  22.4854576
  92.5696547  80.5376298  22.4614159  93.8652287  80.1101938  22.5964733
  93.1019717  79.9628162  22.4981855  99.1243123  78.6057989  25.0904390
  98.6070065  78.2465404  24.4865698  99.8217514  78.0820163  25.1010456
  99.1508704  78.4755677  25.0034649 102.7806715  79.0552803  31.0520563
 102.8690061  78.8678943  31.8998774 103.2096428  78.4090233  30.6525410
 102.8568818  78.9315811  31.1192315 100.3477175  78.3383963  30.0338225
  99.7848010  77.9256573  30.5577887 101.1098198  78.2636869  30.4531369
 100.3771624  78.2661363  30.1731226 101.9562155  70.3436699  14.1599825
 102.1958159  70.5514683  13.3475168 102.2777996  69.5394208  14.2688769
 102.0399313  70.2550800  14.0560378  97.2652445  62.2730095  18.0059363
  98.0198413  62.6408412  17.7676413  97.0879980  62.6469649  18.7738542
  97.3506924  62.3828283  18.0844251  95.9073166  80.3281984  22.6374856
  96.6093746  79.8133973  22.6947612  95.8270649  80.6556135  23.4421731
  95.9996927  80.2996210  22.7647648 110.5587344  68.4224535  26.0506902
 109.7215765  68.4926722  26.2854496 110.5275575  68.4249030  25.1781204
 110.4305626  68.4334762  25.9566450  96.9552073  70.5657571  31.7655271
  97.1272577  70.4563466  32.6140552  97.4921430  71.2111977  31.5286463
  97.0597077  70.6449573  31.8560367  95.6209510  64.6800414  14.7037476
  95.4385083  64.8972295  13.8778468  96.4835123  64.7939427  14.7596090
  95.7214099  64.7290312  14.5891963  95.2323942  76.5188336  22.1460464
  96.0712841  76.7511269  22.1934225  95.2635711  75.6492648  22.0767499
  95.3605659  76.4245283  22.1425108  95.8576645  76.9389211  26.4473769
  96.3974870  76.7960342  27.1177141  95.1746591  77.3385962  26.8157795
  95.8368799  76.9768882  26.6008191 101.3009229  61.6826825  17.7386499
 102.0295389  61.5042780  17.2924656 101.3904122  62.5244904  17.9493678
 101.4215891  61.7810703  17.7040017 105.2817530  72.6180212  21.6418793
 106.0375045  73.0511726  21.6807702 105.3879854  71.9684982  22.2153429
 105.4087700  72.5857696  21.7316819 108.3197701  76.4453489  22.3921196
 107.8832933  76.4490232  23.1480168 107.9860616  77.1258988  21.9600774
 108.2060321  76.5465945  22.4402029 102.8926774  78.4861822  33.7164347
 103.6767191  78.5992670  34.0820089 102.6923369  77.6602959  33.9123033
 102.9792800  78.3808541  33.7998733  91.2613790  73.1589502  26.6008191
  90.9952205  72.3428619  26.7599181  91.2752354  73.2042658  25.7303706
  91.2238512  73.0446407  26.4961673 108.2395184  63.4867317  24.6350624
 108.8821092  63.5565422  25.2212540 108.4918204  62.8196540  24.1330166
 108.3717316  63.3993666  24.6477904  95.1671537  67.9574587  13.2159949
  94.4529714  67.6712766  13.6282381  95.6515506  68.2971212  13.8566336
  95.1330900  67.9656236  13.3715584  96.0112396  66.6967880  29.2475198
  95.3184193  66.2264860  29.4935930  96.6272724  66.4706185  29.8216905
  95.9996926  66.5935012  29.3684351 103.0497168  80.3971924  27.3630802
 102.2512414  80.1571424  27.6204671 103.4983179  80.4486317  28.1097850
 102.9971779  80.3694315  27.5115727 111.4542047  73.1634409  21.2840834
 112.1158481  72.6025078  21.1836742 110.8133459  72.6686440  21.6093525
 111.4570915  73.0070818  21.3173174 102.3418855  76.4604540  13.5921757
 102.7570003  76.1289564  12.9006253 101.5110784  76.2273443  13.4641894
 102.2806864  76.3775796  13.4712604  91.6707204  73.9448282  23.8819935
  91.4882777  73.9195168  23.0292227  92.4056872  74.4147219  23.9208844
  91.7521267  74.0109644  23.7617853 107.7406878  74.1799791  21.0252822
 107.9762467  74.3244990  20.1979673 107.8896441  74.9442200  21.4184336
 107.7972681  74.3138846  20.9616426  94.7352955  70.6633284  30.3902044
  95.4592928  70.6486315  30.8766938  94.8369092  71.3728640  29.8924012
  94.8571164  70.7657988  30.3880830 109.5697334  73.0201457  18.8622426
 109.9005552  73.5529098  18.2562521 110.1430423  73.0740345  19.5184377
 109.7031014  73.1071026  18.8700208 102.1097905  74.1432369  35.2550991
 101.3170885  74.4575881  35.4403610 102.2246832  74.3583837  34.4171775
 102.0093315  74.2216206  35.1589325 104.7829224  70.8666360  19.5446006
 104.8776078  71.6055654  19.9985632 104.1588067  70.4383836  19.9780571
 104.7038254  70.9127681  19.6754154 103.0381697  74.0452573  30.1936287
 103.6120559  73.4079817  30.3484851 102.9596501  74.0456655  29.3245945
 103.1114932  73.9517684  30.0882698  91.6378114  70.8241782  24.0319001
  92.2151617  70.6878233  24.6711247  90.9392176  70.3677566  24.2864586
  91.6199135  70.7364048  24.1641291 105.0352245  72.7115100  12.7782958
 104.9532407  72.7817287  13.6437945 105.6731965  73.2744844  12.5866699
 105.1172082  72.8054071  12.8772908  98.3945416  72.4775838  22.2457485
  98.1364660  71.6447573  22.2188784  98.4493899  72.7033451  21.4049985
  98.3645194  72.3873609  22.1177621 103.4746466  64.5804289  22.3461577
 102.7702793  64.0913474  22.5045496 103.5231441  64.5926763  21.4750022
 103.3776518  64.5093937  22.2400917  97.3680128  70.0313600  22.7322379
  96.7929719  70.1905769  23.3686340  96.9915805  69.3949009  22.2690830
  97.2282941  69.9611413  22.7576938 101.0353417  68.5036950  27.5914758
 100.6467850  68.0791167  26.9366949 100.3708115  68.7519099  28.0991784
 100.8800345  68.4775671  27.5702626 110.6776686  68.2611954  20.3662588
 110.4213251  67.4491896  20.1760471 111.5206000  68.2689521  20.1392775
 110.7642711  68.1423952  20.3047405  87.1136947  69.6753675  20.7466820
  87.1997199  69.2985543  21.5280350  87.7412745  69.3014121  20.2686778
  87.2193498  69.5639157  20.7912297 104.8579778  62.2011578  25.1038742
 105.2390290  61.5189749  25.4906616 104.0543063  61.9121180  24.9214407
 104.7956240  62.0578627  25.1342798 102.1392355  72.7335554  15.7891565
 102.9532994  73.0250447  15.6774336 102.0751496  72.0795417  15.2149858
 102.2495094  72.6800749  15.6880402 108.3601845  75.4161550  30.2021140
 108.1240483  74.5849615  30.0833201 109.0045074  75.3647158  30.7875985
 108.4196516  75.2859238  30.2707034  98.0100263  76.2057072  20.9163877
  98.6474210  75.9668819  21.4615670  98.4355335  76.4094231  20.1817038
  98.1676430  76.2008082  20.8881034  92.7012906  78.4445408  24.7998181
  92.7417051  78.7160259  23.9717960  93.2607430  78.9687316  25.2155969
  92.7896252  78.5621163  24.7390069  98.6503078  71.4259361  15.2538766
  99.0348231  71.2067068  16.0055311  98.4014699  72.2522307  15.3839843
  98.6705151  71.5157508  15.3839843  98.8171619  64.7065777  34.9701351
  98.5025060  65.4765339  34.7070913  98.4961551  64.1436033  34.3853577
  98.7230538  64.7376045  34.8442700 109.3838266  75.2005999  26.2649435
 109.0784083  75.9334056  26.6262751 108.6644482  74.7943929  25.9842221
 109.2325608  75.2487732  26.2762572 100.3921735  76.6829494  22.5957663
 100.4660744  76.5204666  23.4499513 101.2091242  76.8719684  22.3518145
 100.5238094  76.6866237  22.6855689 115.0840058  71.8399000  25.5917779
 115.0164558  71.8594959  24.7220366 115.0695720  72.6829327  25.8173450
 115.0718815  71.9672734  25.4970256  94.1527492  77.0287357  19.6252107
  93.3265610  77.2749094  19.4986385  94.2139483  76.9499438  20.4914165
  94.0401659  77.0532306  19.7341051  96.3703516  63.0956298  20.5847547
  95.5025941  63.1678898  20.6505156  96.6578720  63.8978377  20.7735522
  96.2843264  63.2250445  20.6222313 105.4936405  63.2434157  28.9158869
 106.2389997  63.0543968  28.5022294 105.0773709  63.7692395  28.3572725
 105.5421379  63.2936303  28.7723442  98.9326321  79.6464237  17.3271137
  99.2224619  79.2553219  16.6030363  99.6629802  79.8280942  17.7676412
  99.0833205  79.6158051  17.2853944 112.8698675  70.6143386  23.8664374
 113.4206597  69.9811455  24.1061466 112.8542791  71.1458779  24.5579878
 112.9483872  70.5992334  24.0043232  99.5221066  74.4481983  28.4124267
  99.0232760  75.1597751  28.4909155 100.3321291  74.7682650  28.3742429
  99.5677173  74.6008832  28.4180836  96.8732237  81.6231620  20.3931286
  96.6532532  81.3328974  21.1857953  96.6526759  80.9646575  19.8649199
  96.8079831  81.4831328  20.4320195  95.7849184  73.7104936  22.6586988
  95.4962432  73.0842408  23.1932715  96.6532532  73.6525224  22.7251668
  95.8709436  73.6092480  22.7477943 106.5727082  68.8539720  22.9768970
 106.2291847  68.1330055  23.3276219 106.6720124  68.6453571  22.1347328
 106.5369124  68.7163923  22.9040650  99.0400192  82.9961010  19.1761979
  99.6924250  82.4637452  19.4053005  98.3425801  82.6429662  19.5629853
  99.0330910  82.8650533  19.2674146  95.9881457  75.3500187  18.5829353
  96.7427425  75.7313226  18.7964816  95.3952070  75.8011331  19.0376050
  96.0118171  75.4729015  18.6812231 107.0340111  75.3165424  18.5192958
 107.5998143  75.9758634  18.4351501 106.3868014  75.6615122  18.9909360
 107.0218867  75.4647365  18.5765714  98.4488124  67.3063028  33.7086565
  97.6387900  67.6120807  33.5976408  98.9262811  68.0268610  33.8239149
  98.3991603  67.4577629  33.7093636  97.3079684  76.5208749  23.9569468
  96.7860437  76.6609040  24.6421333  97.6953704  75.7619413  24.1471586
  97.2883385  76.4294272  24.0870545  94.2970868  66.5714557  18.0264423
  94.0095664  66.2015828  17.2896370  94.9841336  67.0409413  17.7648128
  94.3559765  66.5861527  17.8779499 103.5046689  78.2604208  17.9430037
 103.2633365  77.5272069  17.5357102 103.6848022  78.8091065  17.2896370
 103.4954313  78.2326599  17.7860260  98.7346009  73.5512768  19.3550959
  98.5388792  74.1587502  18.7611262  98.9580355  72.8580712  18.8742633
  98.7380650  73.5390293  19.1967040  97.1324539  70.4367506  19.4731828
  97.8547191  70.6008664  19.0135634  96.6532532  71.1577170  19.3671168
  97.1688270  70.5665735  19.3897442 105.0918047  66.7731304  24.8528513
 104.2529148  66.7992583  24.6166776 105.1622414  67.4202040  25.4333859
 104.9786441  66.8727430  24.9037630  94.7832156  72.8425578  28.5785968
  95.2953253  73.1209831  27.9294727  94.4968499  73.5814872  28.9448781
  94.8167019  72.9927932  28.5375846 103.5387325  63.6716681  19.5856129
 104.2413678  63.4724430  19.1076087 103.2731514  62.8992624  19.8924972
 103.6033958  63.5279647  19.5601570 108.9675571  71.9799291  22.1389754
 108.8809545  72.1354717  22.9924533 108.5126051  72.6237367  21.7649160
 108.8878828  72.0975046  22.2096861  91.8699062  67.3495770  18.8749704
  91.9715199  68.1521931  19.2030680  92.6654949  67.1483106  18.5772785
  92.0026968  67.4381669  18.8785060  98.3015882  64.9351967  28.6387009
  98.1099079  64.9507101  29.4886433  99.1514477  65.1315641  28.6153664
  98.3991603  64.9666318  28.7610304  92.6862795  67.4642948  26.6170826
  92.5448286  66.6126889  26.7415334  92.9703358  67.5071609  25.7933032
  92.7070641  67.3442698  26.5138450 102.8401387  69.3010038  20.7615314
 102.5936101  69.2205789  21.5952103 103.1686510  68.5163506  20.5677842
 102.8522630  69.1736304  20.8562837 106.7349436  76.0093398  24.5502095
 106.5963795  76.7074443  25.0550838 105.9549434  75.8542054  24.1938277
 106.5992663  76.0893564  24.5728369 105.0727521  72.3089773  30.8024477
 105.0675559  71.4369590  30.8066903 105.7788515  72.5077942  30.3293933
 105.1772525  72.2093647  30.7331512  98.7998414  72.0366757  30.1738297
  98.9441790  72.6167965  29.5381407  99.1474063  72.4143054  30.8788152
  98.8725876  72.1787461  30.1837292 100.9718332  71.2356925  27.9563429
 100.2241646  71.4287940  27.5511707 101.1259857  70.4102145  27.7187550
 100.8840759  71.1422037  27.8608835  97.8726169  80.2269529  27.0399324
  98.0215733  79.6672445  26.3872728  98.6526171  80.3061530  27.4231843
  98.0100263  80.1555094  26.9996273 108.2302809  75.3671651  15.3118594
 107.8509617  74.5808789  15.3047884 107.5669054  75.9158508  15.1690239
 108.0761283  75.3316475  15.2899391 100.3979470  80.3984172  28.3183815
 100.3223141  79.7292982  28.8734603 100.3269329  81.1001960  28.8324481
 100.3760077  80.4029079  28.4760663 101.2120109  65.1307476  28.8458832
 101.6692723  65.8631450  28.9731625 101.2876437  64.7073941  29.6046088
 101.2911078  65.1764714  28.9759909  93.4553100  65.3773296  29.9348276
  92.9195289  64.7653654  30.2509043  93.5170865  65.9521432  30.5881943
  93.3848732  65.3720223  30.0783703 105.6847435  58.3097351  22.7152675
 105.8031003  58.7673814  21.9819978 105.5109610  57.5042612  22.4288893
 105.6766605  58.2591123  22.5653609 101.0549717  78.9185170  19.1507421
 101.8199608  78.6494814  18.8290085 100.9527807  78.4335181  19.8677483
 101.1531212  78.8074735  19.2087248  99.0902486  67.1209580  25.6900656
  98.2998561  66.9401040  26.0117992  99.4863109  66.3436532  25.6730951
  99.0319363  66.9797041  25.7353205 103.5768377  75.9497354  11.1307370
 104.3441362  76.0097479  10.7213222 103.1299686  75.3777796  10.6463689
 103.6241805  75.8733930  10.9985080 104.4746173  74.7552010  23.4160102
 103.7991175  74.5237242  23.9173489 104.4838549  74.1473193  22.7902207
 104.3764677  74.6310935  23.3976255 101.6040317  69.5969839  30.1724155
 101.5399458  70.4579795  30.0444292 101.7437505  69.2801832  29.3719707
 101.6155787  69.6770006  30.0352368 106.4762907  77.6117142  15.6470280
 106.5582745  78.4184129  15.3231731 106.9612650  77.6313102  16.3711054
 106.5600065  77.7337805  15.7057179 100.2859411  72.2901978  24.3140358
  99.8621660  72.4906477  23.5779377 100.1104266  71.4430826  24.4264658
 100.1970291  72.1950760  24.2214048  99.7871104  83.8052491  26.7761816
 100.2767034  83.1063281  26.5937480  99.2155336  83.5076361  27.3637873
  99.7755634  83.6578715  26.8362856  95.5741856  72.7854030  19.7468331
  95.7306475  72.7200833  20.6024323  95.9142449  73.5602582  19.5347010
  95.6475090  72.8903228  19.8422925 102.1121000  72.1611913  18.6161694
 102.6536546  71.6582294  19.0800315 102.4267559  72.1077108  17.8051179
 102.2385397  72.0791334  18.5645506 105.9838108  76.3714561  35.7288606
 106.7972973  76.0999710  35.8893739 105.8233074  76.0722101  34.9248802
 106.0808056  76.2869487  35.6334012 100.2807450  77.5529265  15.9001722
 100.3500270  76.6943803  16.0394722 101.0595905  77.7701146  15.5720747
 100.4060300  77.4582129  15.8718879 103.2610270  67.0548218  28.6683994
 103.4752239  66.4159132  28.1147348 102.6444169  67.4994042  28.2391856
 103.2015599  67.0258362  28.5234426 104.6714938  79.9766966  20.1138215
 104.2794729  79.6733681  19.3961081 104.8268010  80.8136056  19.9243169
 104.6368527  80.0550803  19.9794712  92.1476117  69.9688980  20.0629098
  92.5275082  70.3873525  19.3989365  91.5731482  70.5502436  20.3697941
  92.1187442  70.1166839  20.0105839 105.4249358  68.6637283  29.6067302
 104.6126039  68.3563173  29.6880474 105.8839292  68.1836283  30.1710014
 105.3729742  68.5473775  29.7021896 104.8354612  76.5416955  20.0544246
 104.4769267  76.7131598  20.8308278 104.3493323  77.0030161  19.4972244
 104.7113309  76.6355926  20.0869515 102.6524998  60.1648154  23.6571337
 101.7818556  60.1386875  23.6104647 102.9065340  59.9925346  22.8397183
 102.5618558  60.1358297  23.5291474  99.6242978  72.2216120  12.5944480
  99.9135503  72.9981003  12.8688055  99.7114777  71.7104852  13.2958980
  99.6797234  72.2608039  12.7386978 102.5202865  70.0697354  34.3896004
 102.9902496  70.6939471  34.7763878 102.5664745  69.4014330  34.9489219
 102.5970741  70.0632035  34.5296075  99.6774139  62.1754382  25.1144808
  99.1612627  61.4834573  25.2396387  99.1168068  62.8425159  25.0607406
  99.5180652  62.1717640  25.1250874 101.7466372  62.7147342  26.9437660
 101.3598125  62.7396373  27.7251190 101.2599310  62.1489021  26.4912177
 101.6178881  62.6343093  26.9925564 105.9959352  77.4320851  31.0011447
 106.6339072  76.9381047  30.6673903 105.3533443  77.3598251  30.4163674
 105.9953578  77.3479859  30.8653802 107.7216352  69.2809997  25.5677362
 107.2943960  69.1936346  24.8125462 107.0842405  69.3887772  26.1532206
 107.5645959  69.2842657  25.5422804 101.4123514  59.6014328  29.2347920
 102.0416632  60.1374628  28.9568990 101.5809377  59.5091686  30.0861486
 101.5301309  59.6675690  29.3196448 101.2137429  64.3885522  31.5074332
 102.0410858  64.1170671  31.5632946 101.2345275  65.1846364  31.8638150
 101.3390279  64.4665276  31.5689515 106.0513608  78.1240659  27.6416804
 106.8405986  77.7729724  27.7618885 106.2257206  78.9377048  27.3793437
 106.1933890  78.1926516  27.6204671  95.7906919  71.5349385  24.6944592
  94.9494925  71.4353259  24.9023486  95.9996927  72.3044865  25.0458913
  95.6971611  71.6341428  24.7771907  93.2682486  69.1568922  22.5229343
  92.8739183  69.2311934  21.7479453  92.7122603  69.5426868  23.0737705
  93.1285298  69.2250697  22.4897003 104.9047432  62.1350216  22.2033222
 105.1097026  62.0672524  23.0490219 104.5773856  62.9409037  22.1354399
 104.8862680  62.2436156  22.3192877  99.6023584  69.4630784  23.9442190
  99.2986721  68.9086772  24.5452598  98.9003004  69.6422994  23.4570224
  99.4539793  69.4075567  23.9611896  98.6589681  66.7731304  18.5086892
  98.9349415  66.0550217  18.0964459  99.2588350  67.3716224  18.3007998
  98.7882945  66.7551675  18.4167653  97.6641935  76.6780505  28.6514288
  97.5562289  76.6882567  29.5176346  97.8737716  77.5035285  28.4619241
  97.6792046  76.8021580  28.7518379 108.1581120  62.6881980  21.6835987
 107.5455434  63.1752382  22.0689719 108.2545295  62.0125471  22.2273639
 108.0819018  62.6600289  21.8214846 102.1600201  64.4444821  16.7833487
 102.6143948  64.6155382  17.5081331 102.6340247  63.8312932  16.3831262
 102.2968521  64.3795707  16.8307248  95.6815727  73.9293147  26.1136225
  95.0903660  74.5702645  26.0839240  96.4436750  74.3530765  26.0867525
  95.7063987  74.0868986  26.1051372  96.0776349  65.0895145  26.7804243
  96.5377831  65.1634074  27.5179367  96.1232456  65.8876399  26.4304064
  96.1526905  65.2189292  26.8376999  97.7259699  65.7561840  31.3476270
  97.3345264  65.1095187  31.7832048  97.8945562  66.3473275  31.9670525
  97.6930609  65.7476108  31.5038976 111.8006148  73.7598917  27.1113504
 111.8589272  74.2085566  27.8573480 111.1672616  74.1697730  26.6743584
 111.7157443  73.8872652  27.1566052 105.4405243  79.3802459  23.5468250
 105.2424931  79.8693273  22.8524461 104.8192954  79.5843700  24.1252383
 105.3192807  79.4818997  23.5291473  99.5013221  71.1487356  17.8878494
 100.2455266  71.5361632  18.1261444  99.6473917  70.3044781  18.0518982
  99.6323806  71.0817829  17.9472464 101.4192797  62.9437615  22.9210355
 100.5728842  63.1160422  22.7951705 101.4163929  62.1386958  23.2576184
 101.2939947  62.8498644  22.9521482 102.4891097  66.7212829  23.7872413
 102.0151051  66.1954591  24.2977724 102.8609233  66.1742302  23.2187275
 102.4740986  66.5628826  23.7787561  92.8664127  68.7184336  29.1555959
  93.7289740  68.6180045  29.0693289  92.5355910  68.1379045  28.5941531
  92.9449324  68.6175962  29.0601365 108.7527828  71.7815205  25.1979194
 108.5126050  70.9421620  25.2021620 109.2319835  71.8615371  25.9219967
 108.7880011  71.6696604  25.3053996 104.4174597  67.6149384  16.8498167
 103.8897615  67.6978128  16.1603876 104.8770305  68.3567255  16.8462812
 104.4076447  67.7370046  16.7472862 110.7533015  68.5616662  23.1508453
 110.5142785  68.5212496  22.3129238 110.9166916  69.4087814  23.2774174
 110.7423318  68.6808747  23.0461935 107.3579045  72.9466611  29.0813498
 108.0813244  72.4939138  28.9024518 107.0929007  73.2271277  28.2985826
 107.4260318  72.9217580  28.9392213  96.2265913  67.5426785  25.8166377
  95.6018983  67.5545177  25.2092330  95.8911508  68.0186960  26.4657617
  96.0851405  67.6145302  25.8222946  96.4107662  65.8851903  11.8739062
  96.0620466  66.5371628  12.3370612  95.9304108  65.8709016  11.1462933
  96.2877906  65.9794957  11.8350154  92.9391589  75.6027245  27.2570142
  92.4091513  74.9119684  27.3065116  93.2116682  75.5937430  26.4282850
  92.9016311  75.4994377  27.1417558 103.9711679  76.1852947  15.9807824
 104.6945878  76.6511060  15.8372397 103.5312270  76.2526557  15.2305421
 104.0127371  76.2636784  15.8492606 103.1397834  73.0450489  27.2308513
 102.5254827  72.5008540  27.5257148 103.6565119  72.5314726  26.7514329
 103.1253497  72.8886898  27.2032742 102.3794131  74.1154759  24.9652812
 101.9521739  73.4904478  24.5318247 102.3719076  73.8329681  25.7911819
 102.3153273  73.9807540  25.0232639  95.4956659  69.1519932  28.0341246
  95.6550145  68.3963257  28.4392968  95.3149552  69.7010872  28.6881983
  95.4922017  69.1213746  28.1903952 103.4376961  61.3181168  28.5892035
 102.9417523  61.5144842  27.8983602 104.1946024  61.7173836  28.4180837
 103.4763786  61.4058902  28.4612172 100.7079841  64.9923514  25.1795346
 100.7322328  64.4583626  24.4908126 100.9591315  64.4840823  25.8420936
 100.7489760  64.8384418  25.1759990  88.2187431  72.2755009  24.6138490
  88.1130880  72.2301853  23.7490574  87.4687651  72.6208790  24.8952775
  88.0923034  72.3195917  24.5275820  96.9881163  63.7194332  24.5601090
  97.0279535  64.2203539  25.2735797  96.1630828  63.8104726  24.2907013
  96.8720689  63.8076149  24.6251628  99.1710776  73.2855072  32.6621385
  98.3206407  73.4226786  32.7979030  99.3338904  72.5518850  33.1069086
  99.0694640  73.1969173  32.7476984  98.4095527  70.2354842  26.8574989
  97.5787456  70.4028660  26.6510237  98.3547044  69.8590793  27.6423874
  98.2784942  70.2044573  26.9423517  96.2179310  63.7263735  32.4931400
  96.8432013  63.1825868  32.7660832  95.7629790  63.2458653  31.9239190
  96.2427571  63.5753216  32.4492994  96.7831571  68.5110434  17.3865107
  96.9234532  69.0082898  18.0893748  97.2814103  67.8096728  17.5279320
  96.8772651  68.4812412  17.5116686  96.8131793  69.3777545  14.7157684
  97.4476872  69.9737970  14.6507145  96.8957404  69.0781002  15.5303554
  96.9188344  69.4218453  14.8260770 109.7914359  71.9093022  27.5844048
 110.3832199  72.5490273  27.6162246 110.2273353  71.2116059  27.8736115
 109.9432790  71.9011372  27.6324880  98.3910776  65.3091520  14.6903126
  98.7126617  64.8294603  14.0362388  98.6537720  66.1191166  14.4993937
  98.4776801  65.3581418  14.5658618 101.6207749  76.3310394  28.2101942
 101.1132840  76.8846241  28.6542572 101.3234395  76.3918684  27.3920716
 101.5012633  76.4216706  28.1550398 103.7869931  64.6963714  27.0526605
 104.2125002  64.2436240  26.4410131 103.1726924  64.1423785  27.3291392
 103.7598576  64.5477690  27.0031630  93.3184781  71.5745385  17.9847230
  93.8277010  72.1709893  18.3658535  93.7919053  71.3071359  17.3023649
  93.4628156  71.6231201  17.9401752 104.2315529  80.2473652  16.1405885
 103.5144839  80.0734514  15.6753123 104.8822266  80.0126224  15.6081371
 104.2217379  80.1869445  15.9935103 102.2264154  61.1678814  20.4617182
 101.5832472  61.0176460  21.0302320 101.8863561  60.9221159  19.6966286
 102.0809231  61.1090936  20.4320197 106.8163500  69.1238241  19.8847190
 106.1454690  69.6667943  19.7560256 107.5103250  69.5933096  19.6428885
 106.8192368  69.2736512  19.8302718 100.8650234  81.2634953  25.1158949
 100.6415888  80.5053782  25.4842975 100.3760077  81.2932974  24.3939388
 100.7593683  81.1557177  25.0635690 106.9791628  65.5794124  22.7937564
 107.3319238  65.1523847  23.4683362 106.1206429  65.4944968  22.9238640
 106.9041072  65.5038865  22.9132574  95.6775313  68.2101644  20.8520410
  94.9587302  68.6265777  21.1193274  96.0487675  68.7755883  20.3012048
  95.6267244  68.3550925  20.8103217 104.9774893  68.8429493  26.7422406
 104.9572821  68.6612788  27.5957185 105.0254094  69.7141511  26.7181989
 104.9809534  68.9446031  26.8645701 102.9221223  75.4316685  32.6670882
 102.8817078  74.7866362  32.0816038 103.7344541  75.3753302  32.9796294
 103.0364377  75.3275652  32.6267831  99.5128691  81.4835411  22.5696033
  99.0989089  80.8209541  22.1799875 100.1976065  81.6313270  22.0491727
  99.5527062  81.4076069  22.4352530 102.8793985  80.6425496  23.3219650
 102.4810268  80.7527766  22.5540470 102.2645204  80.8507562  23.9046210
 102.7292874  80.6899064  23.2950949 101.4521887  67.2499644  16.1893790
 100.8586726  67.5716640  15.6378357 101.4897165  66.4040739  15.9814896
 101.3696276  67.1723972  16.0776561 108.4115688  60.7012536  23.7221876
 107.9046552  59.9941676  23.6543054 109.2083121  60.3705725  23.8522953
 108.4542927  60.5485687  23.7320871 104.3279703  67.2079148  19.6195540
 104.0993396  67.2311850  18.7773898 104.5877780  66.3836615  19.7390550
 104.3325892  67.0895228  19.5120737  98.6098932  69.0613621  29.2220640
  98.0977835  68.4534804  29.5805671  98.4378428  69.7770214  29.6894616
  98.5088569  69.0776921  29.3436864  93.4564647  67.5051197  31.8723002
  93.2867237  68.1652572  31.3271208  93.0130597  67.7157758  32.5935491
  93.3663980  67.6337179  31.8984631  97.3824466  65.7455695  20.9149735
  97.8581832  66.1072774  20.2799917  96.8813066  66.4012162  21.1949878
  97.3789825  65.8949883  20.8626476 110.6135828  75.2177463  16.7062740
 110.9969433  75.9668819  16.9360837 109.8179941  75.4643282  16.4474730
 110.5529610  75.3647157  16.7020314 102.4868002  66.9837866  31.6622896
 103.0439432  66.7551676  31.0301361 102.1629067  67.7443532  31.3858108
 102.5214412  67.0621703  31.5279393  90.3566711  70.4098062  27.1311492
  89.8093431  69.7398708  27.2492360  91.1459089  70.0427910  27.1954959
  90.3918895  70.2563049  27.1580192 100.2051120  70.0705519  32.6274903
 100.9562447  70.3857196  32.9414457 100.3973696  69.8684690  31.8008824
 100.3442534  70.0872901  32.5518298  99.4251119  67.8896894  14.2823119
  99.8050084  67.9076524  13.4974234  98.6843715  68.3350883  14.1613967
  99.3719957  67.9578669  14.1486688 107.0536410  66.1979086  19.8698698
 107.0530636  66.0427742  20.7282974 106.8492590  67.0442073  19.8140084
 107.0236188  66.2999706  19.9886637  89.1153681  69.6218870  24.2857515
  88.9375442  69.1695479  25.0112430  88.8272703  70.4245031  24.4695992
  89.0466634  69.6741428  24.4201018 104.7777262  70.8776587  23.5234905
 105.2730927  70.1599582  23.4838925 103.9677037  70.5747385  23.4089392
 104.7321155  70.7274234  23.5008631 100.2235873  74.7274401  15.6731909
  99.4147196  74.4041074  15.6265219 100.7310782  74.0207623  15.6060158
 100.1785540  74.5755717  15.6562204  90.8526150  72.1546594  21.3979274
  89.9871670  72.1432284  21.2862045  90.9524966  71.9676817  22.2450413
  90.7400317  72.1252655  21.5068218 106.8429081  73.6280275  26.2112034
 107.2684152  73.1054697  25.6582459 106.4786000  74.2261112  25.6900657
 106.8515683  73.6390502  26.0521043  96.4783160  81.9244492  24.9709379
  96.7929719  82.7380881  24.9787161  96.8876574  81.5394711  25.6391538
  96.5851258  81.9873195  25.0713471 103.4307680  77.3414539  22.5413191
 103.9018858  78.0554802  22.7103176 103.7667859  76.7413289  23.0773061
 103.5502795  77.3586003  22.6445567 105.5184665  78.9515853  34.7205263
 105.6281630  78.1624413  35.0762010 105.8475561  78.8621789  33.9179601
 105.5837070  78.8221706  34.6547654 100.3477175  62.1142010  29.4971286
 100.4805081  61.3173003  29.8252262 100.7322328  62.6408413  30.0769562
 100.4233504  62.0741926  29.6314789 104.0681626  77.1332473  29.3040884
 103.5202572  76.5090357  29.0360949 104.5294655  77.3226745  28.5884963
 104.0548836  77.0691524  29.1591315 103.4209530  59.0372336  26.0952379
 102.6155494  58.9270066  26.4120218 103.2916266  59.1384792  25.2382245
 103.2829663  59.0356006  26.0160420 106.8775491  65.2017828  26.6892076
 106.2938480  65.7027034  26.2769644 107.1979785  64.6947384  26.0556399
 106.8388666  65.2009663  26.5350583  99.4170290  64.1158423  16.9650751
 100.2385984  64.2856736  16.7232446  98.9539941  64.2705684  16.2417049
  99.4701452  64.1640156  16.8222395  98.0065622  62.1101185  27.7449180
  98.5510035  61.7692312  28.3353521  98.0602557  62.9686646  27.8870464
  98.0954741  62.1856444  27.8531053  93.8196181  75.8717601  24.6187988
  94.4241038  75.8313435  23.9901808  93.6123493  76.7188753  24.6492043
  93.8785078  75.9905603  24.5304104 103.6339953  78.1383546  25.8350225
 104.4538326  77.9946512  26.0966520 103.3534030  78.7629745  26.3766663
 103.7136696  78.2093898  25.9538164  89.0547463  74.8552218  24.4886911
  88.9571741  74.0448490  24.7976967  89.8376332  74.8344012  24.1033179
  89.1563599  74.7319309  24.4773774 113.3053288  84.8824049  23.5546032
 112.4491183  85.0432547  23.6055149 113.3520942  84.0116113  23.5751093
 113.1852399  84.7774851  23.5652098 116.6147004  91.1510574  33.1606488
 117.3213772  90.6562605  33.2893422 116.8034940  91.5919656  32.4309146
 116.7474910  91.1428925  33.0715533 116.1505109  86.9416093  26.1977683
 116.6961069  87.6201179  26.2571653 116.0921985  86.8003554  25.3379265
 116.2221023  87.0208094  26.0789744 102.4644228  90.4525445  21.2098370
 102.2294412  89.6193098  21.1030638 102.6029869  90.7330111  20.3959570
 102.4499891  90.3708949  21.0740725 104.7634316  82.6211176  24.1082677
 104.1439347  82.0303823  23.9392692 104.6618179  83.2122611  23.4747000
 104.6571991  82.6215258  23.9887667 104.4903449  86.1663458  26.3526246
 104.3662145  86.7525903  26.9876065 105.1421733  85.6723653  26.6538521
 104.5677098  86.1802262  26.4912176 109.5161790  89.3425175  25.6313757
 110.1610792  88.8497618  25.3124706 109.7563567  89.4849961  26.4579836
 109.6472375  89.2902617  25.7063291 112.0547881  92.1880080  25.2820650
 112.3371124  91.3931486  25.0607406 112.7834041  92.6660668  25.3025711
 112.2037445  92.1414677  25.2523665 110.0329075  79.7303114  22.5236415
 109.7032405  80.1814258  21.8540114 109.3574077  79.6519278  23.0709421
 109.8839511  79.7854250  22.5059638 117.2405482  75.7188637  20.7686026
 116.9258923  76.4092116  21.2006448 116.7232424  75.6633420  20.0671526
 117.1169953  75.8123526  20.7282975 104.0261553  95.3311116  22.4854576
 103.5429131  96.0561606  22.4614159 104.8384871  95.6287246  22.5964733
 104.0752300  95.4813470  22.4981855 110.0975707  94.1243297  25.0904390
 109.5802648  93.7650712  24.4865698 110.7950098  93.6005471  25.1010456
 110.1241288  93.9940985  25.0034649 113.7539299  94.5738111  31.0520563
 113.8422645  94.3864251  31.8998774 114.1829011  93.9275540  30.6525410
 113.8301401  94.4501119  31.1192315 111.3209759  93.8569271  30.0338225
 110.7580593  93.4441881  30.5577887 112.0830782  93.7822177  30.4531369
 111.3504207  93.7846671  30.1731226 108.2385029  77.7915403  18.0059363
 108.9930997  78.1593720  17.7676413 108.0612563  78.1654957  18.7738542
 108.3239507  77.9013591  18.0844251 121.5319928  83.9409843  26.0506902
 120.6948349  84.0112030  26.2854496 121.5008158  83.9434338  25.1781204
 121.4038210  83.9520070  25.9566450 107.9284657  86.0842879  31.7655271
 108.1005160  85.9748774  32.6140552 108.4654014  86.7297284  31.5286463
 108.0329661  86.1634881  31.8560367 106.5942093  80.1985722  14.7037476
 106.4117667  80.4157603  13.8778468 107.4567706  80.3124735  14.7596090
 106.6946683  80.2475620  14.5891963 106.2056525  92.0373644  22.1460464
 107.0445425  92.2696577  22.1934225 106.2368295  91.1677955  22.0767499
 106.3338243  91.9430590  22.1425108 106.8309228  92.4574519  26.4473769
 107.3707453  92.3145650  27.1177141 106.1479175  92.8571270  26.8157795
 106.8101382  92.4954190  26.6008191 112.2741813  77.2012133  17.7386499
 113.0027973  77.0228087  17.2924656 112.3636706  78.0430212  17.9493678
 112.3948475  77.2996011  17.7040017 113.8659358  94.0047130  33.7164347
 114.6499775  94.1177978  34.0820089 113.6655953  93.1788267  33.9123033
 113.9525383  93.8993849  33.7998733 102.2346373  88.6774810  26.6008191
 101.9684789  87.8613927  26.7599181 102.2484938  88.7227966  25.7303706
 102.1971096  88.5631715  26.4961673 119.2127767  79.0052625  24.6350624
 119.8553676  79.0750730  25.2212540 119.4650788  78.3381848  24.1330166
 119.3449899  78.9178974  24.6477904 106.9844980  82.2153188  29.2475198
 106.2916777  81.7450168  29.4935930 107.6005307  81.9891493  29.8216905
 106.9729510  82.1120320  29.3684351 114.0229751  95.9157232  27.3630802
 113.2244997  95.6756732  27.6204671 114.4715763  95.9671625  28.1097850
 113.9704363  95.8879623  27.5115727 102.6439787  89.4633589  23.8819935
 102.4615360  89.4380475  23.0292227 103.3789456  89.9332527  23.9208844
 102.7253851  89.5294952  23.7617853 105.7085539  86.1818592  30.3902044
 106.4325511  86.1671623  30.8766938 105.8101675  86.8913948  29.8924012
 105.8303748  86.2843296  30.3880830 113.0830488  89.6617677  35.2550991
 112.2903469  89.9761189  35.4403610 113.1979415  89.8769145  34.4171775
 112.9825899  89.7401514  35.1589325 114.0114281  89.5637881  30.1936287
 114.5853143  88.9265125  30.3484851 113.9329085  89.5641963  29.3245945
 114.0847516  89.4702992  30.0882698 102.6110697  86.3427090  24.0319001
 103.1884200  86.2063541  24.6711247 101.9124759  85.8862874  24.2864586
 102.5931719  86.2549356  24.1641291 109.3678000  87.9961146  22.2457485
 109.1097244  87.1632881  22.2188784 109.4226482  88.2218759  21.4049985
 109.3377778  87.9058917  22.1177621 114.4479050  80.0989596  22.3461577
 113.7435377  79.6098782  22.5045496 114.4964024  80.1112071  21.4750022
 114.3509101  80.0279244  22.2400917 108.3412712  85.5498908  22.7322379
 107.7662303  85.7091077  23.3686340 107.9648388  84.9134317  22.2690830
 108.2015524  85.4796721  22.7576938 112.0086000  84.0222258  27.5914758
 111.6200433  83.5976475  26.9366949 111.3440699  84.2704407  28.0991784
 111.8532928  83.9960979  27.5702626  98.0869531  85.1938983  20.7466820
  98.1729783  84.8170851  21.5280350  98.7145328  84.8199429  20.2686778
  98.1926082  85.0824465  20.7912297 115.8312362  77.7196886  25.1038742
 116.2122874  77.0375057  25.4906616 115.0275646  77.4306488  24.9214407
 115.7688824  77.5763935  25.1342798 119.3334429  90.9346858  30.2021140
 119.0973066  90.1034923  30.0833201 119.9777658  90.8832465  30.7875985
 119.3929100  90.8044546  30.2707034 103.6745489  93.9630716  24.7998181
 103.7149635  94.2345567  23.9717960 104.2340013  94.4872624  25.2155969
 103.7628835  94.0806471  24.7390069 109.7904202  80.2251085  34.9701351
 109.4757643  80.9950647  34.7070913 109.4694135  79.6621341  34.3853577
 109.6963121  80.2561353  34.8442700 120.3570850  90.7191307  26.2649435
 120.0516667  91.4519364  26.6262751 119.6377065  90.3129237  25.9842221
 120.2058192  90.7673040  26.2762572 107.3436099  78.6141606  20.5847547
 106.4758525  78.6864206  20.6505156 107.6311304  79.4163685  20.7735522
 107.2575847  78.7435753  20.6222313 116.4668988  78.7619465  28.9158869
 117.2122580  78.5729276  28.5022294 116.0506293  79.2877703  28.3572725
 116.5153962  78.8121611  28.7723442 110.4953650  89.9667291  28.4124267
 109.9965343  90.6783059  28.4909155 111.3053874  90.2867958  28.3742429
 110.5409757  90.1194140  28.4180836 106.7581767  89.2290244  22.6586988
 106.4695016  88.6027715  23.1932715 107.6265115  89.1710532  22.7251668
 106.8442019  89.1277788  22.7477943 117.5459665  84.3725028  22.9768970
 117.2024431  83.6515363  23.3276219 117.6452708  84.1638879  22.1347328
 117.5101708  84.2349231  22.9040650 109.4220708  82.8248336  33.7086565
 108.6120484  83.1306115  33.5976408 109.8995395  83.5453918  33.8239149
 109.3724187  82.9762937  33.7093636 108.2812267  92.0394057  23.9569468
 107.7593021  92.1794348  24.6421333 108.6686288  91.2804721  24.1471586
 108.2615968  91.9479580  24.0870545 105.2703451  82.0899865  18.0264423
 104.9828247  81.7201136  17.2896370 105.9573920  82.5594721  17.7648128
 105.3292349  82.1046835  17.8779499 108.1057123  85.9552814  19.4731828
 108.8279775  86.1193972  19.0135634 107.6265116  86.6762478  19.3671168
 108.1420854  86.0851043  19.3897442 116.0650631  82.2916612  24.8528513
 115.2261731  82.3177891  24.6166776 116.1354998  82.9387348  25.4333859
 115.9519024  82.3912738  24.9037630 105.7564740  88.3610886  28.5785968
 106.2685837  88.6395139  27.9294727 105.4701082  89.1000180  28.9448781
 105.7899603  88.5113240  28.5375846 114.5119909  79.1901989  19.5856129
 115.2146262  78.9909738  19.1076087 114.2464098  78.4177932  19.8924972
 114.5766541  79.0464955  19.5601570 102.8431646  82.8681078  18.8749704
 102.9447782  83.6707239  19.2030680 103.6387533  82.6668414  18.5772785
 102.9759552  82.9566977  18.8785060 109.2748465  80.4537275  28.6387009
 109.0831662  80.4692409  29.4886433 110.1247061  80.6500949  28.6153664
 109.3724187  80.4851626  28.7610304 103.6595378  82.9828256  26.6170826
 103.5180870  82.1312197  26.7415334 103.9435942  83.0256917  25.7933032
 103.6803224  82.8628006  26.5138450 113.8133971  84.8195346  20.7615314
 113.5668685  84.7391097  21.5952103 114.1419094  84.0348814  20.5677842
 113.8255214  84.6921612  20.8562837 116.0460104  87.8275081  30.8024477
 116.0408143  86.9554897  30.8066903 116.7521098  88.0263250  30.3293933
 116.1505108  87.7278955  30.7331512 109.7730998  87.5552065  30.1738297
 109.9174374  88.1353273  29.5381407 110.1206646  87.9328362  30.8788152
 109.8458459  87.6972769  30.1837292 111.9450915  86.7542233  27.9563429
 111.1974229  86.9473248  27.5511707 112.0992440  85.9287453  27.7187550
 111.8573343  86.6607345  27.8608835 108.8458753  95.7454837  27.0399324
 108.9948317  95.1857752  26.3872728 109.6258755  95.8246838  27.4231843
 108.9832846  95.6740402  26.9996273 111.3712053  95.9169480  28.3183815
 111.2955725  95.2478290  28.8734603 111.3001913  96.6187268  28.8324481
 111.3492660  95.9214387  28.4760663 112.1852692  80.6492784  28.8458832
 112.6425306  81.3816758  28.9731625 112.2609021  80.2259249  29.6046088
 112.2643662  80.6950022  28.9759909 104.4285683  80.8958604  29.9348276
 103.8927873  80.2838962  30.2509043 104.4903448  81.4706740  30.5881943
 104.3581316  80.8905531  30.0783703 116.6580018  73.8282659  22.7152675
 116.7763586  74.2859122  21.9819978 116.4842194  73.0227920  22.4288893
 116.6499189  73.7776431  22.5653609 110.0635070  82.6394888  25.6900656
 109.2731145  82.4586348  26.0117992 110.4595693  81.8621840  25.6730951
 110.0051946  82.4982349  25.7353205 112.5772900  85.1155147  30.1724155
 112.5132042  85.9765103  30.0444292 112.7170088  84.7987140  29.3719707
 112.5888370  85.1955314  30.0352368 111.2591994  87.8087286  24.3140358
 110.8354243  88.0091785  23.5779377 111.0836849  86.9616134  24.4264658
 111.1702875  87.7136068  24.2214048 110.7603688  99.3237799  26.7761816
 111.2499618  98.6248588  26.5937480 110.1887920  99.0261669  27.3637873
 110.7488218  99.1764023  26.8362856 106.5474439  88.3039338  19.7468331
 106.7039058  88.2386141  20.6024323 106.8875032  89.0787890  19.5347010
 106.6207674  88.4088536  19.8422925 116.9570691  91.8899869  35.7288606
 117.7705557  91.6185018  35.8893739 116.7965658  91.5907409  34.9248802
 117.0540640  91.8054795  35.6334012 114.2342853  82.5733526  28.6683994
 114.4484823  81.9344440  28.1147348 113.6176752  83.0179350  28.2391856
 114.1748182  82.5443669  28.5234426 103.1208701  85.4874288  20.0629098
 103.5007666  85.9058833  19.3989365 102.5464066  86.0687744  20.3697941
 103.0920026  85.6352147  20.0105839 116.3981941  84.1822591  29.6067302
 115.5858623  83.8748481  29.6880474 116.8571876  83.7021591  30.1710014
 116.3462326  84.0659083  29.7021896 113.6257582  75.6833461  23.6571337
 112.7551140  75.6572183  23.6104647 113.8797923  75.5110654  22.8397183
 113.5351142  75.6543605  23.5291474 113.4935449  85.5882662  34.3896004
 113.9635080  86.2124779  34.7763878 113.5397329  84.9199638  34.9489219
 113.5703325  85.5817343  34.5296075 110.6506722  77.6939690  25.1144808
 110.1345211  77.0019881  25.2396387 110.0900651  78.3610467  25.0607406
 110.4913236  77.6902948  25.1250874 112.7198956  78.2332650  26.9437660
 112.3330709  78.2581681  27.7251190 112.2331893  77.6674329  26.4912177
 112.5911465  78.1528401  26.9925564 116.9691935  92.9506159  31.0011447
 117.6071656  92.4566355  30.6673903 116.3266027  92.8783559  30.4163674
 116.9686162  92.8665167  30.8653802 118.6948935  84.7995305  25.5677362
 118.2676543  84.7121653  24.8125462 118.0574988  84.9073080  26.1532206
 118.5378543  84.8027965  25.5422804 112.3856098  75.1199635  29.2347920
 113.0149216  75.6559935  28.9568990 112.5541960  75.0276994  30.0861486
 112.5033892  75.1860998  29.3196448 112.1870012  79.9070830  31.5074332
 113.0143442  79.6355979  31.5632946 112.2077858  80.7031672  31.8638150
 112.3122862  79.9850584  31.5689515 117.0246192  93.6425967  27.6416804
 117.8138570  93.2915032  27.7618885 117.1989790  94.4562356  27.3793437
 117.1666474  93.7111824  27.6204671 106.7639502  87.0534693  24.6944592
 105.9227509  86.9538567  24.9023486 106.9729510  87.8230173  25.0458913
 106.6704195  87.1526736  24.7771907 104.2415069  84.6754230  22.5229343
 103.8471767  84.7497242  21.7479453 103.6855186  85.0612176  23.0737705
 104.1017882  84.7436004  22.4897003 115.8780016  77.6535524  22.2033222
 116.0829609  77.5857832  23.0490219 115.5506440  78.4594345  22.1354399
 115.8595264  77.7621464  22.3192877 110.5756167  84.9816092  23.9442190
 110.2719305  84.4272080  24.5452598 109.8735588  85.1608302  23.4570224
 110.4272377  84.9260874  23.9611896 109.6322264  82.2916612  18.5086892
 109.9081999  81.5735524  18.0964459 110.2320934  82.8901532  18.3007998
 109.7615529  82.2736983  18.4167653 108.6374518  92.1965813  28.6514288
 108.5294873  92.2067875  29.5176346 108.8470300  93.0220593  28.4619241
 108.6524629  92.3206888  28.7518379 119.1313704  78.2067288  21.6835987
 118.5188017  78.6937690  22.0689719 119.2277879  77.5310779  22.2273639
 119.0551601  78.1785597  21.8214846 113.1332785  79.9630129  16.7833487
 113.5876531  80.1340690  17.5081331 113.6072830  79.3498240  16.3831262
 113.2701105  79.8981015  16.8307248 106.6548310  89.4478455  26.1136225
 106.0636243  90.0887953  26.0839240 107.4169334  89.8716073  26.0867525
 106.6796571  89.6054294  26.1051372 107.0508933  80.6080453  26.7804243
 107.5110414  80.6819382  27.5179367 107.0965040  81.4061707  26.4304064
 107.1259488  80.7374600  26.8376999 108.6992283  81.2747148  31.3476270
 108.3077848  80.6280495  31.7832048 108.8678145  81.8658583  31.9670525
 108.6663193  81.2661416  31.5038976 122.7738732  89.2784225  27.1113504
 122.8321855  89.7270874  27.8573480 122.1405199  89.6883038  26.6743584
 122.6890027  89.4057960  27.1566052 112.3925380  78.4622923  22.9210355
 111.5461425  78.6345730  22.7951705 112.3896513  77.6572266  23.2576184
 112.2672530  78.3683951  22.9521482 113.4623681  82.2398137  23.7872413
 112.9883635  81.7139899  24.2977724 113.8341816  81.6927610  23.2187275
 113.4473570  82.0814134  23.7787561 103.8396711  84.2369644  29.1555959
 104.7022324  84.1365353  29.0693289 103.5088494  83.6564353  28.5941531
 103.9181907  84.1361270  29.0601365 119.7260411  87.3000513  25.1979194
 119.4858634  86.4606928  25.2021620 120.2052418  87.3800679  25.9219967
 119.7612595  87.1881912  25.3053996 121.7265598  84.0801970  23.1508453
 121.4875368  84.0397804  22.3129238 121.8899499  84.9273122  23.2774174
 121.7155902  84.1994055  23.0461935 118.3311628  88.4651919  29.0813498
 119.0545827  88.0124446  28.9024518 118.0661591  88.7456585  28.2985826
 118.3992902  88.4402888  28.9392213 107.1998497  83.0612093  25.8166377
 106.5751567  83.0730485  25.2092330 106.8644092  83.5372268  26.4657617
 107.0583989  83.1330610  25.8222946 103.9124172  91.1212553  27.2570142
 103.3824097  90.4304992  27.3065116 104.1849266  91.1122738  26.4282850
 103.8748895  91.0179685  27.1417558 114.1130418  88.5635797  27.2308513
 113.4987411  88.0193848  27.5257148 114.6297703  88.0500034  26.7514329
 114.0986080  88.4072206  27.2032742 113.3526715  89.6340067  24.9652812
 112.9254323  89.0089786  24.5318247 113.3451659  89.3514989  25.7911819
 113.2885856  89.4992848  25.0232639 106.4689242  84.6705240  28.0341246
 106.6282729  83.9148565  28.4392968 106.2882136  85.2196180  28.6881983
 106.4654601  84.6399054  28.1903952 114.4109545  76.8366476  28.5892035
 113.9150106  77.0330150  27.8983602 115.1678607  77.2359144  28.4180837
 114.4496370  76.9244210  28.4612172 111.6812425  80.5108822  25.1795346
 111.7054912  79.9768934  24.4908126 111.9323898  80.0026131  25.8420936
 111.7222343  80.3569726  25.1759990  99.1920014  87.7940317  24.6138490
  99.0863464  87.7487161  23.7490574  98.4420234  88.1394097  24.8952775
  99.0655617  87.8381225  24.5275820 107.9613747  79.2379640  24.5601090
 108.0012118  79.7388847  25.2735797 107.1363412  79.3290034  24.2907013
 107.8453273  79.3261456  24.6251628 110.1443360  88.8040380  32.6621385
 109.2938990  88.9412094  32.7979030 110.3071487  88.0704158  33.1069086
 110.0427223  88.7154481  32.7476984 109.3828110  85.7540150  26.8574989
 108.5520040  85.9213968  26.6510237 109.3279627  85.3776101  27.6423874
 109.2517525  85.7229881  26.9423517 107.1911894  79.2449043  32.4931400
 107.8164597  78.7011176  32.7660832 106.7362373  78.7643961  31.9239190
 107.2160154  79.0938524  32.4492994 107.7564154  84.0295742  17.3865107
 107.8967115  84.5268206  18.0893748 108.2546687  83.3282036  17.5279320
 107.8505235  83.9997720  17.5116686 120.7646942  87.4278330  27.5844048
 121.3564783  88.0675581  27.6162246 121.2005937  86.7301367  27.8736115
 120.9165373  87.4196680  27.6324880 112.5940332  91.8495702  28.2101942
 112.0865423  92.4031549  28.6542572 112.2966978  91.9103992  27.3920716
 112.4745217  91.9402014  28.1550398 114.7602514  80.2149022  27.0526605
 115.1857586  79.7621548  26.4410131 114.1459507  79.6609093  27.3291392
 114.7331160  80.0662998  27.0031630 104.2917364  87.0930693  17.9847230
 104.8009594  87.6895201  18.3658535 104.7651637  86.8256667  17.3023649
 104.4360740  87.1416509  17.9401752 113.1996737  76.6864122  20.4617182
 112.5565055  76.5361768  21.0302320 112.8596144  76.4406467  19.6966286
 113.0541815  76.6276244  20.4320197 117.9524211  81.0979432  22.7937564
 118.3051821  80.6709155  23.4683362 117.0939013  81.0130276  22.9238640
 117.8773656  81.0224173  22.9132574 106.6507896  83.7286952  20.8520410
 105.9319885  84.1451084  21.1193274 107.0220258  84.2941191  20.3012048
 106.5999828  83.8736233  20.8103217 115.9507477  84.3614801  26.7422406
 115.9305404  84.1798096  27.5957185 115.9986678  85.2326819  26.7181989
 115.9542118  84.4631339  26.8645701 113.8953807  90.9501993  32.6670882
 113.8549662  90.3051670  32.0816038 114.7077125  90.8938610  32.9796294
 114.0096960  90.8460960  32.6267831 119.3848271  76.2197844  23.7221876
 118.8779136  75.5126984  23.6543054 120.1815705  75.8891033  23.8522953
 119.4275510  76.0670995  23.7320871 115.3012287  82.7264456  19.6195540
 115.0725980  82.7497158  18.7773898 115.5610363  81.9021923  19.7390550
 115.3058475  82.6080536  19.5120737 109.5831515  84.5798929  29.2220640
 109.0710419  83.9720112  29.5805671 109.4111012  85.2955522  29.6894616
 109.4821153  84.5962229  29.3436864 104.4297230  83.0236505  31.8723002
 104.2599820  83.6837879  31.3271208 103.9863180  83.2343066  32.5935491
 104.3396564  83.1522487  31.8984631 108.3557050  81.2641003  20.9149735
 108.8314416  81.6258082  20.2799917 107.8545649  81.9197470  21.1949878
 108.3522409  81.4135191  20.8626476 113.4600586  82.5023174  31.6622896
 114.0172016  82.2736983  31.0301361 113.1361651  83.2628840  31.3858108
 113.4946996  82.5807011  31.5279393 101.3299295  85.9283370  27.1311492
 100.7826014  85.2584016  27.2492360 102.1191673  85.5613218  27.1954959
 101.3651478  85.7748357  27.1580192 111.1783703  85.5890827  32.6274903
 111.9295030  85.9042504  32.9414457 111.3706280  85.3869998  31.8008824
 111.3175117  85.6058209  32.5518298 118.0268993  81.7164394  19.8698698
 118.0263220  81.5613050  20.7282974 117.8225173  82.5627381  19.8140084
 117.9968771  81.8185014  19.9886637 100.0886264  85.1404178  24.2857515
  99.9108025  84.6880787  25.0112430  99.8005286  85.9430339  24.4695992
 100.0199217  85.1926736  24.4201018 115.7509845  86.3961895  23.5234905
 116.2463511  85.6784890  23.4838925 114.9409621  86.0932693  23.4089392
 115.7053739  86.2459542  23.5008631 101.8258734  87.6731902  21.3979274
 100.9604254  87.6617592  21.2862045 101.9257550  87.4862125  22.2450413
 101.7132901  87.6437963  21.5068218 117.8161664  89.1465583  26.2112034
 118.2416736  88.6240005  25.6582459 117.4518584  89.7446420  25.6900657
 117.8248267  89.1575810  26.0521043 107.4515744  97.4429800  24.9709379
 107.7662303  98.2566189  24.9787161 107.8609157  97.0580019  25.6391538
 107.5583842  97.5058503  25.0713471 116.4917248  94.4701161  34.7205263
 116.6014214  93.6809721  35.0762010 116.8208145  94.3807097  33.9179601
 116.5569654  94.3407013  34.6547654 111.3209759  77.6327318  29.4971286
 111.4537664  76.8358311  29.8252262 111.7054911  78.1593721  30.0769562
 111.3966087  77.5927234  29.6314789 115.0414210  92.6517781  29.3040884
 114.4935156  92.0275665  29.0360949 115.5027239  92.8412053  28.5884963
 115.0281419  92.5876831  29.1591315 114.3942114  74.5557644  26.0952379
 113.5888077  74.4455373  26.4120218 114.2648849  74.6570100  25.2382245
 114.2562247  74.5541314  26.0160420 117.8508074  80.7203136  26.6892076
 117.2671063  81.2212342  26.2769644 118.1712368  80.2132692  26.0556399
 117.8121250  80.7194971  26.5350583 110.3902873  79.6343731  16.9650751
 111.2118568  79.8042043  16.7232446 109.9272524  79.7890992  16.2417049
 110.4434036  79.6825464  16.8222395 108.9798205  77.6286493  27.7449180
 109.5242618  77.2877620  28.3353521 109.0335141  78.4871954  27.8870464
 109.0687325  77.7041752  27.8531053 104.7928764  91.3902909  24.6187988
 105.3973621  91.3498743  23.9901808 104.5856077  92.2374061  24.6492043
 104.8517661  91.5090911  24.5304104 114.6072536  93.6568854  25.8350225
 115.4270910  93.5131820  26.0966520 114.3266614  94.2815053  26.3766663
 114.6869280  93.7279206  25.9538164 100.0280046  90.3737526  24.4886911
  99.9304324  89.5633798  24.7976967 100.8108916  90.3529320  24.1033179
 100.1296183  90.2504617  24.4773774 117.9577563  97.7338496  29.2475198
 117.2649360  97.2635476  29.4935930 118.5737891  97.5076801  29.8216905
 117.9462093  97.6305628  29.3684351 120.7636786  95.7436392  34.9701351
 120.4490227  96.5135955  34.7070913 120.4426719  95.1806649  34.3853577
 120.6695705  95.7746661  34.8442700 120.3953291  98.3433644  33.7086565
 119.5853067  98.6491423  33.5976408 120.8727978  99.0639226  33.8239149
 120.3456770  98.4948245  33.7093636 115.4018267  96.4143912  29.9348276
 114.8660456  95.8024270  30.2509043 115.4636032  96.9892048  30.5881943
 115.3313900  96.4090839  30.0783703 124.4668032 101.1067970  34.3896004
 124.9367663 101.7310087  34.7763878 124.5129912 100.4384946  34.9489219
 124.5435908 101.1002651  34.5296075 123.3588681  90.6384943  29.2347920
 123.9881799  91.1745243  28.9568990 123.5274544  90.5462302  30.0861486
 123.4766476  90.7046306  29.3196448 123.1602596  95.4256138  31.5074332
 123.9876025  95.1541287  31.5632946 123.1810442  96.2216980  31.8638150
 123.2855446  95.5035892  31.5689515 119.6724866  96.7932456  31.3476270
 119.2810431  96.1465803  31.7832048 119.8410729  97.3843891  31.9670525
 119.6395777  96.7846724  31.5038976 114.8129294  99.7554952  29.1555959
 115.6754907  99.6550661  29.0693289 114.4821077  99.1749661  28.5941531
 114.8914491  99.6546578  29.0601365 118.1644477  94.7634351  32.4931400
 118.7897180  94.2196484  32.7660832 117.7094957  94.2829268  31.9239190
 118.1892738  94.6123832  32.4492994 115.4029814  98.5421813  31.8723002
 115.2332404  99.2023187  31.3271208 114.9595764  98.7528374  32.5935491
 115.3129147  98.6707795  31.8984631 122.2942342  93.1512626  29.4971286
 122.4270248  92.3543619  29.8252262 122.6787495  93.6779029  30.0769562
 122.3698671  93.1112542  29.6314789 119.9530789  93.1471801  27.7449180
 120.4975202  92.8062928  28.3353521 120.0067725  94.0057262  27.8870464
 120.0419908  93.2227060  27.8531053  72.4167494   6.0147474  20.0946535
  73.1234261   5.5199505  20.2233469  72.6055429   6.4556555  19.3649193
  72.5495400   6.0065824  20.0055580  69.5559788   9.4375010  17.9860610
  69.6443134   9.2501151  18.8338820  69.9849501   8.7912440  17.5865457
  69.6321891   9.3138018  18.0532361  67.1230248   8.7206170  16.9678272
  66.5601083   8.3078780  17.4917933  67.8851272   8.6459076  17.3871415
  67.1524697   8.6483571  17.1071273  69.6679848   8.8684029  20.6504394
  70.4520264   8.9814877  21.0160136  69.4676442   8.0425167  20.8463079
  69.7545873   8.7630749  20.7338780  69.8250241  10.7794131  14.2970849
  69.0265487  10.5393632  14.5544718  70.2736253  10.8308524  15.0437897
  69.7724852  10.7516523  14.4455773  68.8850978   4.5254576  22.1891037
  68.0923959   4.8398088  22.3743657  68.9999905   4.7406045  21.3511822
  68.7846388   4.6038413  22.0929372  75.1354918   5.7983758  17.1361187
  74.8993556   4.9671823  17.0173248  75.7798147   5.7469365  17.7216031
  75.1949589   5.6681446  17.2047081  67.1732543  10.7806379  15.2523862
  67.0976214  10.1115190  15.8074650  67.1022402  11.4824167  15.7664528
  67.1513150  10.7851286  15.4100710  66.5624177  14.1874699  13.7101862
  67.0520108  13.4885488  13.5277527  65.9908410  13.8898569  14.2977920
  66.5508707  14.0400922  13.7702903  72.7591181   6.7536768  22.6628653
  73.5726046   6.4821917  22.8233785  72.5986147   6.4544308  21.8588849
  72.8561129   6.6691694  22.5674059  69.2955938   0.4519562  21.3236051
  69.7655570   1.0761678  21.7103925  69.3417819  -0.2163463  21.8829265
  69.3723814   0.4454242  21.4636122  72.7712425   7.8143058  17.9351494
  73.4092145   7.3203254  17.6013950  72.1286516   7.7420459  17.3503720
  72.7706651   7.7302067  17.7993849  72.8266681   8.5062867  14.5756850
  73.6159060   8.1551931  14.6958932  73.0010279   9.3199255  14.3133484
  72.9686963   8.5748724  14.5544718  65.9463849   3.6677280  19.5961431
  65.0959480   3.8048994  19.7319076  66.1091977   2.9341058  20.0409133
  65.8447713   3.5791381  19.6817031  69.6974296   5.8138892  19.6010929
  69.6570151   5.1688569  19.0156085  70.5097615   5.7575510  19.9136341
  69.8117450   5.7097859  19.5607878  72.2937738   9.3338060  21.6545310
  72.4034703   8.5446621  22.0102057  72.6228634   9.2443996  20.8519648
  72.3590144   9.2043913  21.5887701  70.8434700   7.5154681  16.2380931
  70.2955646   6.8912564  15.9700996  71.3047728   7.7048953  15.5225010
  70.8301909   7.4513731  16.0931362  80.0806361  15.2646256  10.4886079
  79.2244257  15.4254754  10.5395195  80.1274015  14.3938320  10.5091140
  79.9605473  15.1597058  10.4992145  74.4647501  24.8008974   6.2523310
  73.7130400  24.4224512   6.0239355  74.9133512  24.8327408   5.5042120
  74.4197168  24.7494581   6.1080812  83.3900078  21.5332782  20.0946535
  84.0966845  21.0384813  20.2233469  83.5788013  21.9741863  19.3649193
  83.5227983  21.5251132  20.0055580  79.4576752  27.1748612   7.6219969
  79.8416131  27.7435511   7.0824744  79.3935893  26.4498123   7.1425785
  79.5050179  27.1524076   7.4713831  82.9258182  17.3238300  13.1317730
  83.4714142  18.0023387  13.1911700  82.8675058  17.1825761  12.2719312
  82.9974096  17.4030302  13.0129791  76.0432257  24.8127366   8.5186083
  76.1442620  24.0027720   8.8283210  75.4474002  24.7184313   7.8885761
  75.9704796  24.6792394   8.4712321  75.8832997  29.7304955   9.9200939
  76.5270452  30.1718119  10.3097097  76.2089252  28.9258382   9.8331197
  76.0264825  29.6770150   9.9646416  76.5853576  22.7416930   5.2920800
  76.9069417  23.2822138   4.6882109  77.2325673  22.1713702   5.4243090
  76.7279631  22.7376105   5.2227836  71.2656522  16.5485665  13.2866293
  71.1415219  17.1348111  13.9216112  71.9174806  16.0545861  13.5878568
  71.3430171  16.5624469  13.4252222  78.8243220  21.1303370   5.3634979
  79.2636855  20.5220471   5.8089751  78.6747883  20.7510744   4.5920444
  78.8664685  20.9841841   5.3154146  76.2914863  19.7247382  12.5653804
  76.9363865  19.2319825  12.2464753  76.5316640  19.8672169  13.3919882
  76.4225448  19.6724824  12.6403337  78.8300954  22.5702288  12.2160697
  79.1124197  21.7753694  11.9947453  79.5587114  23.0482875  12.2365758
  78.9790518  22.5236885  12.1863712  88.8119042  21.6761650   9.1896527
  87.9816746  21.8872294   9.3529944  88.7628295  20.8498705   8.9138811
  88.6825778  21.5851256   9.1733893  70.8014626  25.7133324   9.4194623
  70.3182204  26.4383813   9.3954206  71.6137944  26.0109454   9.5304780
  70.8505374  25.8635677   9.4321902  76.8728780  24.5065504  12.0244437
  76.3555722  24.1472919  11.4205745  77.5703171  23.9827679  12.0350503
  76.8994361  24.3763192  11.9374696  80.5292372  24.9560318  17.9860610
  80.6175718  24.7686459  18.8338820  80.9582085  24.3097748  17.5865457
  80.6054474  24.8323326  18.0532361  78.0962832  24.2391478  16.9678272
  77.5333667  23.8264088  17.4917933  78.8583855  24.1644384  17.3871415
  78.1257280  24.1668879  17.1071273  73.6558823  26.2289499   9.5714902
  74.3579402  25.7141489   9.6287659  73.5756306  26.5563651  10.3761777
  73.7482584  26.2003726   9.6987695  88.3073001  14.3232051  12.9846949
  87.4701422  14.3934238  13.2194543  88.2761232  14.3256546  12.1121251
  88.1791283  14.3342278  12.8906497  74.7037730  16.4665086  18.6995317
  74.8758233  16.3570981  19.5480599  75.2407087  17.1119492  18.4626510
  74.8082734  16.5457088  18.7900414  72.9809599  22.4195851   9.0800510
  73.8198498  22.6518784   9.1274272  73.0121368  21.5500163   9.0107546
  73.1091316  22.3252798   9.0765155  73.6062302  22.8396727  13.3813816
  74.1460527  22.6967858  14.0517188  72.9232248  23.2393477  13.7497842
  73.5854456  22.8776398  13.5348238  83.0303187  18.5187727   8.5758840
  83.7860702  18.9519242   8.6147749  83.1365511  17.8692497   9.1493476
  83.1573357  18.4865211   8.6656866  86.0683358  22.3461005   9.3261243
  85.6318590  22.3497747  10.0820215  85.7346273  23.0266504   8.8940821
  85.9545978  22.4473460   9.3742076  80.6412431  24.3869337  20.6504394
  81.4252848  24.5000185  21.0160136  80.4409026  23.5610474  20.8463079
  80.7278457  24.2816057  20.7338780  69.0099447  19.0597017  13.5348237
  68.7437862  18.2436134  13.6939228  69.0238011  19.1050173  12.6643753
  68.9724169  18.9453922  13.4301719  85.9880841   9.3874832  11.5690671
  86.6306749   9.4572937  12.1552586  86.2403861   8.7204055  11.0670213
  86.1202973   9.3001181  11.5817950  73.7598053  12.5975396  16.1815245
  73.0669850  12.1272375  16.4275977  74.3758380  12.3713700  16.7556952
  73.7482583  12.4942528  16.3024398  80.7982825  26.2979439  14.2970849
  79.9998070  26.0578939  14.5544718  81.2468836  26.3493832  15.0437897
  80.7457436  26.2701831  14.4455773  89.2027704  19.0641924   8.2180880
  89.8644138  18.5032593   8.1176789  88.5619116  18.5693955   8.5433572
  89.2056571  18.9078333   8.2513221  69.4192860  19.8455797  10.8159982
  69.2368434  19.8202683   9.9632274  70.1542529  20.3154735  10.8548890
  69.5006924  19.9117159  10.6957900  85.4892535  20.0807307   7.9592869
  85.7248124  20.2252506   7.1319720  85.6382098  20.8449715   8.3524383
  85.5458338  20.2146361   7.8956473  72.4838612  16.5640800  17.3242090
  73.2078584  16.5493830  17.8106985  72.5854749  17.2736155  16.8264059
  72.6056821  16.6665503  17.3220877  79.8583561  20.0439884  22.1891037
  79.0656542  20.3583396  22.3743657  79.9732489  20.2591353  21.3511822
  79.7578972  20.1223721  22.0929372  82.5314880  16.7673875   6.4786053
  82.6261735  17.5063170   6.9325679  81.9073724  16.3391351   6.9120618
  82.4523911  16.8135196   6.6094201  80.7867354  19.9460088  17.1276334
  81.3606216  19.3087332  17.2824898  80.7082158  19.9464170  16.2585992
  80.8600589  19.8525199  17.0222745  69.3863771  16.7249298  10.9659048
  69.9637273  16.5885748  11.6051294  68.6877832  16.2685082  11.2204633
  69.3684792  16.6371564  11.0981338  76.1431073  18.3783353   9.1797532
  75.8850317  17.5455088   9.1528831  76.1979556  18.6040966   8.3390032
  76.1130851  18.2881124   9.0517668  75.1165785  15.9321116   9.6662426
  74.5415376  16.0913284  10.3026387  74.7401461  15.2956525   9.2030877
  74.9768597  15.8618929   9.6916985  78.7839074  14.4044465  14.5254805
  78.3953506  13.9798683  13.8706996  78.1193772  14.6526615  15.0331831
  78.6286001  14.3783186  14.5042673  82.6065435   8.1019094  12.0378789
  82.9875947   7.4197265  12.4246663  81.8028719   7.8128696  11.8554453
  82.5441897   7.9586142  12.0682845  86.1087502  21.3169066  17.1361187
  85.8726139  20.4857130  17.0173248  86.7530731  21.2654673  17.7216031
  86.1682173  21.1866754  17.2047081  75.7585920  22.1064587   7.8503924
  76.3959867  21.8676335   8.3955717  76.1840992  22.3101746   7.1157084
  75.9162086  22.1015597   7.8221081  70.4498563  24.3452923  11.7338228
  70.4902708  24.6167775  10.9058007  71.0093087  24.8694832  12.1496015
  70.5381908  24.4628679  11.6730116  76.5657276  10.6073292  21.9041397
  76.2510717  11.3772855  21.6410960  76.2447208  10.0443548  21.3193624
  76.4716195  10.6383561  21.7782747  87.1323923  21.1013514  13.1989482
  86.8269740  21.8341571  13.5602797  86.4130138  20.6951444  12.9182268
  86.9811265  21.1495247  13.2102619  78.1407392  22.5837010   9.5297710
  78.2146400  22.4212181  10.3839560  78.9576898  22.7727199   9.2858192
  78.2723751  22.5873752   9.6195736  92.8325715  17.7406515  12.5257826
  92.7650215  17.7602474  11.6560413  92.8181377  18.5836842  12.7513497
  92.8204471  17.8680250  12.4310303  71.9013149  22.9294872   6.5592153
  71.0751266  23.1756610   6.4326432  71.9625140  22.8506953   7.4254212
  71.7887316  22.9539821   6.6681098  83.2422061   9.1441673  15.8498915
  83.9875653   8.9551483  15.4362341  82.8259366   9.6699911  15.2912772
  83.2907036   9.1943818  15.7063489  76.6811978  25.5471753   4.2611183
  76.9710276  25.1560734   3.5370410  77.4115459  25.7288458   4.7016459
  76.8318862  25.5165566   4.2193990  90.6184332  16.5150901  10.8004420
  91.1692254  15.8818970  11.0401513  90.6028448  17.0466294  11.4919925
  90.6969529  16.4999849  10.9383279  77.2706723  20.3489499  15.3464314
  76.7718417  21.0605266  15.4249202  78.0806947  20.6690165  15.3082476
  77.3162830  20.5016347  15.3520882  74.6217893  27.5239135   7.3271333
  74.4018189  27.2336490   8.1198000  74.4012415  26.8654090   6.7989245
  74.5565488  27.3838843   7.3660242  73.5334841  19.6112452   9.5927035
  73.2448089  18.9849923  10.1272762  74.4018189  19.5532739   9.6591715
  73.6195093  19.5099996   9.6817989  84.3212738  14.7547235   9.9109017
  83.9777504  14.0337570  10.2616266  84.4205781  14.5461086   9.0687375
  84.2854781  14.6171438   9.8380697  76.7885849  28.8968525   6.1102026
  77.4409907  28.3644967   6.3393052  76.0911458  28.5437177   6.4969900
  76.7816567  28.7658048   6.2014193  84.7825767  21.2172939   5.4533005
  85.3483800  21.8766149   5.3691548  84.1353671  21.5622637   5.9249407
  84.7704524  21.3654880   5.5105761  76.1973781  13.2070543  20.6426612
  75.3873557  13.5128323  20.5316454  76.6748468  13.9276125  20.7579196
  76.1477260  13.3585144  20.6433683  75.0565341  22.4216264  10.8909515
  74.5346094  22.5616556  11.5761380  75.4439361  21.6626928  11.0811633
  75.0369042  22.3301788  11.0210592  81.2532346  24.1611723   4.8770084
  81.0119022  23.4279584   4.4697149  81.4333678  24.7098580   4.2236417
  81.2439970  24.1334114   4.7200307  82.8403704  12.6738820  11.7868560
  82.0014804  12.7000099  11.5506823  82.9108071  13.3209555  12.3673906
  82.7272097  12.7734946  11.8377676  72.5317813  18.7433093  15.5126014
  73.0438910  19.0217347  14.8634774  72.2454156  19.4822387  15.8788828
  72.5652676  18.8935447  15.4715893  86.7161228  17.8806807   9.0729801
  86.6295202  18.0362233   9.9264580  86.2611708  18.5244882   8.6989206
  86.6364484  17.9982562   9.1436908  76.0501538  10.8359482  15.5727056
  75.8584735  10.8514616  16.4226480  76.9000134  11.0323156  15.5493711
  76.1477260  10.8673833  15.6950351  70.4348451  13.3650463  13.5510873
  70.2933943  12.5134404  13.6755381  70.7189015  13.4079124  12.7273079
  70.4556297  13.2450213  13.4478497  80.5887044  15.2017554   7.6955361
  80.3421758  15.1213305   8.5292150  80.9172167  14.4171021   7.5017888
  80.6008287  15.0743819   7.7902884  84.4835093  21.9100913  11.4842142
  84.3449452  22.6081959  11.9890884  83.7035090  21.7549569  11.1278324
  84.3478319  21.9901080  11.5068416  82.8213178  18.2097288  17.7364524
  82.8161216  17.3377105  17.7406950  83.5274172  18.4085457  17.2633979
  82.9258182  18.1101162  17.6671559  76.5484071  17.9374272  17.1078344
  76.6927447  18.5175480  16.4721454  76.8959720  18.3150569  17.8128199
  76.6211532  18.0794976  17.1177339  78.7203988  17.1364441  14.8903475
  77.9727302  17.3295455  14.4851754  78.8745514  16.3109660  14.6527597
  78.6326416  17.0429552  14.7948881  75.6211826  26.1277044  13.9739371
  75.7701390  25.5679960  13.3212775  76.4011828  26.2069046  14.3571890
  75.7585920  26.0562609  13.9336320  78.1465127  26.2991687  15.2523862
  78.0708798  25.6300497  15.8074650  78.0754986  27.0009475  15.7664528
  78.1245734  26.3036594  15.4100710  78.9605765  11.0314991  15.7798879
  79.4178379  11.7638966  15.9071671  79.0362094  10.6081457  16.5386135
  79.0396735  11.0772229  15.9099956  71.2038757  11.2780811  16.8688323
  70.6680946  10.6661169  17.1849090  71.2656521  11.8528947  17.5221990
  71.1334389  11.2727739  17.0123750  78.8035374  24.8192686   6.0847468
  79.5685265  24.5502329   5.7630132  78.7013464  24.3342696   6.8017530
  78.9016869  24.7082250   6.1427295  76.8388143  13.0217095  12.6240703
  76.0484218  12.8408555  12.9458039  77.2348766  12.2444048  12.6070998
  76.7805020  12.8804556  12.6693252  82.2231830  20.6559525  10.3500149
  81.5476831  20.4244758  10.8513536  82.2324206  20.0480708   9.7242254
  82.1250334  20.5318451  10.3316301  79.3525974  15.4977354  17.1064202
  79.2885115  16.3587311  16.9784339  79.4923161  15.1809348  16.3059753
  79.3641444  15.5777521  16.9692415  84.2248564  23.5124658   2.5810327
  84.3068402  24.3191644   2.2571778  84.7098306  23.5320617   3.3051101
  84.3085722  23.6345320   2.6397226  78.0345067  18.1909494  11.2480405
  77.6107317  18.3913993  10.5119423  77.8589923  17.3438342  11.3604705
  77.9455948  18.0958275  11.1554095  77.5356761  29.7060007  13.7101862
  78.0252691  29.0070796  13.5277527  76.9640993  29.4083877  14.2977920
  77.5241291  29.5586230  13.7702903  83.7323764  22.2722076  22.6628653
  84.5458630  22.0007225  22.8233785  83.5718731  21.9729616  21.8588849
  83.8293713  22.1877002  22.5674059  81.0095926  12.9555733  15.6024041
  81.2237896  12.3166647  15.0487395  80.3929826  13.4001557  15.1731903
  80.9501256  12.9265877  15.4574472  82.4200594  25.8774482   7.0478262
  82.0280386  25.5741197   6.3301128  82.5753667  26.7143571   6.8583216
  82.3854184  25.9558318   6.9134759  83.1735014  14.5644798  16.5407348
  82.3611696  14.2570689  16.6220521  83.6324949  14.0843799  17.1050061
  83.1215399  14.4481291  16.6361943  82.5840269  22.4424470   6.9884293
  82.2254924  22.6139113   7.7648325  82.0978980  22.9037676   6.4312291
  82.4598966  22.5363441   7.0209562  80.2688522  15.9704870  21.3236051
  80.7388153  16.5946986  21.7103925  80.3150402  15.3021845  21.8829265
  80.3456398  15.9639550  21.4636122  79.4952029   8.6154857  13.8777707
  79.1083782   8.6403889  14.6591237  79.0084966   8.0496536  13.4252224
  79.3664538   8.5350608  13.9265611  83.7445008  23.3328366  17.9351494
  84.3824729  22.8388562  17.6013950  83.1019100  23.2605767  17.3503720
  83.7439235  23.2487375  17.7993849  85.4702009  15.1817512  12.5017409
  85.0429617  15.0943861  11.7465509  84.8328062  15.2895288  13.0872253
  85.3131616  15.1850172  12.4762851  79.1609171   5.5021843  16.1687967
  79.7902289   6.0382143  15.8909037  79.3295033   5.4099202  17.0201533
  79.2786965   5.5683205  16.2536495  78.9623086  10.2893038  18.4414379
  79.7896515  10.0178186  18.4972993  78.9830932  11.0853879  18.7978197
  79.0875936  10.3672792  18.5029561  83.7999265  24.0248175  14.5756850
  84.5891643  23.6737239  14.6958932  83.9742863  24.8384563  14.3133484
  83.9419547  24.0934032  14.5544718  73.5392575  17.4356900  11.6284639
  72.6980582  17.3360774  11.8363533  73.7482583  18.2052381  11.9798960
  73.4457268  17.5348944  11.7111954  77.3509240  15.3638300  10.8782237
  77.0472378  14.8094288  11.4792644  76.6488661  15.5430509  10.3910271
  77.2025450  15.3083082  10.8951942  75.4127591  22.5788020  15.5854334
  75.3047946  22.5890082  16.4516393  75.6223373  23.4042801  15.3959288
  75.4277702  22.7029095  15.6858426  73.4301383  19.8300663  13.0476272
  72.8389317  20.4710161  13.0179287  74.1922407  20.2538280  13.0207572
  73.4549644  19.9876501  13.0391419  73.8262006  10.9902660  13.7144290
  74.2863488  11.0641590  14.4519413  73.8718113  11.7883914  13.3644111
  73.9012561  11.1196807  13.7717046  75.4745356  11.6569355  18.2816317
  75.0830921  11.0102702  18.7172095  75.6431219  12.2480791  18.9010572
  75.4416266  11.6483623  18.4379023  89.5491805  19.6606432  14.0453550
  89.6074929  20.1093081  14.7913527  88.9158272  20.0705245  13.6083630
  89.4643100  19.7880167  14.0906099  83.1890900  25.2809974  10.4808296
  82.9910588  25.7700789   9.7864508  82.5678611  25.4851216  11.0592430
  83.0678464  25.3826512  10.4631520  80.2376754  12.6220344  10.7212460
  79.7636708  12.0962106  11.2317771  80.6094890  12.0749817  10.1527322
  80.2226643  12.4636341  10.7127607  70.6149784  14.6191851  16.0896006
  71.4775397  14.5187560  16.0033336  70.2841567  14.0386560  15.5281578
  70.6934980  14.5183478  15.9941412  86.5013484  17.6822720  12.1319241
  86.2611707  16.8429135  12.1361667  86.9805492  17.7622887  12.8560014
  86.5365668  17.5704120  12.2394043  88.5018671  14.4624177  10.0848500
  88.2628441  14.4220011   9.2469284  88.6652573  15.3095329  10.2114221
  88.4908975  14.5816262   9.9801982  85.1064702  18.8474126  16.0153545
  85.8298900  18.3946653  15.8364565  84.8414664  19.1278792  15.2325873
  85.1745975  18.8225095  15.8732260  73.9751570  13.4434300  12.7506424
  73.3504640  13.4552692  12.1432377  73.6397165  13.9194475  13.3997664
  73.8337062  13.5152817  12.7562993  70.6877245  21.5034760  14.1910188
  70.1577170  20.8127199  14.2405163  70.9602339  21.4944945  13.3622897
  70.6501968  21.4001892  14.0757604  80.8883491  18.9458005  14.1648560
  80.2740484  18.4016055  14.4597195  81.4050776  18.4322241  13.6854376
  80.8739153  18.7894414  14.1372788  80.1279788  20.0162275  11.8992859
  79.7007396  19.3911993  11.4658294  80.1204733  19.7337197  12.7251866
  80.0638929  19.8815055  11.9572686  73.2442315  15.0527448  14.9681293
  73.4035802  14.2970772  15.3733014  73.0635209  15.6018387  15.6222030
  73.2407674  15.0221262  15.1243999  81.1862618   7.2188683  15.5232082
  80.6903180   7.4152358  14.8323649  81.9431680   7.6181352  15.3520884
  81.2249443   7.3066417  15.3952219  78.4565498  10.8931029  12.1135393
  78.4807985  10.3591142  11.4248173  78.7076971  10.3848338  12.7760983
  78.4975417  10.7391933  12.1100037  76.9196433  19.1862588  19.5961431
  76.0692064  19.3234302  19.7319076  77.0824561  18.4526366  20.0409133
  76.8180297  19.0976689  19.6817031  76.1581183  16.1362357  13.7915036
  75.3273113  16.3036175  13.5850284  76.1032701  15.7598308  14.5763921
  76.0270598  16.1052089  13.8763564  73.9664967   9.6271250  19.4271447
  74.5917670   9.0833383  19.7000879  73.5115447   9.1466168  18.8579237
  73.9913227   9.4760732  19.3833040  87.5400015  17.8100537  14.5184095
  88.1317856  18.4497788  14.5502293  87.9759010  17.1123574  14.8076161
  87.6918447  17.8018888  14.5664927  79.3693405  22.2317910  15.1441989
  78.8618496  22.7853757  15.5882619  79.0720052  22.2926200  14.3260763
  79.2498290  22.3224221  15.0890445  81.5355588  10.5971229  13.9866652
  81.9610659  10.1443756  13.3750178  80.9212581  10.0431300  14.2631439
  81.5084233  10.4485206  13.9371677  81.9801186  26.1481167   3.0745932
  81.2630495  25.9742030   2.6093169  82.6307923  25.9133740   2.5421418
  81.9703036  26.0876960   2.9275150  84.5649157  15.0245756   6.8187237
  83.8940347  15.5675458   6.6900303  85.2588907  15.4940611   6.5768932
  84.5678024  15.1744027   6.7642765  78.6135891  27.1642468  12.0498995
  78.3901545  26.4061297  12.4183022  78.1245734  27.1940489  11.3279435
  78.5079340  27.0564692  11.9975736  84.7277284  11.4801640   9.7277610
  85.0804894  11.0531362  10.4023409  83.8692086  11.3952483   9.8578687
  84.6526729  11.4046380   9.8472621  82.7260550  14.7437008  13.6762453
  82.7058477  14.5620303  14.5297231  82.7739751  15.6149027  13.6522036
  82.7295191  14.8453546  13.7985747  80.6706880  21.3324200  19.6010929
  80.6302735  20.6873877  19.0156085  81.4830198  21.2760818  19.9136341
  80.7850034  21.2283167  19.5607878  77.2614348  27.3842926   9.5036080
  76.8474746  26.7217056   9.1139922  77.9461722  27.5320785   8.9831774
  77.3012719  27.3083584   9.3692577  80.6279642  26.5433011  10.2559697
  80.2295925  26.6535282   9.4880517  80.0130861  26.7515078  10.8386256
  80.4778531  26.5906579  10.2290996  76.3584589  14.9621137  16.1560687
  75.8463492  14.3542320  16.5145718  76.1864085  15.6777729  16.6234663
  76.2574226  14.9784436  16.2776910  71.2050303  13.4058712  18.8063049
  71.0352894  14.0660087  18.2611255  70.7616253  13.6165273  19.5275538
  71.1149637  13.5344694  18.8324678  80.2353659  12.8845381  18.5962942
  80.7925089  12.6559191  17.9641408  79.9114724  13.6451047  18.3198155
  80.2700069  12.9629218  18.4619439  68.1052368  16.3105578  14.0651538
  67.5579087  15.6406223  14.1832407  68.8944746  15.9435425  14.1295006
  68.1404552  16.1570564  14.0920239  77.9536776  15.9713035  19.5614949
  78.7048103  16.2864711  19.8754504  78.1459353  15.7692206  18.7348871
  78.0928190  15.9880416  19.4858345  82.5262919  16.7784103  10.4574952
  83.0216584  16.0607098  10.4178972  81.7162694  16.4754900  10.3429439
  82.4806812  16.6281749  10.4348678  84.5914737  19.5287790  13.1452081
  85.0169809  19.0062212  12.5922506  84.2271657  20.1268628  12.6240703
  84.6001340  19.5398017  12.9861090  74.2268817  27.8252008  11.9049426
  74.5415376  28.6388396  11.9127208  74.6362231  27.4402226  12.5731585
  74.3336915  27.8880710  12.0053518  81.1793337  23.2422055   9.4753238
  81.6504515  23.9562317   9.6443223  81.5153515  22.6420805  10.0113107
  81.2988452  23.2593519   9.5785614  83.2670321  24.8523368  21.6545310
  83.3767287  24.0631928  22.0102057  83.5961218  24.7629304  20.8519648
  83.3322727  24.7229221  21.5887701  78.0962832   8.0149525  16.4311333
  78.2290737   7.2180519  16.7592308  78.4807985   8.5415928  17.0109608
  78.1719161   7.9749442  16.5654836  81.8167283  23.0339989  16.2380931
  81.2688229  22.4097872  15.9700996  82.2780312  23.2234261  15.5225010
  81.8034493  22.9699039  16.0931362  84.6261147  11.1025343  13.6232123
  84.0424136  11.6034550  13.2109690  84.9465442  10.5954899  12.9896446
  84.5874323  11.1017178  13.4690630  75.7551279   8.0108700  14.6789227
  76.2995692   7.6699827  15.2693568  75.8088214   8.8694162  14.8210511
  75.8440398   8.0863960  14.7871100  71.5681837  21.7725116  11.5528034
  72.1726695  21.7320950  10.9241855  71.3609150  22.6196268  11.5832090
  71.6270735  21.8913119  11.4644151  81.3825609  24.0391061  12.7690272
  82.2023983  23.8954027  13.0306567  81.1019687  24.6637260  13.3106710
  81.4622353  24.1101413  12.8878211  66.8033120  20.7559734  11.4226958
  66.7057398  19.9456005  11.7317014  67.5861989  20.7351527  11.0373226
  66.9049256  20.6326824  11.4113821  91.0538945  30.7831564  10.4886079
  90.1976840  30.9440062  10.5395195  91.1006598  29.9123628  10.5091140
  90.9338056  30.6782366  10.4992145  85.4380084  40.3194282   6.2523310
  84.6862984  39.9409820   6.0239355  85.8866096  40.3512716   5.5042120
  85.3929751  40.2679889   6.1080812  94.3632661  37.0518090  20.0946535
  95.0699428  36.5570120  20.2233469  94.5520597  37.4927171  19.3649193
  94.4960567  37.0436440  20.0055580  90.8905044  40.7419651   1.6808857
  90.5556413  41.4196573   1.2453079  91.4031915  40.3524963   1.0925729
  90.9170625  40.7844230   1.5295649  90.4309336  42.6933920   7.6219969
  90.8148715  43.2620819   7.0824744  90.3668477  41.9683430   7.1425785
  90.4782763  42.6709384   7.4713831  93.8990766  32.8423608  13.1317730
  94.4446726  33.5208695  13.1911700  93.8407642  32.7011069  12.2719312
  93.9706680  32.9215610  13.0129791  87.0164841  40.3312674   8.5186083
  87.1175203  39.5213028   8.8283210  86.4206586  40.2369621   7.8885761
  86.9437379  40.1977702   8.4712321  86.8565580  45.2490263   9.9200939
  87.5003036  45.6903427  10.3097097  87.1821836  44.4443689   9.8331197
  86.9997409  45.1955458   9.9646416  80.2129885  36.3532961   8.1438416
  79.9780069  35.5200613   8.0370685  80.3515526  36.6337626   7.3299617
  80.1985547  36.2716464   8.0080771  82.5119972  28.5218691  11.0422724
  81.8925004  27.9311339  10.8732739  82.4103836  29.1130127  10.4087047
  82.4057648  28.5222774  10.9227714  87.5586160  38.2602238   5.2920800
  87.8802001  38.8007445   4.6882109  88.2058256  37.6899010   5.4243090
  87.7012215  38.2561413   5.2227836  89.6087868  30.2618233   5.3755187
  90.3068033  30.4406361   5.8676650  89.9240200  29.7388572   4.7525576
  89.7583205  30.2112005   5.3557197  82.2389105  32.0670973  13.2866293
  82.1147802  32.6533418  13.9216112  82.8907390  31.5731169  13.5878568
  82.3162755  32.0809777  13.4252222  89.7975803  36.6488678   5.3634979
  90.2369439  36.0405779   5.8089751  89.6480466  36.2696051   4.5920444
  89.8397269  36.5027149   5.3154146  87.2647446  35.2432690  12.5653804
  87.9096449  34.7505133  12.2464753  87.5049223  35.3857477  13.3919882
  87.3958031  35.1910132  12.6403337  89.8033538  38.0887596  12.2160697
  90.0856781  37.2939002  11.9947453  90.5319698  38.5668183  12.2365758
  89.9523101  38.0422193  12.1863712  87.7814732  25.6310630   9.4576462
  87.4518062  26.0821773   8.7880161  87.1059733  25.5526793  10.0049468
  87.6325168  25.6861765   9.4399685  93.3985140  35.0015859   2.3165748
  93.3136435  35.8576826   2.4615317  93.8869523  34.7260183   2.9847907
  93.4574037  35.0873181   2.4367829  99.7851626  37.1946958   9.1896527
  98.9549329  37.4057602   9.3529944  99.7360878  36.3684013   8.9138811
  99.6558361  37.1036564   9.1733893  86.2203181  35.5163870   2.6170951
  85.6360396  36.0213902   3.0236815  85.8173276  35.2906257   1.8767543
  86.0742485  35.5572119   2.5675976  81.7747210  41.2318631   9.4194623
  81.2914788  41.9569121   9.3954206  82.5870528  41.5294762   9.5304780
  81.8237957  41.3820985   9.4321902  87.8461364  40.0250812  12.0244437
  87.3288305  39.6658227  11.4205745  88.5435755  39.5012987  12.0350503
  87.8726945  39.8948500  11.9374696  91.5024956  40.4745626  17.9860610
  91.5908301  40.2871767  18.8338820  91.9314668  39.8283056  17.5865457
  91.5787058  40.3508634  18.0532361  89.0695415  39.7576786  16.9678272
  88.5066250  39.3449396  17.4917933  89.8316439  39.6829692  17.3871415
  89.0989864  39.6854187  17.1071273  85.9870686  23.6922918   4.9399409
  86.7416654  24.0601235   4.7016460  85.8098220  24.0662473   5.7078589
  86.0725164  23.8021106   5.0184298  84.6291407  41.7474807   9.5714902
  85.3311986  41.2326796   9.6287659  84.5488890  42.0748959  10.3761777
  84.7215167  41.7189034   9.6987695  99.2805584  29.8417359  12.9846949
  98.4434005  29.9119546  13.2194543  99.2493815  29.8441854  12.1121251
  99.1523867  29.8527586  12.8906497  85.6770313  31.9850394  18.6995317
  85.8490817  31.8756289  19.5480599  86.2139671  32.6304800  18.4626510
  85.7815317  32.0642396  18.7900414  84.3427750  26.0993237   1.6377522
  84.1603323  26.3165118   0.8118515  85.2053363  26.2132250   1.6936137
  84.4432340  26.1483135   1.5232010  83.9542182  37.9381159   9.0800510
  84.7931082  38.1704092   9.1274272  83.9853951  37.0685471   9.0107546
  84.0823900  37.8438106   9.0765155  84.5794885  38.3582035  13.3813816
  85.1193110  38.2153166  14.0517188  83.8964831  38.7578785  13.7497842
  84.5587039  38.3961705  13.5348238  94.0035770  34.0373035   8.5758840
  94.7593285  34.4704550   8.6147749  94.1098095  33.3877805   9.1493476
  94.1305941  34.0050519   8.6656866  97.0415941  37.8646312   9.3261243
  96.6051173  37.8683055  10.0820215  96.7078857  38.5451811   8.8940821
  96.9278561  37.9658768   9.3742076  91.6145015  39.9054645  20.6504394
  92.3985431  40.0185493  21.0160136  91.4141609  39.0795782  20.8463079
  91.7011040  39.8001365  20.7338780  79.9832030  34.5782325  13.5348237
  79.7170446  33.7621442  13.6939228  79.9970594  34.6235481  12.6643753
  79.9456753  34.4639230  13.4301719  96.9613424  24.9060140  11.5690671
  97.6039333  24.9758245  12.1552586  97.2136445  24.2389363  11.0670213
  97.0935556  24.8186489  11.5817950  83.8889777  29.3767410   0.1499996
  83.1747954  29.0905589   0.5622428  84.3733746  29.7164036   0.7906383
  83.8549141  29.3849059   0.3055630  84.7330637  28.1160704  16.1815245
  84.0402433  27.6457683  16.4275977  85.3490964  27.8899008  16.7556952
  84.7215167  28.0127835  16.3024398  91.7715408  41.8164747  14.2970849
  90.9730654  41.5764247  14.5544718  92.2201420  41.8679140  15.0437897
  91.7190019  41.7887138  14.4455773 100.1760287  34.5827232   8.2180880
 100.8376722  34.0217901   8.1176789  99.5351699  34.0879263   8.5433572
 100.1789155  34.4263641   8.2513221  91.0637095  37.8797364   0.5261804
  91.4788244  37.5482388  -0.1653701  90.2329025  37.6466266   0.3981940
  91.0025104  37.7968620   0.4052651  80.3925444  35.3641105  10.8159982
  80.2101017  35.3387991   9.9632274  81.1275113  35.8340043  10.8548890
  80.4739508  35.4302467  10.6957900  96.4625118  35.5992615   7.9592869
  96.6980707  35.7437814   7.1319720  96.6114682  36.3635023   8.3524383
  96.5190921  35.7331669   7.8956473  83.4571196  32.0826108  17.3242090
  84.1811168  32.0679138  17.8106985  83.5587332  32.7921463  16.8264059
  83.5789405  32.1850811  17.3220877  90.8316145  35.5625192  22.1891037
  90.0389126  35.8768704  22.3743657  90.9465072  35.7776661  21.3511822
  90.7311556  35.6409029  22.0929372  93.5047464  32.2859183   6.4786053
  93.5994318  33.0248477   6.9325679  92.8806308  31.8576659   6.9120618
  93.4256494  32.3320504   6.6094201  91.7599938  35.4645396  17.1276334
  92.3338799  34.8272640  17.2824898  91.6814742  35.4649478  16.2585992
  91.8333173  35.3710507  17.0222745  80.3596354  32.2434605  10.9659048
  80.9369857  32.1071056  11.6051294  79.6610416  31.7870390  11.2204633
  80.3417376  32.1556872  11.0981338  87.1163656  33.8968661   9.1797532
  86.8582901  33.0640396   9.1528831  87.1712139  34.1226274   8.3390032
  87.0863434  33.8066432   9.0517668  92.1964707  25.9997112   9.2801624
  91.4921033  25.5106297   9.4385543  92.2449681  26.0119586   8.4090069
  92.0994758  25.9286760   9.1740964  86.0898369  31.4506424   9.6662426
  85.5147960  31.6098592  10.3026387  85.7134045  30.8141833   9.2030877
  85.9501181  31.3804237   9.6916985  89.7571657  29.9229773  14.5254805
  89.3686090  29.4983991  13.8706996  89.0926356  30.1711923  15.0331831
  89.6018585  29.8968494  14.5042673  75.8355187  31.0946498   7.6806867
  75.9215439  30.7178367   8.4620397  76.4630985  30.7206944   7.2026825
  75.9411738  30.9831981   7.7252344  93.5798019  23.6204402  12.0378789
  93.9608531  22.9382573  12.4246663  92.7761303  23.3314004  11.8554453
  93.5174481  23.4771450  12.0682845  90.8610596  34.1528377   2.7231612
  91.6751234  34.4443270   2.6114383  90.7969737  33.4988240   2.1489905
  90.9713335  34.0993572   2.6220449  97.0820086  36.8354374  17.1361187
  96.8458723  36.0042438  17.0173248  97.7263315  36.7839981  17.7216031
  97.1414756  36.7052062  17.2047081  86.7318504  37.6249895   7.8503924
  87.3692451  37.3861642   8.3955717  87.1573575  37.8287054   7.1157084
  86.8894670  37.6200905   7.8221081  81.4231146  39.8638231  11.7338228
  81.4635291  40.1353082  10.9058007  81.9825670  40.3880139  12.1496015
  81.5114492  39.9813986  11.6730116  87.3721319  32.8452185   2.1878813
  87.7566472  32.6259891   2.9395358  87.1232939  33.6715130   2.3179889
  87.3923391  32.9350331   2.3179890  87.5389859  26.1258600  21.9041397
  87.2243300  26.8958163  21.6410960  87.2179792  25.5628856  21.3193624
  87.4448778  26.1568869  21.7782747  98.1056506  36.6198822  13.1989482
  97.8002323  37.3526879  13.5602797  97.3862722  36.2136752  12.9182268
  97.9543849  36.6680555  13.2102619  89.1139976  38.1022318   9.5297710
  89.1878984  37.9397489  10.3839560  89.9309482  38.2912507   9.2858192
  89.2456334  38.1059060   9.6195736 103.8058298  33.2591823  12.5257826
 103.7382799  33.2787782  11.6560413 103.7913961  34.1022150  12.7513497
 103.7937055  33.3865558  12.4310303  82.8745732  38.4480180   6.5592153
  82.0483850  38.6941918   6.4326432  82.9357724  38.3692261   7.4254212
  82.7619899  38.4725129   6.6681098  85.0921756  24.5149121   7.5187594
  84.2244182  24.5871721   7.5845203  85.3796960  25.3171200   7.7075569
  85.0061504  24.6443268   7.5562360  94.2154645  24.6626981  15.8498915
  94.9608237  24.4736791  15.4362341  93.7991950  25.1885219  15.2912772
  94.2639619  24.7129126  15.7063489  87.6544561  41.0657061   4.2611183
  87.9442860  40.6746042   3.5370410  88.3848042  41.2473765   4.7016459
  87.8051446  41.0350874   4.2193990 101.5916916  32.0336209  10.8004420
 102.1424837  31.4004278  11.0401513 101.5761031  32.5651602  11.4919925
 101.6702112  32.0185157  10.9383279  88.2439307  35.8674806  15.3464314
  87.7451000  36.5790574  15.4249202  89.0539531  36.1875473  15.3082476
  88.2895413  36.0201655  15.3520882  85.5950477  43.0424443   7.3271333
  85.3750772  42.7521798   8.1198000  85.3744999  42.3839398   6.7989245
  85.5298071  42.9024151   7.3660242  84.5067424  35.1297760   9.5927035
  84.2180673  34.5035231  10.1272762  85.3750772  35.0718047   9.6591715
  84.5927676  35.0285304   9.6817989  95.2945322  30.2732543   9.9109017
  94.9510088  29.5522878  10.2616266  95.3938365  30.0646394   9.0687375
  95.2587365  30.1356746   9.8380697  87.7618433  44.4153833   6.1102026
  88.4142491  43.8830275   6.3393052  87.0644041  44.0622485   6.4969900
  87.7549151  44.2843356   6.2014193  84.7099698  36.7693011   5.5169400
  85.4645666  37.1506050   5.7304862  84.1170310  37.2204154   5.9716096
  84.7336411  36.8921838   5.6152278  95.7558351  36.7358247   5.4533005
  96.3216384  37.3951457   5.3691548  95.1086255  37.0807945   5.9249407
  95.7437108  36.8840188   5.5105761  87.1706365  28.7255851  20.6426612
  86.3606140  29.0313631  20.5316454  87.6481051  29.4461433  20.7579196
  87.1209843  28.8770452  20.6433683  86.0297924  37.9401572  10.8909515
  85.5078678  38.0801864  11.5761380  86.4171944  37.1812236  11.0811633
  86.0101625  37.8487096  11.0210592  83.0189108  27.9907381   4.9604470
  82.7313904  27.6208651   4.2236417  83.7059576  28.4602236   4.6988175
  83.0778006  28.0054350   4.8119546  92.2264929  39.6797031   4.8770084
  91.9851605  38.9464892   4.4697149  92.4066262  40.2283888   4.2236417
  92.2172553  39.6519422   4.7200307  87.4564250  34.9705591   6.2891006
  87.2607032  35.5780325   5.6951309  87.6798595  34.2773535   5.8082680
  87.4598891  34.9583116   6.1307087  85.8542780  31.8560329   6.4071875
  86.5765432  32.0201487   5.9475681  85.3750773  32.5769994   6.3011214
  85.8906510  31.9858558   6.3237489  93.8136287  28.1924128  11.7868560
  92.9747388  28.2185407  11.5506823  93.8840655  28.8394863  12.3673906
  93.7004681  28.2920253  11.8377676  83.5050396  34.2618401  15.5126014
  84.0171493  34.5402655  14.8634774  83.2186739  35.0007695  15.8788828
  83.5385260  34.4120755  15.4715893  97.6893811  33.3992114   9.0729801
  97.6027786  33.5547540   9.9264580  97.2344291  34.0430190   8.6989206
  97.6097068  33.5167870   9.1436908  80.5917303  28.7688593   5.8089751
  80.6933439  29.5714755   6.1370726  81.3873190  28.5675929   5.5112832
  80.7245208  28.8574492   5.8125106  87.0234122  26.3544790  15.5727056
  86.8317319  26.3699924  16.4226480  87.8732718  26.5508464  15.5493711
  87.1209844  26.3859141  15.6950351  81.4081035  28.8835771  13.5510873
  81.2666527  28.0319712  13.6755381  81.6921598  28.9264432  12.7273079
  81.4288881  28.7635521  13.4478497  91.5619627  30.7202862   7.6955361
  91.3154342  30.6398612   8.5292150  91.8904750  29.9356329   7.5017888
  91.5740871  30.5929127   7.7902884  95.4567676  37.4286221  11.4842142
  95.3182035  38.1267267  11.9890884  94.6767674  37.2734877  11.1278324
  95.3210903  37.5086388  11.5068416  93.7945761  33.7282596  17.7364524
  93.7893800  32.8562413  17.7406950  94.5006755  33.9270765  17.2633979
  93.8990765  33.6286470  17.6671559  87.5216655  33.4559580  17.1078344
  87.6660030  34.0360788  16.4721454  87.8692303  33.8335877  17.8128199
  87.5944116  33.5980284  17.1177339  89.6936572  32.6549748  14.8903475
  88.9459886  32.8480763  14.4851754  89.8478097  31.8294968  14.6527597
  89.6059000  32.5614860  14.7948881  86.5944410  41.6462352  13.9739371
  86.7433973  41.0865268  13.3212775  87.3744412  41.7254354  14.3571890
  86.7318503  41.5747917  13.9336320  89.1197710  41.8176995  15.2523862
  89.0441381  41.1485805  15.8074650  89.0487569  42.5194783  15.7664528
  89.0978317  41.8221902  15.4100710  89.9338349  26.5500299  15.7798879
  90.3910963  27.2824274  15.9071671  90.0094678  26.1266764  16.5386135
  90.0129319  26.5957537  15.9099956  82.1771340  26.7966119  16.8688323
  81.6413530  26.1846477  17.1849090  82.2389105  27.3714255  17.5221990
  82.1066973  26.7913047  17.0123750  89.7767957  40.3377994   6.0847468
  90.5417848  40.0687637   5.7630132  89.6746047  39.8528004   6.8017530
  89.8749453  40.2267558   6.1427295  87.8120727  28.5402403  12.6240703
  87.0216802  28.3593863  12.9458039  88.2081350  27.7629356  12.6070998
  87.7537603  28.3989864  12.6693252  93.1964413  36.1744833  10.3500149
  92.5209415  35.9430066  10.8513536  93.2056789  35.5666016   9.7242254
  93.0982918  36.0503758  10.3316301  90.3258557  31.0162662  17.1064202
  90.2617698  31.8772619  16.9784339  90.4655745  30.6994655  16.3059753
  90.3374027  31.0962829  16.9692415  95.1981148  39.0309966   2.5810327
  95.2800985  39.8376952   2.2571778  95.6830890  39.0505925   3.3051101
  95.2818306  39.1530628   2.6397226  89.0077651  33.7094802  11.2480405
  88.5839900  33.9099301  10.5119423  88.8322506  32.8623650  11.3604705
  88.9188532  33.6143583  11.1554095  88.5089345  45.2245315  13.7101862
  88.9985275  44.5256104  13.5277527  87.9373577  44.9269185  14.2977920
  88.4973874  45.0771538  13.7702903  84.2960096  34.2046853   6.6808378
  84.4524715  34.1393656   7.5364370  84.6360689  34.9795406   6.4687057
  84.3693331  34.3096051   6.7762972  90.8339241  33.5804737   5.5501741
  91.3754786  33.0775118   6.0140361  91.1485800  33.5269931   4.7391226
  90.9603638  33.4984158   5.4985553  94.7056348  37.7907384  22.6628653
  95.5191213  37.5192533  22.8233785  94.5451314  37.4914924  21.8588849
  94.8026297  37.7062310  22.5674059  89.0025690  38.9722088   2.8341769
  89.0718511  38.1136627   2.9734769  89.7814145  39.1893969   2.5060793
  89.1278540  38.8774952   2.8058926  91.9828510  28.4741041  15.6024041
  92.1970480  27.8351955  15.0487395  91.3662409  28.9186865  15.1731903
  91.9233839  28.4451185  15.4574472  93.3933178  41.3959789   7.0478262
  93.0012970  41.0926505   6.3301128  93.5486250  42.2328879   6.8583216
  93.3586768  41.4743626   6.9134759  80.8694358  31.3881804   6.9969145
  81.2493322  31.8066348   6.3329412  80.2949722  31.9695259   7.3037988
  80.8405682  31.5359662   6.9445886  94.1467598  30.0830106  16.5407348
  93.3344280  29.7755997  16.6220521  94.6057533  29.6029106  17.1050061
  94.0947983  29.9666599  16.6361943  93.5572853  37.9609778   6.9884293
  93.1987507  38.1324421   7.7648325  93.0711563  38.4222984   6.4312291
  93.4331550  38.0548749   7.0209562  91.3743239  21.5840977  10.5911384
  90.5036797  21.5579698  10.5444694  91.6283580  21.4118169   9.7737230
  91.2836799  21.5551120  10.4631521  88.3461218  33.6408944  -0.4715473
  88.6353743  34.4173826  -0.1971899  88.4333017  33.1297675   0.2299026
  88.4015474  33.6800862  -0.3272975  91.2421106  31.4890178  21.3236051
  91.7120737  32.1132294  21.7103925  91.2882986  30.8207153  21.8829265
  91.3188981  31.4824858  21.4636122  88.3992379  23.5947205  12.0484854
  87.8830868  22.9027397  12.1736433  87.8386308  24.2617982  11.9947453
  88.2398892  23.5910463  12.0590920  90.4684613  24.1340165  13.8777707
  90.0816366  24.1589197  14.6591237  89.9817550  23.5681844  13.4252224
  90.3397122  24.0535916  13.9265611  94.7177592  38.8513674  17.9351494
  95.3557313  38.3573870  17.6013950  94.0751684  38.7791075  17.3503720
  94.7171819  38.7672683  17.7993849  96.4434592  30.7002820  12.5017409
  96.0162200  30.6129169  11.7465509  95.8060645  30.8080596  13.0872253
  96.2864199  30.7035480  12.4762851  90.1341754  21.0207151  16.1687967
  90.7634872  21.5567451  15.8909037  90.3027617  20.9284510  17.0201533
  90.2519549  21.0868513  16.2536495  89.9355669  25.8078345  18.4414379
  90.7629099  25.5363494  18.4972993  89.9563515  26.6039187  18.7978197
  90.0608519  25.8858100  18.5029561  94.7731849  39.5433483  14.5756850
  95.5624227  39.1922547  14.6958932  94.9475446  40.3569871  14.3133484
  94.9152130  39.6119340  14.5544718  84.5125159  32.9542208  11.6284639
  83.6713166  32.8546082  11.8363533  84.7215167  33.7237689  11.9798960
  84.4189852  33.0534252  11.7111954  81.9900726  30.5761745   9.4569390
  81.5957424  30.6504757   8.6819499  81.4340843  30.9619692  10.0077752
  81.8503538  30.6443520   9.4237050  93.6265673  23.5543039   9.1373269
  93.8315266  23.4865347   9.9830266  93.2992097  24.3601860   9.0694446
  93.6080921  23.6628980   9.2532924  88.3241824  30.8823607  10.8782237
  88.0204961  30.3279596  11.4792644  87.6221245  31.0615817  10.3910271
  88.1758034  30.8268390  10.8951942  87.3807921  28.1924127   5.4426939
  87.6567655  27.4743040   5.0304506  87.9806590  28.7909047   5.2348045
  87.5101186  28.1744498   5.3507700  86.3860175  38.0973328  15.5854334
  86.2780530  38.1075390  16.4516393  86.5955956  38.9228109  15.3959288
  86.4010286  38.2214403  15.6858426  84.4033967  35.3485971  13.0476272
  83.8121900  35.9895469  13.0179287  85.1654990  35.7723588  13.0207572
  84.4282228  35.5061809  13.0391419  84.7994590  26.5087968  13.7144290
  85.2596071  26.5826898  14.4519413  84.8450696  27.3069222  13.3644111
  84.8745145  26.6382115  13.7717046  86.4477939  27.1754663  18.2816317
  86.0563505  26.5288010  18.7172095  86.6163802  27.7666098  18.9010572
  86.4148850  27.1668931  18.4379023 100.5224388  35.1791740  14.0453550
 100.5807512  35.6278389  14.7913527  99.8890856  35.5890553  13.6083630
 100.4375684  35.3065475  14.0906099  94.1623483  40.7995282  10.4808296
  93.9643172  41.2886097   9.7864508  93.5411194  41.0036524  11.0592430
  94.0411048  40.9011820  10.4631520  88.2231462  32.5680179   4.8218541
  88.9673506  32.9554455   5.0601491  88.3692158  31.7237604   4.9859029
  88.3542047  32.5010652   4.8812510  90.1411037  24.3630438   9.8550402
  89.2947082  24.5353246   9.7291752  90.1382169  23.5579782  10.1916231
  90.0158187  24.2691467   9.8861529  91.2109337  28.1405652  10.7212460
  90.7369292  27.6147414  11.2317771  91.5827473  27.5935125  10.1527322
  91.1959226  27.9821649  10.7127607  81.5882368  30.1377159  16.0896006
  82.4507981  30.0372868  16.0033336  81.2574151  29.5571868  15.5281578
  81.6667564  30.0368786  15.9941412  97.4746068  33.2008028  12.1319241
  97.2344291  32.3614443  12.1361667  97.9538075  33.2808195  12.8560014
  97.5098252  33.0889428  12.2394043  99.4751255  29.9809485  10.0848500
  99.2361025  29.9405319   9.2469284  99.6385156  30.8280637  10.2114221
  99.4641558  30.1001570   9.9801982  96.0797285  34.3659434  16.0153545
  96.8031484  33.9131961  15.8364565  95.8147247  34.6464100  15.2325873
  96.1478558  34.3410403  15.8732260  84.9484153  28.9619608  12.7506424
  84.3237224  28.9738000  12.1432377  84.6129748  29.4379783  13.3997664
  84.8069645  29.0338125  12.7562993  81.6609829  37.0220068  14.1910188
  81.1309754  36.3312507  14.2405163  81.9334922  37.0130253  13.3622897
  81.6234551  36.9187200  14.0757604  92.6929920  37.6045770   2.9147871
  93.4164118  38.0703883   2.7712444  92.2530511  37.6719380   2.1645468
  92.7345612  37.6829607   2.7832652  91.8616075  34.4643313  14.1648560
  91.2473068  33.9201363  14.4597195  92.3783360  33.9507549  13.6854376
  91.8471737  34.3079722  14.1372788  91.1012372  35.5347583  11.8992859
  90.6739980  34.9097301  11.4658294  91.0937316  35.2522505  12.7251866
  91.0371513  35.4000363  11.9572686  84.2174899  30.5712756  14.9681293
  84.3768386  29.8156080  15.3733014  84.0367792  31.1203695  15.6222030
  84.2140258  30.5406570  15.1243999  92.1595202  22.7373991  15.5232082
  91.6635763  22.9337666  14.8323649  92.9164264  23.1366660  15.3520884
  92.1982027  22.8251725  15.3952219  89.4298081  26.4116337  12.1135393
  89.4540569  25.8776450  11.4248173  89.6809555  25.9033646  12.7760983
  89.4708000  26.2577241  12.1100037  76.9405671  33.6947832  11.5478537
  76.8349120  33.6494677  10.6830621  76.1905891  34.0401613  11.8292822
  76.8141274  33.7388740  11.4615866  85.7099404  25.1387156  11.4941137
  85.7497775  25.6396362  12.2075844  84.8849068  25.2297549  11.2247060
  85.5938930  25.2268972  11.5591675  87.8929017  34.7047895  19.5961431
  87.0424647  34.8419610  19.7319076  88.0557144  33.9711674  20.0409133
  87.7912880  34.6161997  19.6817031  87.1313767  31.6547665  13.7915036
  86.3005697  31.8221483  13.5850284  87.0765284  31.2783616  14.5763921
  87.0003182  31.6237397  13.8763564  84.9397550  25.1456558  19.4271447
  85.5650254  24.6018691  19.7000879  84.4848030  24.6651476  18.8579237
  84.9645811  24.9946040  19.3833040  85.5049811  29.9303257   4.3205154
  85.6452772  30.4275721   5.0233795  86.0032344  29.2289551   4.4619367
  85.5990892  29.9005236   4.4456733  85.5350033  30.7970368   1.6497730
  86.1695113  31.3930793   1.5847192  85.6175644  30.4973826   2.4643601
  85.6406584  30.8411276   1.7600817  98.5132599  33.3285845  14.5184095
  99.1050439  33.9683096  14.5502293  98.9491594  32.6308882  14.8076161
  98.6651030  33.3204196  14.5664927  90.3425989  37.7503218  15.1441989
  89.8351080  38.3039064  15.5882619  90.0452635  37.8111508  14.3260763
  90.2230874  37.8409529  15.0890445  92.5088171  26.1156537  13.9866652
  92.9343243  25.6629064  13.3750178  91.8945164  25.5616608  14.2631439
  92.4816817  25.9670513  13.9371677  82.0403021  32.9938209   4.9187276
  82.5495251  33.5902716   5.2998582  82.5137293  32.7264182   4.2363696
  82.1846397  33.0424024   4.8741799  92.9533769  41.6666475   3.0745932
  92.2363079  41.4927338   2.6093169  93.6040507  41.4319048   2.5421418
  92.9435620  41.6062268   2.9275150  90.9482394  22.5871637   7.3957229
  90.3050712  22.4369283   7.9642367  90.6081801  22.3413982   6.6306333
  90.8027471  22.5283760   7.3660244  95.5381740  30.5431064   6.8187237
  94.8672930  31.0860766   6.6900303  96.2321491  31.0125919   6.5768932
  95.5410608  30.6929335   6.7642765  89.5868474  42.6827776  12.0498995
  89.3634129  41.9246605  12.4183022  89.0978317  42.7125797  11.3279435
  89.4811923  42.5750000  11.9975736  95.7009868  26.9986947   9.7277610
  96.0537478  26.5716670  10.4023409  94.8424669  26.9137791   9.8578687
  95.6259313  26.9231688   9.8472621  84.3993553  29.6294467   7.7860457
  83.6805542  30.0458600   8.0533320  84.7705915  30.1948706   7.2352095
  84.3485485  29.7743749   7.7443264  93.6993134  30.2622316  13.6762453
  93.6791061  30.0805611  14.5297231  93.7472334  31.1334335  13.6522036
  93.7027775  30.3638854  13.7985747  91.6439464  36.8509508  19.6010929
  91.6035318  36.2059185  19.0156085  92.4562782  36.7946125  19.9136341
  91.7582617  36.7468475  19.5607878  88.2346931  42.9028234   9.5036080
  87.8207330  42.2402364   9.1139922  88.9194305  43.0506093   8.9831774
  88.2745303  42.8268892   9.3692577  91.6012225  42.0618319  10.2559697
  91.2028508  42.1720590   9.4880517  90.9863445  42.2700386  10.8386256
  91.4511115  42.1091887  10.2290996  93.0497944  28.6271972   6.5535587
  92.8211637  28.6504673   5.7113945  93.3096020  27.8029439   6.6730597
  93.0544132  28.5088052   6.4460784  87.3317172  30.4806445  16.1560687
  86.8196075  29.8727628  16.5145718  87.1596668  31.1963037  16.6234663
  87.2306809  30.4969744  16.2776910  82.1782887  28.9244020  18.8063049
  82.0085477  29.5845395  18.2611255  81.7348837  29.1350581  19.5275538
  82.0882221  29.0530002  18.8324678  86.1042706  27.1648518   7.8489782
  86.5800073  27.5265598   7.2139963  85.6031306  27.8204985   8.1289925
  86.1008065  27.3142707   7.7966523  91.2086243  28.4030689  18.5962942
  91.7657673  28.1744499  17.9641408  90.8847308  29.1636355  18.3198155
  91.2432653  28.4814526  18.4619439  79.0784951  31.8290886  14.0651538
  78.5311671  31.1591531  14.1832407  79.8677330  31.4620733  14.1295006
  79.1137135  31.6755872  14.0920239  88.9269360  31.4898343  19.5614949
  89.6780687  31.8050019  19.8754504  89.1191936  31.2877513  18.7348871
  89.0660774  31.5065724  19.4858345  77.8371921  31.0411693  11.2197561
  77.6593682  30.5888302  11.9452477  77.5490943  31.8437855  11.4036039
  77.7684874  31.0934251  11.3541064  93.4995502  32.2969411  10.4574952
  93.9949167  31.5792406  10.4178972  92.6895278  31.9940208  10.3429439
  93.4539395  32.1467057  10.4348678  88.9454114  36.1467224   2.6071956
  88.1365436  35.8233897   2.5605266  89.4529022  35.4400446   2.5400205
  88.9003780  35.9948540   2.5902251  79.5744391  33.5739417   8.3319321
  78.7089910  33.5625108   8.2202092  79.6743207  33.3869640   9.1790460
  79.4618558  33.5445478   8.4408265  95.5647321  35.0473098  13.1452081
  95.9902392  34.5247520  12.5922506  95.2004241  35.6453936  12.6240703
  95.5733924  35.0583325  12.9861090  85.2001401  43.3437316  11.9049426
  85.5147960  44.1573704  11.9127208  85.6094814  42.9587534  12.5731585
  85.3069499  43.4066018  12.0053518  92.1525920  38.7607362   9.4753238
  92.6237099  39.4747625   9.6443223  92.4886099  38.1606113  10.0113107
  92.2721035  38.7778827   9.5785614  94.2402905  40.3708676  21.6545310
  94.3499870  39.5817236  22.0102057  94.5693802  40.2814612  20.8519648
  94.3055311  40.2414529  21.5887701  89.0695415  23.5334833  16.4311333
  89.2023321  22.7365826  16.7592308  89.4540568  24.0601236  17.0109608
  89.1451744  23.4934750  16.5654836  92.7899867  38.5525297  16.2380931
  92.2420813  37.9283180  15.9700996  93.2512895  38.7419569  15.5225010
  92.7767076  38.4884347  16.0931362  92.1427771  20.4565159  13.0292426
  91.3373734  20.3462889  13.3460264  92.0134506  20.5577615  12.1722292
  92.0047903  20.4548829  12.9500466  95.5993731  26.6210651  13.6232123
  95.0156720  27.1219858  13.2109690  95.9198025  26.1140207  12.9896446
  95.5606906  26.6202486  13.4690630  88.1388530  25.5351246   3.8990798
  88.9604225  25.7049559   3.6572493  87.6758181  25.6898507   3.1757095
  88.1919692  25.5832979   3.7562442  86.7283862  23.5294008  14.6789227
  87.2728275  23.1885135  15.2693568  86.7820798  24.3879470  14.8210511
  86.8172982  23.6049267  14.7871100  82.5414421  37.2910424  11.5528034
  83.1459278  37.2506258  10.9241855  82.3341733  38.1381576  11.5832090
  82.6003318  37.4098427  11.4644151  92.3558193  39.5576369  12.7690272
  93.1756567  39.4139335  13.0306567  92.0752271  40.1822568  13.3106710
  92.4354936  39.6286721  12.8878211  77.7765703  36.2745042  11.4226958
  77.6789981  35.4641313  11.7317014  78.5594573  36.2536835  11.0373226
  77.8781840  36.1512132  11.4113821 102.0271528  46.3016872  10.4886079
 101.1709424  46.4625370  10.5395195 102.0739182  45.4308936  10.5091140
 101.9070640  46.1967674  10.4992145  96.4112668  55.8379590   6.2523310
  95.6595567  55.4595128   6.0239355  96.8598680  55.8698024   5.5042120
  96.3662335  55.7865197   6.1080812 105.3365245  52.5703398  20.0946535
 106.0432012  52.0755428  20.2233469 105.5253180  53.0112479  19.3649193
 105.4693150  52.5621748  20.0055580 101.8637628  56.2604959   1.6808857
 101.5288996  56.9381881   1.2453079 102.3764498  55.8710271   1.0925729
 101.8903209  56.3029538   1.5295649 101.4041919  58.2119228   7.6219969
 101.7881298  58.7806127   7.0824744 101.3401060  57.4868738   7.1425785
 101.4515346  58.1894692   7.4713831 104.8723349  48.3608916  13.1317730
 105.4179309  49.0394003  13.1911700 104.8140226  48.2196377  12.2719312
 104.9439264  48.4400918  13.0129791  97.9897424  55.8497982   8.5186083
  98.0907787  55.0398336   8.8283210  97.3939169  55.7554928   7.8885761
  97.9169963  55.7163010   8.4712321  97.8298164  60.7675571   9.9200939
  98.4735619  61.2088735  10.3097097  98.1554419  59.9628997   9.8331197
  97.9729992  60.7140766   9.9646416  91.1862468  51.8718269   8.1438416
  90.9512653  51.0385921   8.0370685  91.3248109  52.1522934   7.3299617
  91.1718131  51.7901772   8.0080771  93.4852556  44.0403999  11.0422724
  92.8657587  43.4496646  10.8732739  93.3836419  44.6315434  10.4087047
  93.3790231  44.0408082  10.9227714  98.5318743  53.7787546   5.2920800
  98.8534584  54.3192753   4.6882109  99.1790840  53.2084317   5.4243090
  98.6744799  53.7746721   5.2227836 100.5820451  45.7803541   5.3755187
 101.2800616  45.9591669   5.8676650 100.8972784  45.2573880   4.7525576
 100.7315789  45.7297313   5.3557197  93.2121689  47.5856281  13.2866293
  93.0880386  48.1718726  13.9216112  93.8639973  47.0916477  13.5878568
  93.2895338  47.5995085  13.4252222 100.7708387  52.1673986   5.3634979
 101.2102022  51.5591087   5.8089751 100.6213050  51.7881359   4.5920444
 100.8129853  52.0212457   5.3154146  98.2380030  50.7617998  12.5653804
  98.8829032  50.2690441  12.2464753  98.4781807  50.9042784  13.3919882
  98.3690615  50.7095440  12.6403337 100.7766121  53.6072904  12.2160697
 101.0589364  52.8124309  11.9947453 101.5052282  54.0853491  12.2365758
 100.9255685  53.5607501  12.1863712  98.7547315  41.1495938   9.4576462
  98.4250645  41.6007081   8.7880161  98.0792317  41.0712101  10.0049468
  98.6057751  41.2047073   9.4399685 104.3717723  50.5201167   2.3165748
 104.2869019  51.3762134   2.4615317 104.8602107  50.2445491   2.9847907
 104.4306621  50.6058489   2.4367829 110.7584210  52.7132266   9.1896527
 109.9281913  52.9242910   9.3529944 110.7093462  51.8869321   8.9138811
 110.6290945  52.6221872   9.1733893  97.1935764  51.0349178   2.6170951
  96.6092980  51.5399210   3.0236815  96.7905860  50.8091565   1.8767543
  97.0475068  51.0757427   2.5675976  92.7479793  56.7503939   9.4194623
  92.2647371  57.4754429   9.3954206  93.5603111  57.0480069   9.5304780
  92.7970541  56.9006293   9.4321902  98.8193947  55.5436120  12.0244437
  98.3020889  55.1843535  11.4205745  99.5168338  55.0198295  12.0350503
  98.8459528  55.4133808  11.9374696 102.4757539  55.9930934  17.9860610
 102.5640885  55.8057075  18.8338820 102.9047252  55.3468364  17.5865457
 102.5519641  55.8693942  18.0532361 100.0427999  55.2762094  16.9678272
  99.4798834  54.8634704  17.4917933 100.8049022  55.2015000  17.3871415
 100.0722448  55.2039495  17.1071273  96.9603269  39.2108226   4.9399409
  97.7149237  39.5786543   4.7016460  96.7830804  39.5847780   5.7078589
  97.0457748  39.3206414   5.0184298  95.6023990  57.2660115   9.5714902
  96.3044570  56.7512104   9.6287659  95.5221473  57.5934267  10.3761777
  95.6947751  57.2374342   9.6987695 110.2538168  45.3602667  12.9846949
 109.4166589  45.4304854  13.2194543 110.2226399  45.3627161  12.1121251
 110.1256450  45.3712894  12.8906497  96.6502897  47.5035702  18.6995317
  96.8223401  47.3941597  19.5480599  97.1872254  48.1490108  18.4626510
  96.7547901  47.5827704  18.7900414  95.3160334  41.6178545   1.6377522
  95.1335907  41.8350426   0.8118515  96.1785947  41.7317558   1.6936137
  95.4164923  41.6668443   1.5232010  94.9274766  53.4566467   9.0800510
  95.7663665  53.6889400   9.1274272  94.9586535  52.5870779   9.0107546
  95.0556483  53.3623414   9.0765155  95.5527469  53.8767342  13.3813816
  96.0925694  53.7338474  14.0517188  94.8697415  54.2764093  13.7497842
  95.5319623  53.9147013  13.5348238 104.9768354  49.5558343   8.5758840
 105.7325869  49.9889857   8.6147749 105.0830678  48.9063113   9.1493476
 105.1038524  49.5235827   8.6656866 108.0148525  53.3831620   9.3261243
 107.5783757  53.3868363  10.0820215 107.6811440  54.0637119   8.8940821
 107.9011145  53.4844076   9.3742076 102.5877598  55.4239953  20.6504394
 103.3718015  55.5370801  21.0160136 102.3874193  54.5981090  20.8463079
 102.6743624  55.3186673  20.7338780  90.9564614  50.0967633  13.5348237
  90.6903029  49.2806750  13.6939228  90.9703178  50.1420789  12.6643753
  90.9189336  49.9824538  13.4301719 107.9346008  40.4245448  11.5690671
 108.5771916  40.4943553  12.1552586 108.1869028  39.7574671  11.0670213
 108.0668140  40.3371797  11.5817950  94.8622361  44.8952718   0.1499996
  94.1480538  44.6090897   0.5622428  95.3466330  45.2349344   0.7906383
  94.8281724  44.9034367   0.3055630  95.7063220  43.6346012  16.1815245
  95.0135017  43.1642991  16.4275977  96.3223548  43.4084316  16.7556952
  95.6947750  43.5313143  16.3024398 102.7447992  57.3350055  14.2970849
 101.9463237  57.0949555  14.5544718 103.1934003  57.3864448  15.0437897
 102.6922603  57.3072446  14.4455773 111.1492871  50.1012540   8.2180880
 111.8109305  49.5403209   8.1176789 110.5084283  49.6064571   8.5433572
 111.1521739  49.9448949   8.2513221 102.0369679  53.3982672   0.5261804
 102.4520827  53.0667696  -0.1653701 101.2061608  53.1651574   0.3981940
 101.9757687  53.3153928   0.4052651  91.3658028  50.8826413  10.8159982
  91.1833601  50.8573299   9.9632274  92.1007696  51.3525351  10.8548890
  91.4472091  50.9487775  10.6957900 107.4357702  51.1177923   7.9592869
 107.6713291  51.2623122   7.1319720 107.5847265  51.8820331   8.3524383
 107.4923505  51.2516977   7.8956473  94.4303779  47.6011416  17.3242090
  95.1543752  47.5864446  17.8106985  94.5319916  48.3106771  16.8264059
  94.5521988  47.7036119  17.3220877 101.8048729  51.0810500  22.1891037
 101.0121709  51.3954012  22.3743657 101.9197656  51.2961969  21.3511822
 101.7044139  51.1594337  22.0929372 104.4780048  47.8044491   6.4786053
 104.5726902  48.5433785   6.9325679 103.8538891  47.3761967   6.9120618
 104.3989078  47.8505812   6.6094201 102.7332521  50.9830704  17.1276334
 103.3071383  50.3457948  17.2824898 102.6547325  50.9834786  16.2585992
 102.8065756  50.8895815  17.0222745  91.3328938  47.7619913  10.9659048
  91.9102440  47.6256364  11.6051294  90.6343000  47.3055698  11.2204633
  91.3149959  47.6742180  11.0981338  98.0896240  49.4153969   9.1797532
  97.8315484  48.5825704   9.1528831  98.1444723  49.6411582   8.3390032
  98.0596018  49.3251740   9.0517668 103.1697290  41.5182420   9.2801624
 102.4653617  41.0291605   9.4385543 103.2182264  41.5304894   8.4090069
 103.0727342  41.4472068   9.1740964  97.0630952  46.9691731   9.6662426
  96.4880543  47.1283900  10.3026387  96.6866628  46.3327141   9.2030877
  96.9233765  46.8989544   9.6916985 100.7304241  45.4415081  14.5254805
 100.3418674  45.0169299  13.8706996 100.0658939  45.6897230  15.0331831
 100.5751169  45.4153802  14.5042673  86.8087771  46.6131806   7.6806867
  86.8948023  46.2363675   8.4620397  87.4363569  46.2392252   7.2026825
  86.9144322  46.5017288   7.7252344 104.5530602  39.1389710  12.0378789
 104.9341114  38.4567881  12.4246663 103.7493887  38.8499312  11.8554453
 104.4907064  38.9956758  12.0682845 101.8343179  49.6713685   2.7231612
 102.6483818  49.9628578   2.6114383 101.7702320  49.0173548   2.1489905
 101.9445918  49.6178880   2.6220449 108.0552669  52.3539682  17.1361187
 107.8191307  51.5227746  17.0173248 108.6995898  52.3025289  17.7216031
 108.1147340  52.2237369  17.2047081  97.7051087  53.1435203   7.8503924
  98.3425034  52.9046950   8.3955717  98.1306159  53.3472362   7.1157084
  97.8627254  53.1386213   7.8221081  92.3963730  55.3823539  11.7338228
  92.4367875  55.6538390  10.9058007  92.9558254  55.9065447  12.1496015
  92.4847076  55.4999294  11.6730116  98.3453902  48.3637493   2.1878813
  98.7299055  48.1445199   2.9395358  98.0965523  49.1900438   2.3179889
  98.3655975  48.4535639   2.3179890  98.5122443  41.6443908  21.9041397
  98.1975884  42.4143471  21.6410960  98.1912375  41.0814164  21.3193624
  98.4181362  41.6754176  21.7782747 109.0789090  52.1384130  13.1989482
 108.7734907  52.8712187  13.5602797 108.3595306  51.7322060  12.9182268
 108.9276432  52.1865863  13.2102619 100.0872559  53.6207625   9.5297710
 100.1611568  53.4582797  10.3839560 100.9042066  53.8097815   9.2858192
 100.2188918  53.6244368   9.6195736 114.7790882  48.7777131  12.5257826
 114.7115382  48.7973090  11.6560413 114.7646544  49.6207458  12.7513497
 114.7669638  48.9050866  12.4310303  93.8478316  53.9665488   6.5592153
  93.0216434  54.2127225   6.4326432  93.9090307  53.8877569   7.4254212
  93.7352483  53.9910437   6.6681098  96.0654340  40.0334429   7.5187594
  95.1976765  40.1057029   7.5845203  96.3529544  40.8356508   7.7075569
  95.9794088  40.1628576   7.5562360 105.1887228  40.1812289  15.8498915
 105.9340820  39.9922099  15.4362341 104.7724533  40.7070527  15.2912772
 105.2372203  40.2314434  15.7063489  98.6277145  56.5842369   4.2611183
  98.9175443  56.1931350   3.5370410  99.3580626  56.7659073   4.7016459
  98.7784029  56.5536182   4.2193990 112.5649499  47.5521517  10.8004420
 113.1157421  46.9189586  11.0401513 112.5493615  48.0836910  11.4919925
 112.6434696  47.5370465  10.9383279  99.2171890  51.3860114  15.3464314
  98.7183584  52.0975882  15.4249202 100.0272114  51.7060781  15.3082476
  99.2627997  51.5386963  15.3520882  96.5683061  58.5609751   7.3271333
  96.3483356  58.2707106   8.1198000  96.3477583  57.9024706   6.7989245
  96.5030655  58.4209459   7.3660242  95.4800008  50.6483067   9.5927035
  95.1913256  50.0220539  10.1272762  96.3483356  50.5903355   9.6591715
  95.5660260  50.5470612   9.6817989 106.2677906  45.7917851   9.9109017
 105.9242671  45.0708186  10.2616266 106.3670948  45.5831702   9.0687375
 106.2319948  45.6542054   9.8380697  98.7351016  59.9339141   6.1102026
  99.3875074  59.4015583   6.3393052  98.0376625  59.5807793   6.4969900
  98.7281734  59.8028664   6.2014193  95.6832281  52.2878318   5.5169400
  96.4378249  52.6691358   5.7304862  95.0902894  52.7389462   5.9716096
  95.7068995  52.4107146   5.6152278 106.7290935  52.2543555   5.4533005
 107.2948967  52.9136765   5.3691548 106.0818838  52.5993253   5.9249407
 106.7169691  52.4025496   5.5105761  98.1438948  44.2441159  20.6426612
  97.3338724  44.5498939  20.5316454  98.6213635  44.9646741  20.7579196
  98.0942427  44.3955760  20.6433683  97.0030508  53.4586880  10.8909515
  96.4811261  53.5987172  11.5761380  97.3904528  52.6997544  11.0811633
  96.9834209  53.3672404  11.0210592  93.9921692  43.5092689   4.9604470
  93.7046488  43.1393959   4.2236417  94.6792160  43.9787544   4.6988175
  94.0510589  43.5239658   4.8119546 103.1997513  55.1982339   4.8770084
 102.9584189  54.4650200   4.4697149 103.3798846  55.7469196   4.2236417
 103.1905137  55.1704730   4.7200307  98.4296833  50.4890899   6.2891006
  98.2339616  51.0965633   5.6951309  98.6531179  49.7958843   5.8082680
  98.4331474  50.4768424   6.1307087  96.8275363  47.3745637   6.4071875
  97.5498015  47.5386795   5.9475681  96.3483356  48.0955302   6.3011214
  96.8639094  47.5043866   6.3237489 104.7868871  43.7109436  11.7868560
 103.9479972  43.7370714  11.5506823 104.8573238  44.3580171  12.3673906
 104.6737264  43.8105561  11.8377676  94.4782980  49.7803709  15.5126014
  94.9904077  50.0587962  14.8634774  94.1919323  50.5193003  15.8788828
  94.5117843  49.9306063  15.4715893 108.6626395  48.9177422   9.0729801
 108.5760369  49.0732848   9.9264580 108.2076875  49.5615498   8.6989206
 108.5829651  49.0353177   9.1436908  91.5649886  44.2873901   5.8089751
  91.6666023  45.0900062   6.1370726  92.3605773  44.0861237   5.5112832
  91.6977792  44.3759800   5.8125106  97.9966705  41.8730098  15.5727056
  97.8049902  41.8885232  16.4226480  98.8465301  42.0693772  15.5493711
  98.0942427  41.9044449  15.6950351  92.3813618  44.4021079  13.5510873
  92.2399110  43.5505020  13.6755381  92.6654182  44.4449740  12.7273079
  92.4021465  44.2820829  13.4478497 102.5352211  46.2388169   7.6955361
 102.2886925  46.1583920   8.5292150 102.8637334  45.4541637   7.5017888
 102.5473454  46.1114435   7.7902884 106.4300260  52.9471529  11.4842142
 106.2914619  53.6452575  11.9890884 105.6500258  52.7920185  11.1278324
 106.2943487  53.0271695  11.5068416 104.7678345  49.2467904  17.7364524
 104.7626383  48.3747721  17.7406950 105.4739339  49.4456073  17.2633979
 104.8723349  49.1471778  17.6671559  98.4949238  48.9744888  17.1078344
  98.6392614  49.5546096  16.4721454  98.8424887  49.3521185  17.8128199
  98.5676699  49.1165592  17.1177339 100.6669155  48.1735056  14.8903475
  99.9192470  48.3666071  14.4851754 100.8210681  47.3480276  14.6527597
 100.5791583  48.0800168  14.7948881  97.5676993  57.1647660  13.9739371
  97.7166557  56.6050576  13.3212775  98.3476995  57.2439662  14.3571890
  97.7051087  57.0933225  13.9336320 100.0930294  57.3362303  15.2523862
 100.0173965  56.6671113  15.8074650 100.0220153  58.0380091  15.7664528
 100.0710901  57.3407210  15.4100710 100.9070933  42.0685607  15.7798879
 101.3643547  42.8009581  15.9071671 100.9827261  41.6452072  16.5386135
 100.9861902  42.1142845  15.9099956  93.1503924  42.3151427  16.8688323
  92.6146113  41.7031785  17.1849090  93.2121688  42.8899563  17.5221990
  93.0799556  42.3098355  17.0123750 100.7500541  55.8563302   6.0847468
 101.5150432  55.5872945   5.7630132 100.6478631  55.3713312   6.8017530
 100.8482036  55.7452866   6.1427295  98.7853310  44.0587711  12.6240703
  97.9949385  43.8779171  12.9458039  99.1813933  43.2814664  12.6070998
  98.7270187  43.9175172  12.6693252 104.1696997  51.6930141  10.3500149
 103.4941999  51.4615373  10.8513536 104.1789373  51.0851324   9.7242254
 104.0715501  51.5689066  10.3316301 101.2991141  46.5347970  17.1064202
 101.2350282  47.3957927  16.9784339 101.4388328  46.2179963  16.3059753
 101.3106611  46.6148137  16.9692415 106.1713731  54.5495274   2.5810327
 106.2533569  55.3562260   2.2571778 106.6563474  54.5691233   3.3051101
 106.2550889  54.6715936   2.6397226  99.9810235  49.2280110  11.2480405
  99.5572484  49.4284609  10.5119423  99.8055090  48.3808957  11.3604705
  99.8921115  49.1328891  11.1554095  99.4821928  60.7430622  13.7101862
  99.9717858  60.0441412  13.5277527  98.9106160  60.4454492  14.2977920
  99.4706458  60.5956846  13.7702903  95.2692680  49.7232161   6.6808378
  95.4257299  49.6578964   7.5364370  95.6093273  50.4980714   6.4687057
  95.3425914  49.8281359   6.7762972 101.8071824  49.0990045   5.5501741
 102.3487370  48.5960426   6.0140361 102.1218383  49.0455239   4.7391226
 101.9336221  49.0169465   5.4985553 105.6788932  53.3092692  22.6628653
 106.4923797  53.0377841  22.8233785 105.5183898  53.0100232  21.8588849
 105.7758880  53.2247618  22.5674059  99.9758274  54.4907396   2.8341769
 100.0451094  53.6321935   2.9734769 100.7546729  54.7079277   2.5060793
 100.1011124  54.3960260   2.8058926 102.9561094  43.9926349  15.6024041
 103.1703063  43.3537263  15.0487395 102.3394993  44.4372173  15.1731903
 102.8966423  43.9636493  15.4574472 104.3665761  56.9145097   7.0478262
 103.9745553  56.6111813   6.3301128 104.5218834  57.7514187   6.8583216
 104.3319351  56.9928934   6.9134759  91.8426941  46.9067111   6.9969145
  92.2225906  47.3251656   6.3329412  91.2682306  47.4880567   7.3037988
  91.8138266  47.0544970   6.9445886 105.1200182  45.6015414  16.5407348
 104.3076863  45.2941305  16.6220521 105.5790116  45.1214414  17.1050061
 105.0680566  45.4851907  16.6361943 104.5305436  53.4795086   6.9884293
 104.1720091  53.6509729   7.7648325 104.0444147  53.9408292   6.4312291
 104.4064133  53.5734057   7.0209562 102.3475822  37.1026285  10.5911384
 101.4769380  37.0765006  10.5444694 102.6016163  36.9303477   9.7737230
 102.2569382  37.0736428  10.4631521  99.3193802  49.1594252  -0.4715473
  99.6086326  49.9359134  -0.1971899  99.4065601  48.6482983   0.2299026
  99.3748058  49.1986170  -0.3272975 102.2153689  47.0075486  21.3236051
 102.6853320  47.6317602  21.7103925 102.2615569  46.3392461  21.8829265
 102.2921565  47.0010166  21.4636122  99.3724963  39.1132513  12.0484854
  98.8563451  38.4212705  12.1736433  98.8118892  39.7803290  11.9947453
  99.2131476  39.1095771  12.0590920 101.4417196  39.6525473  13.8777707
 101.0548949  39.6774505  14.6591237 100.9550133  39.0867152  13.4252224
 101.3129705  39.5721224  13.9265611 105.6910176  54.3698982  17.9351494
 106.3289896  53.8759178  17.6013950 105.0484267  54.2976383  17.3503720
 105.6904402  54.2857991  17.7993849 107.4167176  46.2188128  12.5017409
 106.9894784  46.1314477  11.7465509 106.7793229  46.3265904  13.0872253
 107.2596783  46.2220788  12.4762851 101.1074338  36.5392459  16.1687967
 101.7367456  37.0752759  15.8909037 101.2760201  36.4469818  17.0201533
 101.2252132  36.6053821  16.2536495 100.9088253  41.3263653  18.4414379
 101.7361682  41.0548802  18.4972993 100.9296099  42.1224495  18.7978197
 101.0341103  41.4043408  18.5029561 105.7464432  55.0618790  14.5756850
 106.5356810  54.7107855  14.6958932 105.9208030  55.8755179  14.3133484
 105.8884714  55.1304648  14.5544718  95.4857743  48.4727516  11.6284639
  94.6445749  48.3731390  11.8363533  95.6947751  49.2422996  11.9798960
  95.3922435  48.5719560  11.7111954  92.9633310  46.0947053   9.4569390
  92.5690007  46.1690065   8.6819499  92.4073426  46.4804999  10.0077752
  92.8236122  46.1628828   9.4237050 104.5998256  39.0728347   9.1373269
 104.8047850  39.0050655   9.9830266 104.2724680  39.8787168   9.0694446
 104.5813504  39.1814288   9.2532924  99.2974407  46.4008915  10.8782237
  98.9937545  45.8464904  11.4792644  98.5953828  46.5801125  10.3910271
  99.1490617  46.3453698  10.8951942  98.3540505  43.7109435   5.4426939
  98.6300239  42.9928348   5.0304506  98.9539174  44.3094355   5.2348045
  98.4833769  43.6929806   5.3507700  97.3592759  53.6158636  15.5854334
  97.2513113  53.6260698  16.4516393  97.5688540  54.4413416  15.3959288
  97.3742870  53.7399711  15.6858426  95.3766550  50.8671278  13.0476272
  94.7854484  51.5080777  13.0179287  96.1387574  51.2908896  13.0207572
  95.4014811  51.0247117  13.0391419  95.7727173  42.0273276  13.7144290
  96.2328655  42.1012206  14.4519413  95.8183280  42.8254530  13.3644111
  95.8477729  42.1567423  13.7717046  97.4210523  42.6939971  18.2816317
  97.0296088  42.0473318  18.7172095  97.5896386  43.2851406  18.9010572
  97.3881433  42.6854239  18.4379023 111.4956972  50.6977048  14.0453550
 111.5540096  51.1463697  14.7913527 110.8623440  51.1075861  13.6083630
 111.4108267  50.8250783  14.0906099 105.1356067  56.3180590  10.4808296
 104.9375755  56.8071405   9.7864508 104.5143778  56.5221832  11.0592430
 105.0143631  56.4197128  10.4631520  99.1964045  48.0865487   4.8218541
  99.9406090  48.4739763   5.0601491  99.3424741  47.2422912   4.9859029
  99.3274630  48.0195960   4.8812510 101.1143621  39.8815746   9.8550402
 100.2679666  40.0538554   9.7291752 101.1114753  39.0765090  10.1916231
 100.9890770  39.7876775   9.8861529 102.1841921  43.6590960  10.7212460
 101.7101875  43.1332722  11.2317771 102.5560057  43.1120433  10.1527322
 102.1691810  43.5006957  10.7127607  92.5614951  45.6562467  16.0896006
  93.4240564  45.5558176  16.0033336  92.2306734  45.0757176  15.5281578
  92.6400147  45.5554094  15.9941412 108.4478652  48.7193336  12.1319241
 108.2076874  47.8799751  12.1361667 108.9270659  48.7993503  12.8560014
 108.4830835  48.6074736  12.2394043 110.4483839  45.4994793  10.0848500
 110.2093609  45.4590627   9.2469284 110.6117740  46.3465945  10.2114221
 110.4374142  45.6186878   9.9801982 107.0529869  49.8844742  16.0153545
 107.7764068  49.4317269  15.8364565 106.7879831  50.1649408  15.2325873
 107.1211142  49.8595711  15.8732260  95.9216737  44.4804916  12.7506424
  95.2969807  44.4923308  12.1432377  95.5862332  44.9565091  13.3997664
  95.7802229  44.5523433  12.7562993  92.6342413  52.5405376  14.1910188
  92.1042337  51.8497815  14.2405163  92.9067506  52.5315561  13.3622897
  92.5967135  52.4372508  14.0757604 103.6662503  53.1231078   2.9147871
 104.3896702  53.5889191   2.7712444 103.2263094  53.1904688   2.1645468
 103.7078195  53.2014915   2.7832652 102.8348658  49.9828621  14.1648560
 102.2205651  49.4386671  14.4597195 103.3515943  49.4692857  13.6854376
 102.8204321  49.8265030  14.1372788 102.0744955  51.0532891  11.8992859
 101.6472563  50.4282609  11.4658294 102.0669900  50.7707813  12.7251866
 102.0104097  50.9185671  11.9572686  95.1907482  46.0898064  14.9681293
  95.3500969  45.3341388  15.3733014  95.0100376  46.6389003  15.6222030
  95.1872841  46.0591877  15.1243999 103.1327785  38.2559299  15.5232082
 102.6368347  38.4522973  14.8323649 103.8896847  38.6551968  15.3520884
 103.1714610  38.3437033  15.3952219 100.4030665  41.9301645  12.1135393
 100.4273152  41.3961757  11.4248173 100.6542139  41.4218954  12.7760983
 100.4440584  41.7762549  12.1100037  87.9138255  49.2133140  11.5478537
  87.8081704  49.1679984  10.6830621  87.1638475  49.5586921  11.8292822
  87.7873858  49.2574048  11.4615866  96.6831987  40.6572463  11.4941137
  96.7230359  41.1581670  12.2075844  95.8581652  40.7482857  11.2247060
  96.5671513  40.7454280  11.5591675  98.8661600  50.2233203  19.5961431
  98.0157231  50.3604918  19.7319076  99.0289728  49.4896982  20.0409133
  98.7645464  50.1347305  19.6817031  98.1046351  47.1732973  13.7915036
  97.2738280  47.3406791  13.5850284  98.0497868  46.7968924  14.5763921
  97.9735766  47.1422705  13.8763564  95.9130134  40.6641866  19.4271447
  96.5382837  40.1203999  19.7000879  95.4580614  40.1836784  18.8579237
  95.9378395  40.5131347  19.3833040  96.4782394  45.4488565   4.3205154
  96.6185356  45.9461029   5.0233795  96.9764927  44.7474859   4.4619367
  96.5723475  45.4190544   4.4456733  96.5082617  46.3155676   1.6497730
  97.1427696  46.9116101   1.5847192  96.5908228  46.0159133   2.4643601
  96.6139168  46.3596584   1.7600817 109.4865183  48.8471153  14.5184095
 110.0783023  49.4868404  14.5502293 109.9224177  48.1494190  14.8076161
 109.6383614  48.8389504  14.5664927 101.3158572  53.2688526  15.1441989
 100.8083664  53.8224372  15.5882619 101.0185219  53.3296815  14.3260763
 101.1963457  53.3594837  15.0890445 103.4820755  41.6341845  13.9866652
 103.9075826  41.1814372  13.3750178 102.8677748  41.0801916  14.2631439
 103.4549400  41.4855821  13.9371677  93.0135605  48.5123517   4.9187276
  93.5227834  49.1088024   5.2998582  93.4869877  48.2449490   4.2363696
  93.1578980  48.5609332   4.8741799 103.9266353  57.1851783   3.0745932
 103.2095663  57.0112646   2.6093169 104.5773090  56.9504356   2.5421418
 103.9168203  57.1247576   2.9275150 101.9214978  38.1056945   7.3957229
 101.2783295  37.9554591   7.9642367 101.5814385  37.8599290   6.6306333
 101.7760055  38.0469067   7.3660244 106.5114324  46.0616372   6.8187237
 105.8405514  46.6046074   6.6900303 107.2054074  46.5311227   6.5768932
 106.5143192  46.2114643   6.7642765 100.5601058  58.2013084  12.0498995
 100.3366712  57.4431913  12.4183022 100.0710901  58.2311105  11.3279435
 100.4544507  58.0935308  11.9975736 106.6742451  42.5172255   9.7277610
 107.0270062  42.0901978  10.4023409 105.8157253  42.4323099   9.8578687
 106.5991896  42.4416996   9.8472621  95.3726136  45.1479775   7.7860457
  94.6538126  45.5643908   8.0533320  95.7438499  45.7134014   7.2352095
  95.3218068  45.2929057   7.7443264 104.6725717  45.7807624  13.6762453
 104.6523645  45.5990919  14.5297231 104.7204918  46.6519643  13.6522036
 104.6760358  45.8824162  13.7985747 102.6172047  52.3694816  19.6010929
 102.5767902  51.7244493  19.0156085 103.4295365  52.3131433  19.9136341
 102.7315201  52.2653783  19.5607878  99.2079515  58.4213542   9.5036080
  98.7939913  57.7587672   9.1139922  99.8926889  58.5691401   8.9831774
  99.2477886  58.3454200   9.3692577 102.5744809  57.5803627  10.2559697
 102.1761092  57.6905898   9.4880517 101.9596028  57.7885694  10.8386256
 102.4243698  57.6277195  10.2290996 104.0230527  44.1457280   6.5535587
 103.7944220  44.1689981   5.7113945 104.2828604  43.3214747   6.6730597
 104.0276715  44.0273359   6.4460784  98.3049756  45.9991753  16.1560687
  97.7928659  45.3912936  16.5145718  98.1329252  46.7148345  16.6234663
  98.2039393  46.0155052  16.2776910  93.1515471  44.4429328  18.8063049
  92.9818061  45.1030703  18.2611255  92.7081420  44.6535889  19.5275538
  93.0614804  44.5715310  18.8324678  97.0775290  42.6833826   7.8489782
  97.5532656  43.0450906   7.2139963  96.5763890  43.3390293   8.1289925
  97.0740649  42.8328015   7.7966523 102.1818826  43.9215997  18.5962942
 102.7390256  43.6929807  17.9641408 101.8579891  44.6821663  18.3198155
 102.2165236  43.9999834  18.4619439  90.0517535  47.3476193  14.0651538
  89.5044255  46.6776839  14.1832407  90.8409913  46.9806041  14.1295006
  90.0869719  47.1941180  14.0920239  99.9001943  47.0083651  19.5614949
 100.6513270  47.3235327  19.8754504 100.0924520  46.8062821  18.7348871
 100.0393358  47.0251032  19.4858345  88.8104505  46.5597001  11.2197561
  88.6326266  46.1073610  11.9452477  88.5223527  47.3623163  11.4036039
  88.7417458  46.6119559  11.3541064 104.4728086  47.8154719  10.4574952
 104.9681751  47.0977714  10.4178972 103.6627861  47.5125516  10.3429439
 104.4271979  47.6652365  10.4348678  99.9186697  51.6652532   2.6071956
  99.1098020  51.3419205   2.5605266 100.4261606  50.9585754   2.5400205
  99.8736364  51.5133848   2.5902251  90.5476974  49.0924725   8.3319321
  89.6822494  49.0810415   8.2202092  90.6475790  48.9054948   9.1790460
  90.4351141  49.0630786   8.4408265 106.5379905  50.5658406  13.1452081
 106.9634976  50.0432828  12.5922506 106.1736824  51.1639244  12.6240703
 106.5466507  50.5768633  12.9861090  96.1733984  58.8622624  11.9049426
  96.4880543  59.6759012  11.9127208  96.5827398  58.4772842  12.5731585
  96.2802082  58.9251326  12.0053518 103.1258504  54.2792670   9.4753238
 103.5969682  54.9932933   9.6443223 103.4618682  53.6791421  10.0113107
 103.2453619  54.2964135   9.5785614 105.2135489  55.8893984  21.6545310
 105.3232454  55.1002544  22.0102057 105.5426385  55.7999920  20.8519648
 105.2787894  55.7599837  21.5887701 100.0427999  39.0520141  16.4311333
 100.1755905  38.2551134  16.7592308 100.4273152  39.5786544  17.0109608
 100.1184328  39.0120058  16.5654836 103.7632450  54.0710605  16.2380931
 103.2153396  53.4468488  15.9700996 104.2245479  54.2604877  15.5225010
 103.7499660  54.0069655  16.0931362 103.1160354  35.9750467  13.0292426
 102.3106318  35.8648197  13.3460264 102.9867090  36.0762923  12.1722292
 102.9780487  35.9734137  12.9500466 106.5726315  42.1395959  13.6232123
 105.9889303  42.6405165  13.2109690 106.8930609  41.6325515  12.9896446
 106.5339490  42.1387794  13.4690630  99.1121114  41.0536554   3.8990798
  99.9336808  41.2234867   3.6572493  98.6490765  41.2083815   3.1757095
  99.1652276  41.1018287   3.7562442  97.7016446  39.0479316  14.6789227
  98.2460859  38.7070443  15.2693568  97.7553381  39.9064778  14.8210511
  97.7905565  39.1234575  14.7871100  93.5147004  52.8095732  11.5528034
  94.1191862  52.7691566  10.9241855  93.3074317  53.6566884  11.5832090
  93.5735902  52.9283735  11.4644151 103.3290777  55.0761677  12.7690272
 104.1489150  54.9324643  13.0306567 103.0484854  55.7007876  13.3106710
 103.4087520  55.1472029  12.8878211  88.7498287  51.7930350  11.4226958
  88.6522565  50.9826621  11.7317014  89.5327156  51.7722143  11.0373226
  88.8514423  51.6697440  11.4113821 113.0004112  61.8202180  10.4886079
 112.1442007  61.9810678  10.5395195 113.0471766  60.9494244  10.5091140
 112.8803223  61.7152982  10.4992145 116.3097828  68.0888706  20.0946535
 117.0164596  67.5940736  20.2233469 116.4985764  68.5297787  19.3649193
 116.4425734  68.0807056  20.0055580 115.8455933  63.8794224  13.1317730
 116.3911893  64.5579310  13.1911700 115.7872809  63.7381685  12.2719312
 115.9171847  63.9586226  13.0129791 102.1595052  67.3903577   8.1438416
 101.9245236  66.5571229   8.0370685 102.2980693  67.6708242   7.3299617
 102.1450714  67.3087080   8.0080771 104.4585139  59.5589307  11.0422724
 103.8390171  58.9681954  10.8732739 104.3569003  60.1500742  10.4087047
 104.3522815  59.5593390  10.9227714 111.5553035  61.2988849   5.3755187
 112.2533200  61.4776976   5.8676650 111.8705368  60.7759188   4.7525576
 111.7048372  61.2482621   5.3557197 104.1854272  63.1041589  13.2866293
 104.0612969  63.6904034  13.9216112 104.8372557  62.6101785  13.5878568
 104.2627922  63.1180393  13.4252222 109.2112613  66.2803306  12.5653804
 109.8561616  65.7875749  12.2464753 109.4514391  66.4228092  13.3919882
 109.3423199  66.2280748  12.6403337 111.7498705  69.1258212  12.2160697
 112.0321948  68.3309617  11.9947453 112.4784865  69.6038799  12.2365758
 111.8988269  69.0792809  12.1863712 109.7279899  56.6681246   9.4576462
 109.3983229  57.1192389   8.7880161 109.0524900  56.5897409  10.0049468
 109.5790335  56.7232381   9.4399685 103.7212377  72.2689247   9.4194623
 103.2379955  72.9939737   9.3954206 104.5335695  72.5665377   9.5304780
 103.7703124  72.4191601   9.4321902 109.7926531  71.0621428  12.0244437
 109.2753472  70.7028843  11.4205745 110.4900922  70.5383602  12.0350503
 109.8192112  70.9319116  11.9374696 113.4490123  71.5116242  17.9860610
 113.5373469  71.3242383  18.8338820 113.8779835  70.8653672  17.5865457
 113.5252225  71.3879250  18.0532361 111.0160582  70.7947402  16.9678272
 110.4531417  70.3820012  17.4917933 111.7781606  70.7200308  17.3871415
 111.0455031  70.7224803  17.1071273 107.9335853  54.7293534   4.9399409
 108.6881821  55.0971851   4.7016460 107.7563387  55.1033088   5.7078589
 108.0190331  54.8391722   5.0184298 106.5756574  72.7845423   9.5714902
 107.2777153  72.2697412   9.6287659 106.4954057  73.1119575  10.3761777
 106.6680334  72.7559649   9.6987695 121.2270751  60.8787975  12.9846949
 120.3899173  60.9490162  13.2194543 121.1958982  60.8812469  12.1121251
 121.0989034  60.8898202  12.8906497 107.6235480  63.0221010  18.6995317
 107.7955984  62.9126905  19.5480599 108.1604838  63.6675416  18.4626510
 107.7280484  63.1013012  18.7900414 106.2892917  57.1363853   1.6377522
 106.1068491  57.3535734   0.8118515 107.1518530  57.2502866   1.6936137
 106.3897507  57.1853751   1.5232010 105.9007349  68.9751775   9.0800510
 106.7396249  69.2074708   9.1274272 105.9319119  68.1056087   9.0107546
 106.0289067  68.8808722   9.0765155 106.5260052  69.3952650  13.3813816
 107.0658277  69.2523781  14.0517188 105.8429999  69.7949401  13.7497842
 106.5052206  69.4332321  13.5348238 113.5610182  70.9425261  20.6504394
 114.3450599  71.0556109  21.0160136 113.3606777  70.1166398  20.8463079
 113.6476207  70.8371981  20.7338780 101.9297197  65.6152941  13.5348237
 101.6635613  64.7992058  13.6939228 101.9435762  65.6606097  12.6643753
 101.8921920  65.5009846  13.4301719 118.9078591  55.9430756  11.5690671
 119.5504500  56.0128861  12.1552586 119.1601612  55.2759979  11.0670213
 119.0400723  55.8557105  11.5817950 106.6795804  59.1531319  16.1815245
 105.9867601  58.6828299  16.4275977 107.2956131  58.9269624  16.7556952
 106.6680334  59.0498451  16.3024398 113.7180575  72.8535363  14.2970849
 112.9195821  72.6134863  14.5544718 114.1666587  72.9049756  15.0437897
 113.6655187  72.8257754  14.4455773 102.3390611  66.4011721  10.8159982
 102.1566184  66.3758607   9.9632274 103.0740280  66.8710658  10.8548890
 102.4204675  66.4673083  10.6957900 105.4036363  63.1196723  17.3242090
 106.1276335  63.1049754  17.8106985 105.5052499  63.8292079  16.8264059
 105.5254572  63.2221427  17.3220877 112.7781312  66.5995808  22.1891037
 111.9854293  66.9139320  22.3743657 112.8930239  66.8147277  21.3511822
 112.6776723  66.6779645  22.0929372 113.7065105  66.5016012  17.1276334
 114.2803967  65.8643256  17.2824898 113.6279909  66.5020094  16.2585992
 113.7798340  66.4081123  17.0222745 102.3061521  63.2805221  10.9659048
 102.8835024  63.1441672  11.6051294 101.6075583  62.8241005  11.2204633
 102.2882543  63.1927487  11.0981338 109.0628824  64.9339277   9.1797532
 108.8048068  64.1011012   9.1528831 109.1177306  65.1596890   8.3390032
 109.0328601  64.8437048   9.0517668 114.1429874  57.0367728   9.2801624
 113.4386200  56.5476913   9.4385543 114.1914848  57.0490202   8.4090069
 114.0459925  56.9657376   9.1740964 108.0363536  62.4877039   9.6662426
 107.4613127  62.6469208  10.3026387 107.6599212  61.8512449   9.2030877
 107.8966348  62.4174852   9.6916985 111.7036824  60.9600389  14.5254805
 111.3151257  60.5354606  13.8706996 111.0391523  61.2082538  15.0331831
 111.5483752  60.9339110  14.5042673  97.7820355  62.1317114   7.6806867
  97.8680606  61.7548983   8.4620397  98.4096152  61.7577560   7.2026825
  97.8876906  62.0202596   7.7252344 115.5263186  54.6575017  12.0378789
 115.9073698  53.9753189  12.4246663 114.7226470  54.3684620  11.8554453
 115.4639648  54.5142066  12.0682845 119.0285253  67.8724989  17.1361187
 118.7923890  67.0413054  17.0173248 119.6728482  67.8210597  17.7216031
 119.0879924  67.7422677  17.2047081 103.3696313  70.9008847  11.7338228
 103.4100459  71.1723698  10.9058007 103.9290837  71.4250755  12.1496015
 103.4579659  71.0184602  11.6730116 109.4855026  57.1629216  21.9041397
 109.1708467  57.9328778  21.6410960 109.1644959  56.5999472  21.3193624
 109.3913945  57.1939484  21.7782747 120.0521673  67.6569438  13.1989482
 119.7467490  68.3897495  13.5602797 119.3327889  67.2507368  12.9182268
 119.9009016  67.7051171  13.2102619 107.0386923  55.5519737   7.5187594
 106.1709349  55.6242337   7.5845203 107.3262128  56.3541816   7.7075569
 106.9526671  55.6813884   7.5562360 116.1619812  55.6997597  15.8498915
 116.9073404  55.5107407  15.4362341 115.7457117  56.2255835  15.2912772
 116.2104786  55.7499742  15.7063489 123.5382083  63.0706825  10.8004420
 124.0890004  62.4374894  11.0401513 123.5226198  63.6022218  11.4919925
 123.6167279  63.0555773  10.9383279 110.1904474  66.9045422  15.3464314
 109.6916167  67.6161190  15.4249202 111.0004698  67.2246089  15.3082476
 110.2360580  67.0572271  15.3520882 106.4532591  66.1668375   9.5927035
 106.1645840  65.5405847  10.1272762 107.3215939  66.1088663   9.6591715
 106.5392843  66.0655920   9.6817989 117.2410489  61.3103159   9.9109017
 116.8975255  60.5893494  10.2616266 117.3403532  61.1017010   9.0687375
 117.2052532  61.1727362   9.8380697 109.1171532  59.7626467  20.6426612
 108.3071307  60.0684246  20.5316454 109.5946218  60.4832049  20.7579196
 109.0675011  59.9141068  20.6433683 107.9763091  68.9772188  10.8909515
 107.4543845  69.1172479  11.5761380 108.3637112  68.2182852  11.0811633
 107.9566792  68.8857712  11.0210592 104.9654275  59.0277996   4.9604470
 104.6779071  58.6579267   4.2236417 105.6524744  59.4972852   4.6988175
 105.0243173  59.0424966   4.8119546 107.8007947  62.8930945   6.4071875
 108.5230599  63.0572103   5.9475681 107.3215940  63.6140610   6.3011214
 107.8371678  63.0229174   6.3237489 115.7601455  59.2294744  11.7868560
 114.9212555  59.2556022  11.5506823 115.8305822  59.8765479  12.3673906
 115.6469848  59.3290869  11.8377676 105.4515564  65.2989017  15.5126014
 105.9636661  65.5773270  14.8634774 105.1651906  66.0378311  15.8788828
 105.4850427  65.4491371  15.4715893 102.5382470  59.8059209   5.8089751
 102.6398606  60.6085370   6.1370726 103.3338357  59.6046545   5.5112832
 102.6710376  59.8945108   5.8125106 108.9699289  57.3915406  15.5727056
 108.7782486  57.4070540  16.4226480 109.8197885  57.5879080  15.5493711
 109.0675011  57.4229757  15.6950351 103.3546202  59.9206387  13.5510873
 103.2131694  59.0690328  13.6755381 103.6386765  59.9635048  12.7273079
 103.3754048  59.8006137  13.4478497 113.5084794  61.7573477   7.6955361
 113.2619509  61.6769228   8.5292150 113.8369918  60.9726945   7.5017888
 113.5206038  61.6299743   7.7902884 117.4032843  68.4656837  11.4842142
 117.2647203  69.1637883  11.9890884 116.6232841  68.3105493  11.1278324
 117.2676070  68.5457003  11.5068416 115.7410928  64.7653212  17.7364524
 115.7358967  63.8933029  17.7406950 116.4471922  64.9641381  17.2633979
 115.8455932  64.6657086  17.6671559 109.4681822  64.4930196  17.1078344
 109.6125197  65.0731404  16.4721454 109.8157470  64.8706493  17.8128199
 109.5409283  64.6350900  17.1177339 111.6401739  63.6920364  14.8903475
 110.8925053  63.8851379  14.4851754 111.7943264  62.8665584  14.6527597
 111.5524167  63.5985476  14.7948881 108.5409577  72.6832968  13.9739371
 108.6899140  72.1235884  13.3212775 109.3209579  72.7624969  14.3571890
 108.6783670  72.6118533  13.9336320 111.0662877  72.8547611  15.2523862
 110.9906548  72.1856421  15.8074650 110.9952736  73.5565399  15.7664528
 111.0443484  72.8592518  15.4100710 111.8803516  57.5870915  15.7798879
 112.3376130  58.3194889  15.9071671 111.9559845  57.1637380  16.5386135
 111.9594486  57.6328153  15.9099956 104.1236507  57.8336735  16.8688323
 103.5878697  57.2217093  17.1849090 104.1854272  58.4084871  17.5221990
 104.0532140  57.8283663  17.0123750 109.7585894  59.5773019  12.6240703
 108.9681969  59.3964479  12.9458039 110.1546517  58.7999972  12.6070998
 109.7002770  59.4360480  12.6693252 115.1429580  67.2115449  10.3500149
 114.4674582  66.9800681  10.8513536 115.1521956  66.6036632   9.7242254
 115.0448085  67.0874374  10.3316301 112.2723724  62.0533278  17.1064202
 112.2082866  62.9143235  16.9784339 112.4120912  61.7365271  16.3059753
 112.2839194  62.1333445  16.9692415 110.9542818  64.7465417  11.2480405
 110.5305067  64.9469916  10.5119423 110.7787673  63.8994265  11.3604705
 110.8653699  64.6514199  11.1554095 110.4554512  76.2615930  13.7101862
 110.9450442  75.5626720  13.5277527 109.8838744  75.9639800  14.2977920
 110.4439042  76.1142154  13.7702903 106.2425263  65.2417469   6.6808378
 106.3989882  65.1764272   7.5364370 106.5825856  66.0166021   6.4687057
 106.3158498  65.3466667   6.7762972 116.6521515  68.8278000  22.6628653
 117.4656380  68.5563149  22.8233785 116.4916482  68.5285540  21.8588849
 116.7491464  68.7432926  22.5674059 113.9293677  59.5111657  15.6024041
 114.1435647  58.8722571  15.0487395 113.3127576  59.9557481  15.1731903
 113.8699006  59.4821801  15.4574472 102.8159525  62.4252419   6.9969145
 103.1958490  62.8436964   6.3329412 102.2414889  63.0065875   7.3037988
 102.7870850  62.5730278   6.9445886 116.0932765  61.1200722  16.5407348
 115.2809447  60.8126613  16.6220521 116.5522700  60.6399722  17.1050061
 116.0413150  61.0037215  16.6361943 113.3208406  52.6211593  10.5911384
 112.4501964  52.5950314  10.5444694 113.5748747  52.4488785   9.7737230
 113.2301966  52.5921736  10.4631521 113.1886273  62.5260794  21.3236051
 113.6585904  63.1502910  21.7103925 113.2348153  61.8577769  21.8829265
 113.2654149  62.5195474  21.4636122 110.3457546  54.6317821  12.0484854
 109.8296035  53.9398013  12.1736433 109.7851475  55.2988598  11.9947453
 110.1864060  54.6281079  12.0590920 112.4149780  55.1710781  13.8777707
 112.0281533  55.1959813  14.6591237 111.9282717  54.6052460  13.4252224
 112.2862289  55.0906532  13.9265611 116.6642759  69.8884290  17.9351494
 117.3022480  69.3944486  17.6013950 116.0216851  69.8161691  17.3503720
 116.6636986  69.8043299  17.7993849 118.3899759  61.7373436  12.5017409
 117.9627367  61.6499785  11.7465509 117.7525812  61.8451212  13.0872253
 118.2329367  61.7406096  12.4762851 112.0806921  52.0577767  16.1687967
 112.7100039  52.5938067  15.8909037 112.2492784  51.9655126  17.0201533
 112.1984716  52.1239129  16.2536495 111.8820836  56.8448961  18.4414379
 112.7094266  56.5734110  18.4972993 111.9028682  57.6409803  18.7978197
 112.0073686  56.9228716  18.5029561 116.7197016  70.5804098  14.5756850
 117.5089394  70.2293163  14.6958932 116.8940614  71.3940487  14.3133484
 116.8617297  70.6489955  14.5544718 106.4590326  63.9912824  11.6284639
 105.6178333  63.8916698  11.8363533 106.6680334  64.7608304  11.9798960
 106.3655019  64.0904867  11.7111954 103.9365893  61.6132361   9.4569390
 103.5422591  61.6875373   8.6819499 103.3806010  61.9990307  10.0077752
 103.7968706  61.6814136   9.4237050 115.5730840  54.5913655   9.1373269
 115.7780433  54.5235963   9.9830266 115.2457264  55.3972476   9.0694446
 115.5546088  54.6999596   9.2532924 110.2706991  61.9194223  10.8782237
 109.9670129  61.3650212  11.4792644 109.5686412  62.0986433  10.3910271
 110.1223201  61.8639006  10.8951942 109.3273088  59.2294743   5.4426939
 109.6032823  58.5113656   5.0304506 109.9271757  59.8279663   5.2348045
 109.4566353  59.2115114   5.3507700 108.3325342  69.1343944  15.5854334
 108.2245697  69.1446006  16.4516393 108.5421124  69.9598724  15.3959288
 108.3475453  69.2585019  15.6858426 106.3499134  66.3856586  13.0476272
 105.7587067  67.0266085  13.0179287 107.1120158  66.8094204  13.0207572
 106.3747395  66.5432425  13.0391419 106.7459757  57.5458584  13.7144290
 107.2061238  57.6197514  14.4519413 106.7915864  58.3439838  13.3644111
 106.8210312  57.6752731  13.7717046 108.3943107  58.2125279  18.2816317
 108.0028672  57.5658626  18.7172095 108.5628969  58.8036714  18.9010572
 108.3614017  58.2039547  18.4379023 122.4689556  66.2162356  14.0453550
 122.5272679  66.6649005  14.7913527 121.8356023  66.6261169  13.6083630
 122.3840851  66.3436091  14.0906099 112.0876204  55.4001054   9.8550402
 111.2412249  55.5723862   9.7291752 112.0847337  54.5950397  10.1916231
 111.9623354  55.3062083   9.8861529 113.1574505  59.1776268  10.7212460
 112.6834459  58.6518030  11.2317771 113.5292640  58.6305741  10.1527322
 113.1424393  59.0192265  10.7127607 103.5347535  61.1747775  16.0896006
 104.3973148  61.0743484  16.0033336 103.2039318  60.5942484  15.5281578
 103.6132731  61.0739402  15.9941412 119.4211235  64.2378644  12.1319241
 119.1809458  63.3985059  12.1361667 119.9003242  64.3178810  12.8560014
 119.4563419  64.1260043  12.2394043 121.4216422  61.0180101  10.0848500
 121.1826192  60.9775935   9.2469284 121.5850323  61.8651253  10.2114221
 121.4106726  61.1372186   9.9801982 118.0262452  65.4030050  16.0153545
 118.7496651  64.9502577  15.8364565 117.7612415  65.6834716  15.2325873
 118.0943726  65.3781019  15.8732260 106.8949321  59.9990224  12.7506424
 106.2702391  60.0108616  12.1432377 106.5594916  60.4750399  13.3997664
 106.7534812  60.0708741  12.7562993 103.6074996  68.0590684  14.1910188
 103.0774921  67.3683123  14.2405163 103.8800090  68.0500869  13.3622897
 103.5699719  67.9557816  14.0757604 113.8081242  65.5013929  14.1648560
 113.1938235  64.9571979  14.4597195 114.3248527  64.9878165  13.6854376
 113.7936904  65.3450338  14.1372788 113.0477539  66.5718199  11.8992859
 112.6205147  65.9467917  11.4658294 113.0402483  66.2893120  12.7251866
 112.9836680  66.4370979  11.9572686 106.1640066  61.6083372  14.9681293
 106.3233553  60.8526696  15.3733014 105.9832960  62.1574311  15.6222030
 106.1605425  61.5777185  15.1243999 114.1060369  53.7744607  15.5232082
 113.6100930  53.9708281  14.8323649 114.8629431  54.1737275  15.3520884
 114.1447194  53.8622341  15.3952219 111.3763249  57.4486953  12.1135393
 111.4005736  56.9147065  11.4248173 111.6274722  56.9404262  12.7760983
 111.4173167  57.2947857  12.1100037  98.8870838  64.7318448  11.5478537
  98.7814288  64.6865292  10.6830621  98.1371058  65.0772229  11.8292822
  98.7606441  64.7759356  11.4615866 107.6564571  56.1757771  11.4941137
 107.6962942  56.6766978  12.2075844 106.8314235  56.2668165  11.2247060
 107.5404097  56.2639588  11.5591675 109.8394184  65.7418511  19.5961431
 108.9889814  65.8790226  19.7319076 110.0022311  65.0082290  20.0409133
 109.7378047  65.6532613  19.6817031 109.0778934  62.6918281  13.7915036
 108.2470864  62.8592099  13.5850284 109.0230451  62.3154232  14.5763921
 108.9468349  62.6608012  13.8763564 106.8862717  56.1827174  19.4271447
 107.5115421  55.6389307  19.7000879 106.4313197  55.7022092  18.8579237
 106.9110978  56.0316655  19.3833040 107.4514978  60.9673873   4.3205154
 107.5917939  61.4646337   5.0233795 107.9497511  60.2660167   4.4619367
 107.5456059  60.9375851   4.4456733 120.4597766  64.3656461  14.5184095
 121.0515606  65.0053712  14.5502293 120.8956761  63.6679498  14.8076161
 120.6116197  64.3574811  14.5664927 112.2891156  68.7873833  15.1441989
 111.7816247  69.3409680  15.5882619 111.9917802  68.8482123  14.3260763
 112.1696041  68.8780145  15.0890445 114.4553338  57.1527153  13.9866652
 114.8808410  56.6999680  13.3750178 113.8410331  56.5987224  14.2631439
 114.4281984  57.0041129  13.9371677 103.9868188  64.0308824   4.9187276
 104.4960418  64.6273332   5.2998582 104.4602461  63.7634798   4.2363696
 104.1311564  64.0794640   4.8741799 112.8947561  53.6242253   7.3957229
 112.2515879  53.4739899   7.9642367 112.5546968  53.3784598   6.6306333
 112.7492638  53.5654375   7.3660244 117.6475035  58.0357563   9.7277610
 118.0002645  57.6087286  10.4023409 116.7889837  57.9508407   9.8578687
 117.5724480  57.9602304   9.8472621 106.3458720  60.6665083   7.7860457
 105.6270709  61.0829216   8.0533320 106.7171082  61.2319322   7.2352095
 106.2950652  60.8114364   7.7443264 115.6458301  61.2992932  13.6762453
 115.6256228  61.1176227  14.5297231 115.6937502  62.1704950  13.6522036
 115.6492942  61.4009470  13.7985747 113.5904631  67.8880124  19.6010929
 113.5500486  67.2429801  19.0156085 114.4027949  67.8316741  19.9136341
 113.7047784  67.7839091  19.5607878 114.9963111  59.6642587   6.5535587
 114.7676804  59.6875289   5.7113945 115.2561187  58.8400054   6.6730597
 115.0009299  59.5458667   6.4460784 109.2782339  61.5177060  16.1560687
 108.7661243  60.9098243  16.5145718 109.1061836  62.2333653  16.6234663
 109.1771976  61.5340360  16.2776910 104.1248054  59.9614636  18.8063049
 103.9550644  60.6216011  18.2611255 103.6814004  60.1721197  19.5275538
 104.0347388  60.0900618  18.8324678 108.0507873  58.2019134   7.8489782
 108.5265240  58.5636214   7.2139963 107.5496473  58.8575601   8.1289925
 108.0473232  58.3513323   7.7966523 113.1551410  59.4401305  18.5962942
 113.7122840  59.2115115  17.9641408 112.8312475  60.2006971  18.3198155
 113.1897820  59.5185142  18.4619439 101.0250119  62.8661501  14.0651538
 100.4776838  62.1962147  14.1832407 101.8142497  62.4991349  14.1295006
 101.0602302  62.7126488  14.0920239 110.8734527  62.5268958  19.5614949
 111.6245854  62.8420635  19.8754504 111.0657104  62.3248129  18.7348871
 111.0125941  62.5436340  19.4858345  99.7837088  62.0782309  11.2197561
  99.6058849  61.6258918  11.9452477  99.4956110  62.8808471  11.4036039
  99.7150041  62.1304867  11.3541064 115.4460669  63.3340027  10.4574952
 115.9414335  62.6163022  10.4178972 114.6360445  63.0310824  10.3429439
 115.4004563  63.1837673  10.4348678 101.5209558  64.6110033   8.3319321
 100.6555077  64.5995723   8.2202092 101.6208374  64.4240256   9.1790460
 101.4083725  64.5816094   8.4408265 117.5112488  66.0843714  13.1452081
 117.9367560  65.5618136  12.5922506 117.1469408  66.6824551  12.6240703
 117.5199091  66.0953941  12.9861090 107.1466568  74.3807932  11.9049426
 107.4613127  75.1944320  11.9127208 107.5559981  73.9958150  12.5731585
 107.2534666  74.4436634  12.0053518 116.1868072  71.4079292  21.6545310
 116.2965038  70.6187852  22.0102057 116.5158969  71.3185228  20.8519648
 116.2520478  71.2785145  21.5887701 111.0160583  54.5705449  16.4311333
 111.1488488  53.7736442  16.7592308 111.4005735  55.0971852  17.0109608
 111.0916911  54.5305366  16.5654836 114.7365034  69.5895912  16.2380931
 114.1885980  68.9653796  15.9700996 115.1978063  69.7790184  15.5225010
 114.7232243  69.5254963  16.0931362 114.0892938  51.4935775  13.0292426
 113.2838901  51.3833505  13.3460264 113.9599673  51.5948231  12.1722292
 113.9513071  51.4919445  12.9500466 117.5458898  57.6581267  13.6232123
 116.9621887  58.1590473  13.2109690 117.8663192  57.1510823  12.9896446
 117.5072074  57.6573102  13.4690630 110.0853697  56.5721862   3.8990798
 110.9069392  56.7420175   3.6572493 109.6223348  56.7269123   3.1757095
 110.1384860  56.6203595   3.7562442 108.6749029  54.5664624  14.6789227
 109.2193442  54.2255751  15.2693568 108.7285965  55.4250086  14.8210511
 108.7638149  54.6419883  14.7871100 104.4879588  68.3281040  11.5528034
 105.0924445  68.2876874  10.9241855 104.2806901  69.1752192  11.5832090
 104.5468485  68.4469043  11.4644151 114.3023360  70.5946985  12.7690272
 115.1221734  70.4509951  13.0306567 114.0217438  71.2193184  13.3106710
 114.3820104  70.6657337  12.8878211  99.7230870  67.3115658  11.4226958
  99.6255148  66.5011929  11.7317014 100.5059740  67.2907451  11.0373226
  99.8247007  67.1882748  11.4113821 118.5968064  78.5406318  18.6995317
 118.7688568  78.4312213  19.5480599 119.1337422  79.1860724  18.4626510
 118.7013068  78.6198320  18.7900414 117.6528387  74.6716627  16.1815245
 116.9600184  74.2013607  16.4275977 118.2688715  74.4454932  16.7556952
 117.6412917  74.5683759  16.3024398 120.4587610  72.6814524  21.9041397
 120.1441051  73.4514086  21.6410960 120.1377542  72.1184780  21.3193624
 120.3646529  72.7124792  21.7782747 120.0904115  75.2811775  20.6426612
 119.2803891  75.5869554  20.5316454 120.5678802  76.0017357  20.7579196
 120.0407594  75.4326376  20.6433683 119.9431873  72.9100714  15.5727056
 119.7515070  72.9255848  16.4226480 120.7930469  73.1064388  15.5493711
 120.0407595  72.9415065  15.6950351 115.0969091  73.3522043  16.8688323
 114.5611280  72.7402401  17.1849090 115.1586856  73.9270179  17.5221990
 115.0264724  73.3468970  17.0123750 124.1618856  78.0446102  21.3236051
 124.6318487  78.6688218  21.7103925 124.2080736  77.3763077  21.8829265
 124.2386732  78.0380782  21.4636122 123.0539505  67.5763075  16.1687967
 123.6832623  68.1123375  15.8909037 123.2225368  67.4840433  17.0201533
 123.1717300  67.6424437  16.2536495 122.8553420  72.3634269  18.4414379
 123.6826849  72.0919418  18.4972993 122.8761266  73.1595111  18.7978197
 122.9806270  72.4414023  18.5029561 119.3675690  73.7310587  18.2816317
 118.9761255  73.0843934  18.7172095 119.5361553  74.3222022  18.9010572
 119.3346601  73.7224855  18.4379023 114.5080118  76.6933083  16.0896006
 115.3705731  76.5928792  16.0033336 114.1771901  76.1127792  15.5281578
 114.5865315  76.5924709  15.9941412 117.8595301  71.7012482  19.4271447
 118.4848004  71.1574615  19.7000879 117.4045781  71.2207400  18.8579237
 117.8843562  71.5501963  19.3833040 115.0980638  75.4799944  18.8063049
 114.9283228  76.1401319  18.2611255 114.6546588  75.6906505  19.5275538
 115.0079971  75.6085926  18.8324678 124.1283993  74.9586613  18.5962942
 124.6855424  74.7300423  17.9641408 123.8045058  75.7192279  18.3198155
 124.1630404  75.0370450  18.4619439 121.8467111  78.0454266  19.5614949
 122.5978438  78.3605943  19.8754504 122.0389687  77.8433437  18.7348871
 121.9858525  78.0621648  19.4858345 121.9893166  70.0890757  16.4311333
 122.1221072  69.2921750  16.7592308 122.3738319  70.6157160  17.0109608
 122.0649495  70.0490674  16.5654836 119.6481613  70.0849932  14.6789227
 120.1926026  69.7441059  15.2693568 119.7018549  70.9435393  14.8210511
 119.7370732  70.1605191  14.7871100   1.3106597  76.6841934  83.8558228
   1.2800602  77.5386570  84.0276497   1.9087946  76.3837226  84.4144371
   1.3943755  76.7658430  83.9633030   3.2418963  82.1832979  87.3121607
   2.4116667  82.3943622  87.4755024   3.1928216  81.3570033  87.0363891
   3.1125699  82.0922585  87.2958972   2.7372922  74.8303379  91.1072028
   1.9001343  74.9005566  91.3419623   2.7061153  74.8327874  90.2346331
   2.6091204  74.8413606  91.0131576   3.6327625  79.5713253  86.3405960
   4.2944059  79.0103921  86.2401869   2.9919037  79.0765284  86.6658651
   3.6356492  79.4149662  86.3738300   1.7482912  79.4280301  83.9187553
   2.0791129  79.9607941  83.3127648   2.3216000  79.4819189  84.5749504
   1.8816591  79.5149870  83.9265334   2.8562264  74.6690798  85.4227714
   2.5998829  73.8570740  85.2325597   3.6991578  74.6768365  85.1957902
   2.9428289  74.5502796  85.3612531   1.5623844  81.6084843  91.3214561
   1.2569661  82.3412900  91.6827877   0.8430059  81.2022772  91.0407347
   1.4111186  81.6566576  91.3327698   7.2625636  78.2477844  90.6482906
   7.1950136  78.2673803  89.7785492   7.2481298  79.0908171  90.8738576
   7.2504392  78.3751578  90.5535383   5.0484253  77.0222230  88.9229500
   5.5992175  76.3890299  89.1626592   5.0328369  77.5537623  89.6145004
   5.1269450  77.0071178  89.0608358   1.1461149  78.3878135  87.1954881
   1.0595123  78.5433561  88.0489660   0.6911629  79.0316211  86.8214286
   1.0664405  78.5053890  87.2661988   3.9791726  80.1677761  92.1678630
   4.0374850  80.6164410  92.9138606   3.3458194  80.5776574  91.7308710
   3.8943021  80.2951495  92.2131178   0.9313405  78.1894049  90.2544320
   0.6911628  77.3500464  90.2586747   1.4105413  78.2694215  90.9785094
   0.9665589  78.0775448  90.3619123   2.9318592  74.9695506  88.2073579
   2.6928362  74.9291340  87.3694364   3.0952494  75.8166658  88.3339300
   2.9208896  75.0887591  88.1027061   1.9699937  78.3171866  92.6409174
   2.5617777  78.9569117  92.6727372   2.4058931  77.6194903  92.9301241
   2.1218368  78.3090216  92.6890007   2.7921405  81.6256307  81.7627867
   3.1755011  82.3747663  81.9925964   1.9965519  81.8722126  81.5039856
   2.7315188  81.7726000  81.7585440  12.2839181  92.2027242  83.8558228
  12.2533185  93.0571878  84.0276497  12.8820530  91.9022534  84.4144371
  12.3676339  92.2843738  83.9633030   5.4838866  91.2902893  88.6111158
   4.6276761  91.4511391  88.6620275   5.5306519  90.4194957  88.6316219
   5.3637977  91.1853694  88.6217224   8.7932582  97.5589418  98.2171614
   9.4999350  97.0641449  98.3458549   8.9820518  97.9998500  97.4874272
   8.9260488  97.5507769  98.1280660   5.3204965 101.2490980  79.8033937
   4.9856334 101.9267902  79.3678159   5.8331836 100.8596291  79.2150809
   5.3470546 101.2915558  79.6520728   4.8609257 103.2005249  85.7445048
   5.2448636 103.7692147  85.2049824   4.7968398 102.4754759  85.2650864
   4.9082684 103.1780712  85.5938911   8.3290687  93.3494937  91.2542810
   8.8746647  94.0280023  91.3136780   8.2707563  93.2082397  90.3944391
   8.4006601  93.4286938  91.1354870   1.4464762 100.8384003  86.6411162
   1.5475125 100.0284357  86.9508290   0.8506507 100.7440949  86.0110841
   1.3737300 100.7049031  86.5937401  10.1055755  94.7779544  82.1276538
   9.9895281  95.5287230  82.5568676  10.9011642  94.5203497  82.3772625
  10.2060345  94.8514391  82.2280629   1.2865501 105.7561592  88.0426018
   1.9302957 106.1974756  88.4322177   1.6121757 104.9515018  87.9556277
   1.4297330 105.7026787  88.0871496   1.9886081  98.7673567  83.4145880
   2.3101922  99.3078774  82.8107188   2.6358177  98.1970338  83.5468170
   2.1312136  98.7632742  83.3452915   4.0387789  90.7689562  83.4980267
   4.7367954  90.9477689  83.9901730   4.3540121  90.2459901  82.8750656
   4.1883126  90.7183334  83.4782277   4.2275724  97.1560007  83.4860058
   4.6669360  96.5477107  83.9314831   4.0780387  96.7767380  82.7145523
   4.2697190  97.0098478  83.4379226   1.6947367  95.7504018  90.6878884
   2.3396370  95.2576462  90.3689832   1.9349144  95.8928805  91.5144962
   1.8257952  95.6981461  90.7628417   4.2333459  98.5958924  90.3385776
   4.5156702  97.8010330  90.1172532   4.9619619  99.0739512  90.3590837
   4.3823022  98.5493521  90.3088791   2.2114653  86.1381958  87.5801541
   1.8817983  86.5893102  86.9105240   1.5359654  86.0598122  88.1274548
   2.0625089  86.1933093  87.5624765   7.8285061  95.5087188  80.4390827
   7.7436356  96.3648155  80.5840396   8.3169444  95.2331512  81.1072987
   7.8873958  95.5944509  80.5592909   9.4191060  82.1267481  85.8251152
   9.1044501  82.8170960  86.2571574   8.9018002  82.0712263  85.1236653
   9.2955531  82.2202370  85.7848101   8.7603494  92.1271982  81.9388563
   8.2314966  92.3431616  82.5985869   9.2828514  92.8208121  81.8589532
   8.7591947  92.2615119  82.0244162  14.2151547  97.7018287  87.3121607
  13.3849250  97.9128930  87.4755024  14.1660799  96.8755341  87.0363891
  14.0858282  97.6107893  87.2958972   2.2761285 100.5322141  90.1469517
   1.7588226 100.1729556  89.5430825   2.9735676 100.0084315  90.1575583
   2.3026866 100.4019829  90.0599775   5.1080316  92.2700851  79.2164951
   5.3476320  92.4778835  78.4040294   5.4296157  91.4658360  79.3253896
   5.1917474  92.1814952  79.1125504  13.7105505  90.3488687  91.1072028
  12.8733926  90.4190874  91.3419623  13.6793736  90.3513182  90.2346331
  13.5823788  90.3598914  91.0131576   4.4527390  83.6090976  82.7951626
   5.1813551  83.4306931  82.3489782   4.5422283  84.4509056  83.0058804
   4.5734053  83.7074855  82.7605144   8.4335691  94.5444364  86.6983920
   9.1893206  94.9775878  86.7372829   8.5398016  93.8949133  87.2718556
   8.5605862  94.5121848  86.7881945  11.4715862  98.3717641  87.4486323
  11.0351094  98.3754383  88.2045294  11.1378778  99.0523140  87.0165900
  11.3578482  98.4730097  87.4967155  11.3913345  85.4131469  89.6915751
  12.0339254  85.4829573  90.2777666  11.6436366  84.7460692  89.1895293
  11.5235477  85.3257817  89.7043030   6.2015329 102.3236076  92.4195929
   5.4030575 102.0835576  92.6769797   6.6501341 102.3750469  93.1662976
   6.1489940 102.2958467  92.5680853  14.6060208  95.0898561  86.3405960
  15.2676643  94.5289229  86.2401869  13.9651620  94.5950592  86.6658651
  14.6089076  94.9334970  86.3738300   5.4937016  98.3868692  78.6486883
   5.9088165  98.0553716  77.9571379   4.6628946  98.1537594  78.5207020
   5.4325025  98.3039948  78.5277731  10.8925039  96.1063943  86.0817949
  11.1280628  96.2509142  85.2544799  11.0414603  96.8706351  86.4749462
  10.9490842  96.2402998  86.0181553  12.7215496  94.9465609  83.9187553
  13.0523713  95.4793249  83.3127648  13.2948584  95.0004497  84.5749504
  12.8549175  95.0335178  83.9265334   7.9347385  92.7930512  84.6011133
   8.0294239  93.5319806  85.0550758   7.3106229  92.3647987  85.0345697
   7.8556415  92.8391832  84.7319280   6.1899859  95.9716724  95.2501414
   6.7638721  95.3343969  95.4049978   6.1114663  95.9720807  94.3811071
   6.2633094  95.8781836  95.1447825   8.1870406  94.6379252  77.8348085
   8.1050569  94.7081439  78.7003072   8.8250127  95.2008996  77.6431825
   8.2690244  94.7318223  77.9338034   1.5463577  94.4039990  87.3022611
   1.2882822  93.5711724  87.2753911   1.6012060  94.6297603  86.4615111
   1.5163355  94.3137761  87.1742748   6.6264628  86.5068440  87.4026704
   5.9220954  86.0177626  87.5610623   6.6749602  86.5190915  86.5315148
   6.5294679  86.4358088  87.2966044   4.1871578  90.4301101  92.6479884
   3.7986011  90.0055319  91.9932075   3.5226277  90.6783251  93.1556911
   4.0318506  90.4039822  92.6267752  13.8294847  90.1876106  85.4227714
  13.5731412  89.3756048  85.2325597  14.6724161  90.1953673  85.1957902
  13.9160873  90.0688104  85.3612531   8.0097940  84.1275730  90.1603868
   8.3908452  83.4453901  90.5471743   7.2061224  83.8385332  89.9779533
   7.9474402  83.9842779  90.1907924   5.2910517  94.6599706  80.8456691
   6.1051155  94.9514599  80.7339463   5.2269658  94.0059568  80.2714984
   5.4013256  94.6064901  80.7445529  11.5120007  97.3425702  95.2586267
  11.2758644  96.5113767  95.1398328  12.1563236  97.2911309  95.8441111
  11.5714677  97.2123390  95.3272160   1.1618425  98.1321223  85.9729003
   1.7992372  97.8932971  86.5180797   1.5873496  98.3358382  85.2382164
   1.3194591  98.1272234  85.9446161   1.8021240  93.3523513  80.3103893
   2.1866393  93.1331220  81.0620438   1.5532860  94.1786459  80.4404969
   1.8223312  93.4421659  80.4404969   1.9689780  86.6329928 100.0266477
   1.6543221  87.4029491  99.7636040   1.6479713  86.0700184  99.4418704
   1.8748699  86.6640197  99.9007827  12.5356427  97.1270151  91.3214561
  12.2302244  97.8598208  91.6827877  11.8162643  96.7208080  91.0407347
  12.3843770  97.1751884  91.3327698   3.5439897  98.6093646  87.6522790
   3.6178905  98.4468818  88.5064640   4.3609403  98.7983836  87.4083271
   3.6756255  98.6130388  87.7420815  18.2358219  93.7663152  90.6482906
  18.1682720  93.7859111  89.7785492  18.2213882  94.6093479  90.8738576
  18.2236976  93.8936886  90.5535383   8.6454566  85.1698309  93.9723995
   9.3908158  84.9808120  93.5587420   8.2291871  85.6956547  93.4137851
   8.6939540  85.2200455  93.8288568   2.0844482 101.5728389  82.3836263
   2.3742781 101.1817370  81.6595490   2.8147963 101.7545094  82.8241538
   2.2351367 101.5422203  82.3419070  16.0216837  92.5407538  88.9229500
  16.5724758  91.9075607  89.1626592  16.0060952  93.0722931  89.6145004
  16.1002033  92.5256486  89.0608358   2.6739228  96.3746135  93.4689393
   2.1750921  97.0861903  93.5474282   3.4839452  96.6946802  93.4307556
   2.7195334  96.5272984  93.4745962   9.7245243  90.7803871  88.0334096
   9.3810009  90.0594207  88.3841346   9.8238286  90.5717723  87.1912454
   9.6887286  90.6428075  87.9605776   2.1918354 104.9225161  84.2327105
   2.8442412 104.3901604  84.4618131   1.4943962 104.5693814  84.6194979
   2.1849072 104.7914684  84.3239273  10.1858272  97.2429575  83.5758084
  10.7516305  97.9022785  83.4916627   9.5386176  97.5879274  84.0474486
  10.1737029  97.3911517  83.6330841   1.6006286  89.2327179  98.7651692
   0.7906061  89.5384959  98.6541534   2.0780972  89.9532762  98.8804276
   1.5509764  89.3841781  98.7658763   6.6564850 100.1868360  82.9995164
   6.4151526  99.4536220  82.5922229   6.8366183 100.7355217  82.3461497
   6.6472474 100.1590751  82.8425387   1.8864171  95.4776919  84.4116086
   1.6906953  96.0851654  83.8176389   2.1098516  94.7844863  83.9307760
   1.8898812  95.4654445  84.2532167   8.2436208  88.6995456  89.9093639
   7.4047309  88.7256735  89.6731902   8.3140576  89.3466192  90.4898986
   8.1304602  88.7991582  89.9602756   6.6905487  85.5980833  84.6421255
   7.3931840  85.3988581  84.1641213   6.4249675  84.8256776  84.9490099
   6.7552119  85.4543799  84.6166697  12.1193732  93.9063443  87.1954881
  12.0327707  94.0618869  88.0489660  11.6644212  94.5501518  86.8214286
  12.0396989  94.0239198  87.2661988   1.4534043  86.8616118  93.6952136
   1.2617240  86.8771253  94.5451559   2.3032639  87.0579793  93.6718791
   1.5509765  86.8930470  93.8175430   5.9919548  91.2274190  85.8180440
   5.7454263  91.1469941  86.6517229   6.3204671  90.4427658  85.6242968
   6.0040792  91.1000455  85.9127963   9.8867597  97.9357549  89.6067222
   9.7481956  98.6338595  90.1115964   9.1067595  97.7806206  89.2503403
   9.7510824  98.0157716  89.6293496   8.2245682  94.2353925  95.8589603
   8.2193721  93.3633741  95.8632030   8.9306676  94.4342094  95.3859059
   8.3290686  94.1357799  95.7896639   1.9516576  93.9630909  95.2303423
   2.0959951  94.5432117  94.5946533   2.2992224  94.3407205  95.9353278
   2.0244037  94.1051613  95.2402418   4.1236493  93.1621077  93.0128555
   3.3759807  93.3552091  92.6076833   4.2778018  92.3366297  92.7752676
   4.0358921  93.0686188  92.9173961  11.3820970  97.2935803  80.3683721
  11.0027779  96.5072941  80.3613010  10.7187215  97.8422660  80.2255365
  11.2279445  97.2580627  80.3464518   4.3638270  87.0571628  93.9023959
   4.8210884  87.7895602  94.0296751   4.4394599  86.6338093  94.6611215
   4.4429240  87.1028866  94.0325035   8.8365596  80.2361503  87.7717802
   8.9549164  80.6937966  87.0385104   8.6627772  79.4306764  87.4854019
   8.8284767  80.1855275  87.6218735   4.2067878 100.8449322  84.2072547
   4.9717769 100.5758966  83.8855211   4.1045968 100.3599333  84.9242610
   4.3049374 100.7338887  84.2652375   2.2420648  89.0473732  90.7465783
   1.4516723  88.8665192  91.0683119   2.6381271  88.2700684  90.7296077
   2.1837524  88.9061193  90.7918331   6.7286539  97.8761506  76.1872496
   7.4959524  97.9361631  75.7778348   6.2817848  97.3041947  75.7028815
   6.7759966  97.7998082  76.0550207   7.6264334  96.6816162  88.4725229
   6.9509336  96.4501394  88.9738616   7.6356710  96.0737345  87.8467334
   7.5282839  96.5575087  88.4541381   4.7558478  91.5233991  95.2289282
   4.6917619  92.3843947  95.1009418   4.8955666  91.2065984  94.4284833
   4.7673948  91.6034157  95.0917495   9.6281069  99.5381294  80.7035407
   9.7100906 100.3448280  80.3796858  10.1130811  99.5577253  81.4276180
   9.7118227  99.6601957  80.7622305   3.4377572  94.2166130  89.3705485
   3.0139821  94.4170629  88.6344503   3.2622427  93.3694978  89.4829784
   3.3488453  94.1214912  89.2779175   5.2639162  94.0876065  83.6726820
   5.8054707  93.5846446  84.1365441   5.5785721  94.0341260  82.8616306
   5.3903559  94.0055486  83.6210632   3.4325611  99.4793417  80.9566848
   3.5018432  98.6207955  81.0959849   4.2114067  99.6965298  80.6285873
   3.5578461  99.3846281  80.9284006   6.4128431  88.9812370  93.7249121
   6.6270401  88.3423284  93.1712475   5.7962330  89.4258193  93.2956983
   6.3533760  88.9522513  93.5799552   7.8233099 101.9031118  85.1703342
   7.4312891 101.5997833  84.4526208   7.9786171 102.7400208  84.9808296
   7.7886689 101.9814955  85.0359839   8.5767519  90.5901435  94.6632428
   7.7644201  90.2827325  94.7445601   9.0357454  90.1100435  95.2275140
   8.5247904  90.4737927  94.7587022   7.9872774  98.4681107  85.1109372
   7.6287428  98.6395750  85.8873405   7.5011484  98.9294312  84.5537371
   7.8631471  98.5620078  85.1434641   5.8043160  82.0912305  88.7136464
   4.9336718  82.0651026  88.6669773   6.0583501  81.9189497  87.8962309
   5.7136720  82.0622449  88.5856600   2.7761139  94.1480272  77.6509607
   3.0653664  94.9245155  77.9253181   2.8632938  93.6369004  78.3524106
   2.8315395  94.1872191  77.7952104   5.6721027  91.9961506  99.4461130
   6.1420658  92.6203623  99.8329004   5.7182907  91.3278482 100.0054345
   5.7488902  91.9896187  99.5861202   2.8292300  84.1018534  90.1709934
   2.3130789  83.4098725  90.2961513   2.2686229  84.7689311  90.1172533
   2.6698813  84.0981791  90.1816000   4.8984534  84.6411494  92.0002787
   4.5116287  84.6660525  92.7816317   4.4117471  84.0753172  91.5477303
   4.7697043  84.5607245  92.0490690   9.1477513  99.3585003  96.0576573
   9.7857234  98.8645198  95.7239029   8.5051605  99.2862403  95.4728800
   9.1471740  99.2744011  95.9218928  10.8734513  91.2074149  90.6242489
  10.4462121  91.1200497  89.8690588  10.2360566  91.3151924  91.2097333
  10.7164120  91.2106809  90.5987930   4.5641675  81.5278479  94.2913046
   5.1934793  82.0638779  94.0134117   4.7327538  81.4355838  95.1426612
   4.6819470  81.5939841  94.3761575   4.3655590  86.3149674  96.5639458
   5.1929020  86.0434823  96.6198073   4.3863436  87.1110516  96.9203276
   4.4908440  86.3929428  96.6254641   9.2031770 100.0504811  92.6981930
   9.9924148  99.6993876  92.8184012   9.3775367 100.8641199  92.4358564
   9.3452051 100.1190668  92.6769798   8.0565594  84.0614368  87.2598348
   8.2615187  83.9936676  88.1055345   7.7292018  84.8673189  87.1919526
   8.0380842  84.1700308  87.3758003   2.7541745  91.3894936  89.0007316
   2.4504882  90.8350924  89.6017724   2.0521166  91.5687146  88.5135350
   2.6057955  91.3339718  89.0177022   1.8107842  88.6995456  83.5652018
   2.0867576  87.9814368  83.1529586   2.4106511  89.2980376  83.3573124
   1.9401107  88.6815826  83.4732779  11.3099282  84.6146132  86.7401114
  10.6973595  85.1016534  87.1254846  11.4063456  83.9389623  87.2838765
  11.2337179  84.5864441  86.8779972   5.3118363  86.3708973  81.8398613
   5.7662109  86.5419534  82.5646458   5.7858408  85.7577084  81.4396389
   5.4486683  86.3059858  81.8872375  14.9524310  95.6863069  92.1678630
  15.0107433  96.1349717  92.9138606  14.3190777  96.0961882  91.7308710
  14.8675605  95.8136803  92.2131178   8.5923404 101.3066611  88.6033376
   8.3943093 101.7957425  87.9089587   7.9711115 101.5107852  89.1817509
   8.4710969 101.4083149  88.5856599   2.6531383  93.0751507  82.9443620
   3.3973427  93.4625784  83.1826570   2.7992079  92.2308933  83.1084108
   2.7841968  93.0081980  83.0037590   4.5710958  84.8701766  87.9775482
   3.7247003  85.0424574  87.8516832   4.5682090  84.0651110  88.3141310
   4.4458108  84.7762795  88.0086609   5.6409258  88.6476981  88.8437540
   5.1669213  88.1218743  89.3542851   6.0127394  88.1006454  88.2752401
   5.6259147  88.4892977  88.8352687  11.9045989  93.7079356  90.2544320
  11.6644212  92.8685772  90.2586747  12.3837996  93.7879523  90.9785094
  11.9398173  93.5960756  90.3619123   7.5692758  89.5413535  81.9063294
   7.0415777  89.6242279  81.2169002   8.0288466  90.2831407  81.9027938
   7.5594609  89.6634198  81.8037989  13.9051176  90.4880814  88.2073579
  13.6660946  90.4476648  87.3694364  14.0685077  91.3351966  88.3339300
  13.8941479  90.6072899  88.1027061  10.5097206  94.8730763  94.1378624
  11.2331405  94.4203289  93.9589644  10.2447168  95.1535429  93.3550952
  10.5778479  94.8481731  93.9957340   7.1229841  98.1117099  81.0372951
   7.8464039  98.5775212  80.8937524   6.6830432  98.1790709  80.2870548
   7.1645533  98.1900936  80.9057732   6.2915996  94.9714641  92.2873640
   5.6772989  94.4272691  92.5822275   6.8083281  94.4578878  91.8079456
   6.2771658  94.8151050  92.2597868   5.5312293  96.0418911  90.0217938
   5.1039901  95.4168630  89.5883374   5.5237237  95.7593833  90.8476945
   5.4671434  95.9071692  90.0797766   6.5895123  83.2445320  93.6457162
   6.0935684  83.4408994  92.9548728   7.3464185  83.6437988  93.4745963
   6.6281948  83.3323054  93.5177298   3.8598002  86.9187666  90.2360472
   3.8840490  86.3847778  89.5473252   4.1109476  86.4104975  90.8986063
   3.9007921  86.7648570  90.2325117   1.5613688  92.1618994  91.9140116
   0.7305618  92.3292812  91.7075364   1.5065205  91.7854945  92.6989001
   1.4303103  92.1308725  91.9988644  12.9432520  93.8357174  92.6409174
  13.5350360  94.4754424  92.6727372  13.3791515  93.1380210  92.9301241
  13.0950951  93.8275524  92.6890007   1.5428937  87.2355672  79.7468252
   1.8644778  86.7558754  79.0927514   1.8055881  88.0455318  79.5559064
   1.6294963  87.2845570  79.6223744   4.7725910  98.2574546  93.2667068
   4.2651001  98.8110393  93.7107699   4.4752556  98.3182836  92.4485843
   4.6530795  98.3480857  93.2115525   6.9388092  86.6227866  92.1091731
   7.3643164  86.1700392  91.4975258   6.3245085  86.0687936  92.3856519
   6.9116738  86.4741842  92.0596756   7.3833690 102.1737804  81.1971012
   6.6663000 101.9998666  80.7318249   8.0340428 101.9390376  80.6646498
   7.3735541 102.1133596  81.0500230   5.3782315  83.0942966  85.5182308
   4.7350633  82.9440612  86.0867447   5.0381722  82.8485311  84.7531413
   5.2327392  83.0355088  85.4885323   9.9681661  91.0502392  84.9412317
   9.2972851  91.5932095  84.8125382  10.6621412  91.5197248  84.6994012
   9.9710529  91.2000664  84.8867844   4.0168395 103.1899104  90.1724075
   3.7934050 102.4317934  90.5408101   3.5278239 103.2197126  89.4504515
   3.9111844 103.0821329  90.1200816  10.1309789  87.5058276  87.8502690
  10.4837399  87.0787999  88.5248489   9.2724590  87.4209120  87.9803766
  10.0559234  87.4303017  87.9697700   8.1293055  90.7693645  91.7987532
   8.1090982  90.5876940  92.6522311   8.1772255  91.6405663  91.7747116
   8.1327696  90.8710183  91.9210827   6.0739385  97.3580837  97.7236009
   6.0335239  96.7130514  97.1381165   6.8862703  97.3017454  98.0361421
   6.1882538  97.2539803  97.6832958   2.6646852 103.4099563  87.6261160
   2.2507251 102.7473693  87.2365001   3.3494226 103.5577421  87.1056854
   2.7045224 103.3340221  87.4917657   6.0312146 102.5689648  88.3784776
   5.6328429 102.6791918  87.6105596   5.4163366 102.7771714  88.9611336
   5.8811036 102.6163216  88.3516076   4.6040048  89.1763796  81.2458916
   4.0104888  89.4980792  80.6943483   4.6415326  88.3304891  81.0380022
   4.5214437  89.0988124  81.1341687  11.5633849  82.6276688  88.7787002
  11.0564714  81.9205827  88.7108180  12.3601283  82.2969877  88.9088079
  11.6061088  82.4749839  88.7885997   7.4797865  89.1343300  84.6760666
   7.2511558  89.1576002  83.8339024   7.7395941  88.3100767  84.7955677
   7.4844053  89.0159380  84.5685864   1.7617093  90.9877773  94.2785766
   1.2495996  90.3798956  94.6370798   1.5896589  91.7034366  94.7459742
   1.6606730  91.0041072  94.4001990  13.7653989  97.1441614  81.7627867
  14.1487595  97.8932971  81.9925964  12.9698102  97.3907434  81.5039856
  13.7047771  97.2911308  81.7585440   5.6386164  88.9102018  96.7188022
   6.1957594  88.6815827  96.0866487   5.3147229  89.6707683  96.4423234
   5.6732574  88.9885854  96.5844519   3.3569281  91.9969671  97.6840029
   4.1080608  92.3121348  97.9979583   3.5491857  91.7948842  96.8573951
   3.4960695  92.0137053  97.6083425   2.5769281  89.8161046  79.3388246
   2.9568245  89.8340675  78.5539361   1.8361877  90.2615035  79.2179093
   2.5238118  89.8842821  79.2051814  10.2054571  88.1243237  84.9263824
  10.2048797  87.9691894  85.7848101  10.0010751  88.9706224  84.8705210
  10.1754349  88.2263858  85.0451764   7.9295423  92.8040739  88.5800031
   8.4249088  92.0863734  88.5404052   7.1195199  92.5011537  88.4654518
   7.8839316  92.6538385  88.5573757   3.3754035  96.6538552  80.7297036
   2.5665357  96.3305226  80.6830345   3.8828943  95.9471775  80.6625284
   3.3303701  96.5019869  80.7127330   9.9947242  95.5544427  91.2677160
  10.4202314  95.0318849  90.7147585   9.6304162  96.1525264  90.7465783
  10.0033845  95.5654654  91.1086170   6.5825841  99.2678691  87.5978318
   7.0537020  99.9818954  87.7668303   6.9186020  98.6677441  88.1338187
   6.7020956  99.2850155  87.7010694   3.4995336  84.0406162  94.5536412
   3.6323242  83.2437155  94.8817388   3.8840489  84.5672565  95.1334688
   3.5751665  84.0006078  94.6879915   7.2199788  99.0596625  94.3606010
   6.6720734  98.4354509  94.0926076   7.6812816  99.2490897  93.6450090
   7.2066997  98.9955675  94.2156441   6.5727692  80.9636488  91.1517506
   5.7673655  80.8534217  91.4685344   6.4434427  81.0648943  90.2947371
   6.4347824  80.9620158  91.0725546  10.0293652  87.1281980  91.7457203
   9.4456641  87.6291186  91.3334770  10.3497946  86.6211536  91.1121526
   9.9906827  87.1273815  91.5915710   2.5688451  86.0422574  82.0215877
   3.3904146  86.2120887  81.7797572   2.1058102  86.1969835  81.2982175
   2.6219613  86.0904307  81.8787522   1.1583783  84.0365337  92.8014306
   1.7028196  83.6956463  93.3918648   1.2120719  84.8950798  92.9435591
   1.2472903  84.1120596  92.9096180   6.7858114 100.0647698  90.8915351
   7.6056488  99.9210664  91.1531647   6.5052192 100.6893897  91.4331789
   6.8654857 100.1358050  91.0103291  23.2571764 107.7212549  83.8558228
  23.2265769 108.5757186  84.0276497  23.8553113 107.4207842  84.4144371
  23.3408922 107.8029046  83.9633030  16.4571449 106.8088201  88.6111158
  15.6009345 106.9696699  88.6620275  16.5039103 105.9380264  88.6316219
  16.3370561 106.7039002  88.6217224  19.7665166 113.0774726  98.2171614
  20.4731933 112.5826757  98.3458549  19.9553101 113.5183808  97.4874272
  19.8993071 113.0693076  98.1280660  19.3023270 108.8680244  91.2542810
  19.8479230 109.5465331  91.3136780  19.2440147 108.7267705  90.3944391
  19.3739185 108.9472246  91.1354870  21.0788339 110.2964852  82.1276538
  20.9627865 111.0472538  82.5568676  21.8744226 110.0388805  82.3772625
  21.1792928 110.3699698  82.2280629   7.9152477 104.5475328  89.1647804
   7.2957509 103.9567975  88.9957818   7.8136340 105.1386763  88.5312127
   7.8090152 104.5479410  89.0452793  15.0120373 106.2874869  83.4980267
  15.7100537 106.4662997  83.9901730  15.3272705 105.7645209  82.8750656
  15.1615710 106.2368642  83.4782277   7.6421610 108.0927609  91.4091373
   7.5180307 108.6790055  92.0441191   8.2939894 107.5987805  91.7103648
   7.7195259 108.1066414  91.5477302  12.6679951 111.2689326  90.6878884
  13.3128953 110.7761769  90.3689832  12.9081728 111.4114113  91.5144962
  12.7990536 111.2166769  90.7628417  13.1847236 101.6567266  87.5801541
  12.8550566 102.1078410  86.9105240  12.5092238 101.5783429  88.1274548
  13.0357672 101.7118401  87.5624765  18.8017644 111.0272496  80.4390827
  18.7168940 111.8833462  80.5840396  19.2902028 110.7516820  81.1072987
  18.8606542 111.1129817  80.5592909  20.3923644  97.6452789  85.8251152
  20.0777085  98.3356268  86.2571574  19.8750586  97.5897571  85.1236653
  20.2688114  97.7387678  85.7848101  19.7336078 107.6457290  81.9388563
  19.2047549 107.8616924  82.5985869  20.2561098 108.3393428  81.8589532
  19.7324531 107.7800427  82.0244162  25.1884131 113.2203594  87.3121607
  24.3581834 113.4314238  87.4755024  25.1393383 112.3940649  87.0363891
  25.0590866 113.1293201  87.2958972  16.0812900 107.7886159  79.2164951
  16.3208904 107.9964143  78.4040294  16.4028741 106.9843668  79.3253896
  16.1650058 107.7000260  79.1125504  11.3903190  99.7179555  83.0624489
  12.1449158 100.0857872  82.8241539  11.2130725 100.0919109  83.8303669
  11.4757669  99.8277742  83.1409378  24.6838089 105.8673995  91.1072028
  23.8466510 105.9376182  91.3419623  24.6526320 105.8698490  90.2346331
  24.5556371 105.8784222  91.0131576   9.7460255 102.1249874  79.7602602
   9.5635828 102.3421754  78.9343595  10.6085868 102.2388886  79.8161217
   9.8464844 102.1739771  79.6457089  15.4259974  99.1276284  82.7951626
  16.1546134  98.9492239  82.3489782  15.5154867  99.9694364  83.0058804
  15.5466636  99.2260163  82.7605144  19.4068275 110.0629672  86.6983920
  20.1625790 110.4961186  86.7372829  19.5130599 109.4134441  87.2718556
  19.5338445 110.0307155  86.7881945  22.4448446 113.8902949  87.4486323
  22.0083678 113.8939691  88.2045294  22.1111361 114.5708448  87.0165900
  22.3311066 113.9915405  87.4967155  22.3645929 100.9316777  89.6915751
  23.0071837 101.0014881  90.2777666  22.6168949 100.2646000  89.1895293
  22.4968061 100.8443125  89.7043030   9.2922282 105.4024046  78.2725075
   8.5780459 105.1162226  78.6847508   9.7766251 105.7420672  78.9131463
   9.2581645 105.4105696  78.4280710  10.1363141 104.1417340  94.3040325
   9.4434938 103.6714320  94.5501056  10.7523469 103.9155645  94.8782032
  10.1247671 104.0384472  94.4249477  25.5792792 110.6083869  86.3405960
  26.2409226 110.0474537  86.2401869  24.9384204 110.1135899  86.6658651
  25.5821660 110.4520278  86.3738300  21.8657623 111.6249251  86.0817949
  22.1013212 111.7694450  85.2544799  22.0147186 112.3891659  86.4749462
  21.9223426 111.7588306  86.0181553  23.6948079 110.4650917  83.9187553
  24.0256297 110.9978557  83.3127648  24.2681168 110.5189805  84.5749504
  23.8281759 110.5520486  83.9265334  18.9079969 108.3115820  84.6011133
  19.0026823 109.0505114  85.0550758  18.2838812 107.8833295  85.0345697
  18.8288999 108.3577140  84.7319280  17.1632442 111.4902032  95.2501414
  17.7371304 110.8529277  95.4049978  17.0847246 111.4906115  94.3811071
  17.2365677 111.3967144  95.1447825   5.7628859 108.2691242  89.0884128
   6.3402362 108.1327693  89.7276373   5.0642921 107.8127026  89.3429712
   5.7449880 108.1813508  89.2206418  19.1602990 110.1564560  77.8348085
  19.0783152 110.2266747  78.7003072  19.7982710 110.7194304  77.6431825
  19.2422827 110.2503531  77.9338034  12.5196161 109.9225298  87.3022611
  12.2615405 109.0897032  87.2753911  12.5744644 110.1482911  86.4615111
  12.4895939 109.8323069  87.1742748  17.5997211 102.0253748  87.4026704
  16.8953538 101.5362934  87.5610623  17.6482186 102.0376223  86.5315148
  17.5027263 101.9543396  87.2966044  11.4930873 107.4763060  87.7887506
  10.9180464 107.6355228  88.4251467  11.1166549 106.8398469  87.3255956
  11.3533686 107.4060873  87.8142064  15.1604162 105.9486409  92.6479884
  14.7718595 105.5240627  91.9932075  14.4958860 106.1968559  93.1556911
  15.0051090 105.9225130  92.6267752  24.8027431 105.7061414  85.4227714
  24.5463996 104.8941355  85.2325597  25.6456745 105.7138981  85.1957902
  24.8893456 105.5873411  85.3612531   1.2387692 107.1203135  85.8031946
   1.3247944 106.7435003  86.5845476   1.8663490 106.7463580  85.3251905
   1.3444243 107.0088617  85.8477424  18.9830523  99.6461038  90.1603868
  19.3641035  98.9639209  90.5471743  18.1793808  99.3570640  89.9779533
  18.9206985  99.5028087  90.1907924  16.2643100 110.1785014  80.8456691
  17.0783739 110.4699907  80.7339463  16.2002241 109.5244876  80.2714984
  16.3745839 110.1250209  80.7445529  22.4852590 112.8611010  95.2586267
  22.2491228 112.0299075  95.1398328  23.1295819 112.8096617  95.8441111
  22.5447261 112.7308698  95.3272160  12.7753823 108.8708821  80.3103893
  13.1598976 108.6516528  81.0620438  12.5265444 109.6971767  80.4404969
  12.7955896 108.9606967  80.4404969  12.9422364 102.1515236 100.0266477
  12.6275805 102.9214799  99.7636040  12.6212296 101.5885492  99.4418704
  12.8481283 102.1825505  99.9007827  23.5089011 112.6455459  91.3214561
  23.2034828 113.3783516  91.6827877  22.7895227 112.2393388  91.0407347
  23.3576353 112.6937192  91.3327698  29.2090803 109.2848459  90.6482906
  29.1415303 109.3044419  89.7785492  29.1946465 110.1278787  90.8738576
  29.1969559 109.4122194  90.5535383  10.4954261 100.5405758  85.6412673
   9.6276686 100.6128357  85.7070282  10.7829465 101.3427837  85.8300648
  10.4094009 100.6699905  85.6787440  19.6187150 100.6883617  93.9723995
  20.3640742 100.4993428  93.5587420  19.2024454 101.2141855  93.4137851
  19.6672124 100.7385763  93.8288568  26.9949420 108.0592846  88.9229500
  27.5457342 107.4260915  89.1626592  26.9793536 108.5908238  89.6145004
  27.0734617 108.0441794  89.0608358  20.6977827 106.2989179  88.0334096
  20.3542592 105.5779515  88.3841346  20.7970869 106.0903030  87.1912454
  20.6619869 106.1613383  87.9605776  21.1590856 112.7614883  83.5758084
  21.7248888 113.4208093  83.4916627  20.5118759 113.1064581  84.0474486
  21.1469612 112.9096825  83.6330841  12.5738869 104.7512487  98.7651692
  11.7638645 105.0570267  98.6541534  13.0513556 105.4718070  98.8804276
  12.5242348 104.9027089  98.7658763   8.4221613 104.0164017  83.0829549
   8.1346409 103.6465288  82.3461497   9.1092081 104.4858872  82.8213254
   8.4810510 104.0310986  82.9344625  12.8596754 110.9962227  84.4116086
  12.6639537 111.6036962  83.8176389  13.0831100 110.3030171  83.9307760
  12.8631395 110.9839753  84.2532167  11.2575284 107.8816965  84.5296954
  11.9797936 108.0458123  84.0700760  10.7783277 108.6026630  84.4236294
  11.2939015 108.0115195  84.4462568  19.2168792 104.2180764  89.9093639
  18.3779893 104.2442043  89.6731902  19.2873159 104.8651500  90.4898986
  19.1037185 104.3176890  89.9602756  17.6638070 101.1166141  84.6421255
  18.3664423 100.9173889  84.1641213  17.3982259 100.3442083  84.9490099
  17.7284703 100.9729107  84.6166697  23.0926316 109.4248751  87.1954881
  23.0060290 109.5804177  88.0489660  22.6376796 110.0686826  86.8214286
  23.0129572 109.5424506  87.2661988   5.9949807 104.7945230  83.9314831
   6.0965944 105.5971391  84.2595806   6.7905694 104.5932565  83.6337911
   6.1277713 104.8831128  83.9350186  12.4266627 102.3801426  93.6952136
  12.2349824 102.3956561  94.5451559  13.2765222 102.5765101  93.6718791
  12.5242348 102.4115777  93.8175430   6.8113540 104.9092408  91.6735952
   6.6699031 104.0576348  91.7980460   7.0954103 104.9521068  90.8498158
   6.8321386 104.7892158  91.5703576  16.9652132 106.7459498  85.8180440
  16.7186846 106.6655249  86.6517229  17.2937255 105.9612966  85.6242968
  16.9773375 106.6185763  85.9127963  20.8600181 113.4542857  89.6067222
  20.7214540 114.1523903  90.1115964  20.0800179 113.2991514  89.2503403
  20.7243408 113.5343024  89.6293496  19.1978266 109.7539233  95.8589603
  19.1926304 108.8819049  95.8632030  19.9039260 109.9527402  95.3859059
  19.3023270 109.6543107  95.7896639  12.9249159 109.4816217  95.2303423
  13.0692535 110.0617425  94.5946533  13.2724808 109.8592513  95.9353278
  12.9976621 109.6236921  95.2402418  15.0969077 108.6806385  93.0128555
  14.3492391 108.8737399  92.6076833  15.2510602 107.8551604  92.7752676
  15.0091504 108.5871496  92.9173961  22.3553554 112.8121111  80.3683721
  21.9760362 112.0258249  80.3613010  21.6919799 113.3607968  80.2255365
  22.2012028 112.7765935  80.3464518  15.3370854 102.5756936  93.9023959
  15.7943468 103.3080910  94.0296751  15.4127182 102.1523401  94.6611215
  15.4161823 102.6214174  94.0325035   7.5803845 102.8222755  94.9913402
   7.0446034 102.2103114  95.3074170   7.6421610 103.3970891  95.6447069
   7.5099477 102.8169683  95.1348829  19.8098179  95.7546811  87.7717802
  19.9281748  96.2123274  87.0385104  19.6360355  94.9492072  87.4854019
  19.8017350  95.7040583  87.6218735  13.2153231 104.5659040  90.7465783
  12.4249306 104.3850500  91.0683119  13.6113854 103.7885992  90.7296077
  13.1570108 104.4246500  90.7918331  17.7019122 113.3946814  76.1872496
  18.4692107 113.4546939  75.7778348  17.2550431 112.8227255  75.7028815
  17.7492549 113.3183390  76.0550207  18.5996918 112.2001470  88.4725229
  17.9241920 111.9686702  88.9738616  18.6089294 111.5922653  87.8467334
  18.5015422 112.0760395  88.4541381  15.7291062 107.0419299  95.2289282
  15.6650203 107.9029255  95.1009418  15.8688249 106.7251292  94.4284833
  15.7406532 107.1219465  95.0917495  14.4110156 109.7351438  89.3705485
  13.9872405 109.9355937  88.6344503  14.2355011 108.8880286  89.4829784
  14.3221036 109.6400219  89.2779175  16.2371745 109.6061373  83.6726820
  16.7787291 109.1031754  84.1365441  16.5518304 109.5526568  82.8616306
  16.3636142 109.5240794  83.6210632  17.3861015 104.4997678  93.7249121
  17.6002984 103.8608592  93.1712475  16.7694914 104.9443501  93.2956983
  17.3266344 104.4707821  93.5799552   6.2726862 107.4138440  85.1194224
   6.6525827 107.8322985  84.4554492   5.6982227 107.9951896  85.4263068
   6.2438187 107.5616299  85.0670965  19.5500103 106.1086743  94.6632428
  18.7376784 105.8012633  94.7445601  20.0090037 105.6285743  95.2275140
  19.4980487 105.9923235  94.7587022  16.7775743  97.6097613  88.7136464
  15.9069301  97.5836334  88.6669773  17.0316085  97.4374805  87.8962309
  16.6869303  97.5807757  88.5856600  13.7493723 109.6665580  77.6509607
  14.0386248 110.4430463  77.9253181  13.8365522 109.1554312  78.3524106
  13.8047979 109.7057498  77.7952104  16.6453610 107.5146814  99.4461130
  17.1153241 108.1388931  99.8329004  16.6915490 106.8463790 100.0054345
  16.7221486 107.5081494  99.5861202  13.8024884  99.6203842  90.1709934
  13.2863372  98.9284033  90.2961513  13.2418813 100.2874619  90.1172533
  13.6431397  99.6167099  90.1816000  15.8717117 100.1596802  92.0002787
  15.4848870 100.1845833  92.7816317  15.3850054  99.5938480  91.5477303
  15.7429626 100.0792553  92.0490690  21.8467097 106.7259457  90.6242489
  21.4194705 106.6385805  89.8690588  21.2093150 106.8337232  91.2097333
  21.6896704 106.7292116  90.5987930  15.5374259  97.0463787  94.2913046
  16.1667377  97.5824087  94.0134117  15.7060122  96.9541146  95.1426612
  15.6552053  97.1125149  94.3761575  15.3388174 101.8334982  96.5639458
  16.1661603 101.5620131  96.6198073  15.3596020 102.6295824  96.9203276
  15.4641024 101.9114736  96.6254641   9.9157664 108.9798845  89.7509719
   9.0745670 108.8802719  89.9588613  10.1247672 109.7494325  90.1024039
   9.8222356 109.0790888  89.8337034   7.3933231 106.6018382  87.5794469
   6.9989928 106.6761393  86.8044579   6.8373347 106.9876328  88.1302831
   7.2536043 106.6700156  87.5462129  19.0298177  99.5799676  87.2598348
  19.2347771  99.5121984  88.1055345  18.7024601 100.3858497  87.1919526
  19.0113425  99.6885616  87.3758003  13.7274329 106.9080244  89.0007316
  13.4237466 106.3536232  89.6017724  13.0253749 107.0872454  88.5135350
  13.5790538 106.8525026  89.0177022  12.7840426 104.2180764  83.5652018
  13.0600160 103.4999676  83.1529586  13.3839095 104.8165684  83.3573124
  12.9133690 104.2001134  83.4732779  22.2831865 100.1331440  86.7401114
  21.6706179 100.6201842  87.1254846  22.3796040  99.4574931  87.2838765
  22.2069763 100.1049749  86.8779972  16.2850946 101.8894281  81.8398613
  16.7394693 102.0604841  82.5646458  16.7590992 101.2762392  81.4396389
  16.4219266 101.8245166  81.8872375  10.2027094 102.5344605  91.8369369
  10.6628576 102.6083534  92.5744493  10.2483201 103.3325859  91.4869191
  10.2777650 102.6638752  91.8942126  11.8510444 103.2011300  96.4041396
  11.4596009 102.5544647  96.8397174  12.0196307 103.7922735  97.0235652
  11.8181354 103.1925567  96.5604102  25.9256893 111.2048377  92.1678630
  25.9840017 111.6535025  92.9138606  25.2923361 111.6147189  91.7308710
  25.8408188 111.3322111  92.2131178  13.6263966 108.5936815  82.9443620
  14.3706011 108.9811092  83.1826570  13.7724662 107.7494241  83.1084108
  13.7574551 108.5267288  83.0037590  15.5443542 100.3887074  87.9775482
  14.6979587 100.5609882  87.8516832  15.5414674  99.5836418  88.3141310
  15.4190691 100.2948103  88.0086609  16.6141842 104.1662289  88.8437540
  16.1401796 103.6404051  89.3542851  16.9859978 103.6191762  88.2752401
  16.5991731 104.0078285  88.8352687   6.9914872 106.1633795  94.2121085
   7.8540485 106.0629505  94.1258415   6.6606655 105.5828505  93.6506658
   7.0700068 106.0625422  94.1166491  22.8778573 109.2264664  90.2544320
  22.6376795 108.3871080  90.2586747  23.3570580 109.3064831  90.9785094
  22.9130756 109.1146064  90.3619123  18.5425342 105.0598843  81.9063294
  18.0148360 105.1427587  81.2169002  19.0021050 105.8016715  81.9027938
  18.5327192 105.1819506  81.8037989  24.8783760 106.0066122  88.2073579
  24.6393530 105.9661956  87.3694364  25.0417661 106.8537274  88.3339300
  24.8674063 106.1258207  88.1027061  21.4829790 110.3916071  94.1378624
  22.2063989 109.9388597  93.9589644  21.2179752 110.6720737  93.3550952
  21.5511063 110.3667039  93.9957340  10.3516658 104.9876244  90.8731504
   9.7269728 104.9994636  90.2657456  10.0162253 105.4636420  91.5222744
  10.2102150 105.0594761  90.8788072  10.5358407 103.3301363  76.9304189
  10.1871211 103.9821088  77.3935738  10.0554853 103.3158476  76.2028060
  10.4128651 103.4244416  76.8915280  17.2648579 110.4899949  92.2873640
  16.6505572 109.9457999  92.5822275  17.7815864 109.9764186  91.8079456
  17.2504242 110.3336358  92.2597868  16.5044876 111.5604219  90.0217938
  16.0772484 110.9353938  89.5883374  16.4969821 111.2779141  90.8476945
  16.4404018 111.4257000  90.0797766   9.6207403 106.5969392  93.0906372
   9.7800890 105.8412716  93.4958094   9.4400297 107.1460332  93.7447110
   9.6172762 106.5663206  93.2469078  17.5627706  98.7630628  93.6457162
  17.0668268  98.9594302  92.9548728  18.3196768  99.1623296  93.4745963
  17.6014531  98.8508362  93.5177298  14.8330586 102.4372974  90.2360472
  14.8573073 101.9033086  89.5473252  15.0842060 101.9290282  90.8986063
  14.8740505 102.2833878  90.2325117  11.1131908 101.1643792  89.6166216
  11.1530280 101.6652999  90.3300924  10.2881573 101.2554186  89.3472140
  10.9971434 101.2525608  89.6816755  12.5346272 107.6804302  91.9140116
  11.7038201 107.8478120  91.7075364  12.4797789 107.3040253  92.6989001
  12.4035687 107.6494033  91.9988644  10.3430055 101.1713195  97.5496526
  10.9682758 100.6275327  97.8225958   9.8880535 100.6908112  96.9804317
  10.3678316 101.0202676  97.5058120  10.9082315 105.9559893  82.4430233
  11.0485277 106.4532358  83.1458875  11.4064848 105.2546188  82.5844447
  11.0023396 105.9261872  82.5681812  10.9382538 106.8227004  79.7722810
  11.5727617 107.4187429  79.7072272  11.0208149 106.5230462  80.5868680
  11.0439089 106.8667912  79.8825897  23.9165104 109.3542482  92.6409174
  24.5082944 109.9939732  92.6727372  24.3524098 108.6565518  92.9301241
  24.0683535 109.3460832  92.6890007  12.5161521 102.7540980  79.7468252
  12.8377362 102.2744062  79.0927514  12.7788464 103.5640626  79.5559064
  12.6027546 102.8030878  79.6223744  17.9120676 102.1413174  92.1091731
  18.3375747 101.6885700  91.4975258  17.2977669 101.5873244  92.3856519
  17.8849321 101.9927150  92.0596756   7.4435526 109.0194845  83.0412356
   7.9527755 109.6159353  83.4223662   7.9169798 108.7520819  82.3588776
   7.5878901 109.0680661  82.9966879  16.3514899  98.6128274  85.5182308
  15.7083217  98.4625920  86.0867447  16.0114306  98.3670619  84.7531413
  16.2059976  98.5540396  85.4885323  20.9414245 106.5687700  84.9412317
  20.2705435 107.1117403  84.8125382  21.6353995 107.0382556  84.6994012
  20.9443113 106.7185972  84.8867844  21.1042373 103.0243584  87.8502690
  21.4569983 102.5973307  88.5248489  20.2457174 102.9394427  87.9803766
  21.0291817 102.9488325  87.9697700   9.8026058 105.6551104  85.9085536
   9.0838047 106.0715236  86.1758400  10.1738420 106.2205342  85.3577175
   9.7517989 105.8000385  85.8668343  19.1025638 106.2878953  91.7987532
  19.0823566 106.1062248  92.6522311  19.1504839 107.1590971  91.7747116
  19.1060279 106.3895491  91.9210827  17.0471968 112.8766145  97.7236009
  17.0067823 112.2315821  97.1381165  17.8595286 112.8202762  98.0361421
  17.1615122 112.7725111  97.6832958  15.5772632 104.6949104  81.2458916
  14.9837471 105.0166100  80.6943483  15.6147910 103.8490199  81.0380022
  15.4947021 104.6173432  81.1341687  22.5366433  98.1461996  88.7787002
  22.0297297  97.4391135  88.7108180  23.3333866  97.8155185  88.9088079
  22.5793672  97.9935147  88.7885997  18.4530448 104.6528608  84.6760666
  18.2244141 104.6761309  83.8339024  18.7128525 103.8286075  84.7955677
  18.4576636 104.5344688  84.5685864  12.7349677 106.5063081  94.2785766
  12.2228580 105.8984264  94.6370798  12.5629173 107.2219674  94.7459742
  12.6339314 106.5226380  94.4001990  11.5075211 103.1905154  85.9714862
  11.9832577 103.5522234  85.3365043  11.0063811 103.8461622  86.2515005
  11.5040570 103.3399343  85.9191603  24.7386573 112.6626922  81.7627867
  25.1220178 113.4118279  81.9925964  23.9430686 112.9092742  81.5039856
  24.6780355 112.8096616  81.7585440  16.6118747 104.4287326  96.7188022
  17.1690177 104.2001135  96.0866487  16.2879812 105.1892991  96.4423234
  16.6465157 104.5071162  96.5844519  14.3301865 107.5154979  97.6840029
  15.0813191 107.8306656  97.9979583  14.5224441 107.3134150  96.8573951
  14.4693279 107.5322361  97.6083425  13.5501864 105.3346354  79.3388246
  13.9300829 105.3525983  78.5539361  12.8094460 105.7800343  79.2179093
  13.4970702 105.4028129  79.2051814  21.1787155 103.6428545  84.9263824
  21.1781381 103.4877202  85.7848101  20.9743335 104.4891532  84.8705210
  21.1486932 103.7449166  85.0451764   3.2404426 107.0668330  89.3422641
   3.0626187 106.6144939  90.0677557   2.9523448 107.8694491  89.5261119
   3.1717379 107.1190888  89.4766144  18.9028007 108.3226047  88.5800031
  19.3981672 107.6049042  88.5404052  18.0927782 108.0196845  88.4654518
  18.8571900 108.1723693  88.5573757  14.3486618 112.1723860  80.7297036
  13.5397941 111.8490534  80.6830345  14.8561527 111.4657082  80.6625284
  14.3036285 112.0205177  80.7127330  20.9679826 111.0729735  91.2677160
  21.3934897 110.5504156  90.7147585  20.6036745 111.6710572  90.7465783
  20.9766428 111.0839962  91.1086170  14.4727920  99.5591469  94.5536412
  14.6055826  98.7622463  94.8817388  14.8573073 100.0857872  95.1334688
  14.5484249  99.5191386  94.6879915  17.5460275  96.4821796  91.1517506
  16.7406239  96.3719525  91.4685344  17.4167011  96.5834251  90.2947371
  17.4080408  96.4805466  91.0725546  21.0026236 102.6467288  91.7457203
  20.4189224 103.1476494  91.3334770  21.3230530 102.1396844  91.1121526
  20.9639411 102.6459123  91.5915710  13.5421035 101.5607882  82.0215877
  14.3636729 101.7306195  81.7797572  13.0790686 101.7155143  81.2982175
  13.5952197 101.6089615  81.8787522  12.1316367  99.5550645  92.8014306
  12.6760780  99.2141771  93.3918648  12.1853302 100.4136106  92.9435591
  12.2205486  99.6305904  92.9096180  31.3656227 113.1638097  85.8251152
  31.0509668 113.8541576  86.2571574  30.8483169 113.1082879  85.1236653
  31.2420698 113.2572986  85.7848101  26.3992558 114.6461592  82.7951626
  27.1278718 114.4677547  82.3489782  26.4887450 115.4879672  83.0058804
  26.5199220 114.7445471  82.7605144  33.3378512 116.4502085  89.6915751
  33.9804421 116.5200189  90.2777666  33.5901533 115.7831308  89.1895293
  33.4700644 116.3628433  89.7043030  29.9563107 115.1646346  90.1603868
  30.3373619 114.4824517  90.5471743  29.1526391 114.8755948  89.9779533
  29.8939569 115.0213394  90.1907924  30.5919733 116.2068925  93.9723995
  31.3373325 116.0178735  93.5587420  30.1757038 116.7327163  93.4137851
  30.6404707 116.2571070  93.8288568  28.6370654 116.6351449  84.6421255
  29.3397007 116.4359197  84.1641213  28.3714843 115.8627391  84.9490099
  28.7017286 116.4914415  84.6166697  30.7830763 111.2732119  87.7717802
  30.9014331 111.7308582  87.0385104  30.6092939 110.4677380  87.4854019
  30.7749934 111.2225891  87.6218735  27.7508327 113.1282921  88.7136464
  26.8801885 113.1021642  88.6669773  28.0048668 112.9560113  87.8962309
  27.6601887 113.0993065  88.5856600  26.8449701 115.6782110  92.0002787
  26.4581454 115.7031141  92.7816317  26.3582638 115.1123788  91.5477303
  26.7162210 115.5977860  92.0490690  26.5106843 112.5649095  94.2913046
  27.1399960 113.1009395  94.0134117  26.6792705 112.4726454  95.1426612
  26.6284637 112.6310457  94.3761575  30.0030761 115.0984984  87.2598348
  30.2080354 115.0307291  88.1055345  29.6757185 115.9043805  87.1919526
  29.9846009 115.2070924  87.3758003  33.2564449 115.6516748  86.7401114
  32.6438762 116.1387150  87.1254846  33.3528624 114.9760239  87.2838765
  33.1802346 115.6235057  86.8779972  26.5176125 115.9072382  87.9775482
  25.6712170 116.0795190  87.8516832  26.5147258 115.1021726  88.3141310
  26.3923275 115.8133411  88.0086609  28.5360290 114.2815936  93.6457162
  28.0400851 114.4779610  92.9548728  29.2929352 114.6808604  93.4745963
  28.5747115 114.3693670  93.5177298  27.3247482 114.1313581  85.5182308
  26.6815800 113.9811228  86.0867447  26.9846889 113.8855927  84.7531413
  27.1792559 114.0725704  85.4885323  33.5099016 113.6647304  88.7787002
  33.0029881 112.9576443  88.7108180  34.3066450 113.3340493  88.9088079
  33.5526255 113.5120455  88.7885997  25.4460504 115.0776777  94.5536412
  25.5788409 114.2807771  94.8817388  25.8305656 115.6043180  95.1334688
  25.5216832 115.0376694  94.6879915  28.5192859 112.0007104  91.1517506
  27.7138822 111.8904833  91.4685344  28.3899594 112.1019559  90.2947371
  28.3812992 111.9990774  91.0725546   1.0057421  53.6220065  70.7898275
   0.9751426  54.4764702  70.9616544   1.6038770  53.3215357  71.3484418
   1.0894579  53.7036561  70.8973077   2.9369787  59.1211110  74.2461654
   2.1067491  59.3321753  74.4095070   2.8879040  58.2948164  73.9703937
   2.8076523  59.0300716  74.2299019   2.4323746  51.7681510  78.0412075
   1.5952167  51.8383697  78.2759670   2.4011977  51.7706005  77.1686378
   2.3042028  51.7791737  77.9471623   3.3278449  56.5091384  73.2746007
   3.9894883  55.9482053  73.1741915   2.6869861  56.0143415  73.5998698
   3.3307316  56.3527793  73.3078347   1.4433736  56.3658432  70.8527599
   1.7741953  56.8986073  70.2467694   2.0166824  56.4197320  71.5089550
   1.5767415  56.4528001  70.8605381   2.5513088  51.6068929  72.3567761
   2.2949653  50.7948871  72.1665644   3.3942402  51.6146496  72.1297948
   2.6379113  51.4880927  72.2952578   6.9576460  55.1855975  77.5822952
   6.8900960  55.2051934  76.7125539   6.9432122  56.0286302  77.8078623
   6.9455216  55.3129709  77.4875429   4.7435077  53.9600361  75.8569547
   5.2942999  53.3268430  76.0966639   4.7279193  54.4915754  76.5485051
   4.8220274  53.9449309  75.9948405   3.6742550  57.1055892  79.1018677
   3.7325674  57.5542541  79.8478653   3.0409017  57.5154705  78.6648757
   3.5893845  57.2329627  79.1471225   2.6269416  51.9073637  75.1413626
   2.3879186  51.8669471  74.3034411   2.7903318  52.7544789  75.2679347
   2.6159720  52.0265722  75.0367108   1.6650760  55.2549997  79.5749221
   2.2568601  55.8947248  79.6067419   2.1009755  54.5573034  79.8641288
   1.8169192  55.2468347  79.6230054   2.4872229  58.5634438  68.6967914
   2.8705835  59.3125794  68.9266011   1.6916343  58.8100257  68.4379903
   2.4266012  58.7104132  68.6925487  11.9790005  69.1405373  70.7898275
  11.9484009  69.9950009  70.9616544  12.5771354  68.8400665  71.3484418
  12.0627163  69.2221869  70.8973077   5.1789690  68.2281024  75.5451205
   4.3227585  68.3889522  75.5960322   5.2257343  67.3573088  75.5656266
   5.0588801  68.1231826  75.5557271   8.4883406  74.4967549  85.1511661
   9.1950173  74.0019580  85.2798596   8.6771342  74.9376631  84.4214319
   8.6211312  74.4885900  85.0620707   5.0155789  78.1869111  66.7373984
   4.6807158  78.8646033  66.3018206   5.5282660  77.7974422  66.1490855
   5.0421370  78.2293689  66.5860775   4.5560081  80.1383380  72.6785095
   4.9399460  80.7070278  72.1389870   4.4919222  79.4132890  72.1990911
   4.6033508  80.1158843  72.5278958   8.0241511  70.2873068  78.1882857
   8.5697471  70.9658154  78.2476826   7.9658387  70.1460529  77.3284438
   8.0957425  70.3665069  78.0694917   9.8006579  71.7157675  69.0616584
   9.6846105  72.4665361  69.4908723  10.5962466  71.4581628  69.3112671
   9.9011169  71.7892522  69.1620676   0.9816325  82.6939723  74.9766065
   1.6253781  83.1352887  75.3662224   1.3072581  81.8893149  74.8896324
   1.1248154  82.6404918  75.0211542   1.6836905  75.7051698  70.3485927
   2.0052746  76.2456905  69.7447235   2.3309001  75.1348469  70.4808217
   1.8262960  75.7010873  70.2792962   3.7338613  67.7067693  70.4320314
   4.4318778  67.8855820  70.9241777   4.0490945  67.1838032  69.8090703
   3.8833950  67.6561465  70.4122324   3.9226548  74.0938138  70.4200105
   4.3620184  73.4855238  70.8654878   3.7731211  73.7145511  69.6485570
   3.9648014  73.9476609  70.3719272   1.3898191  72.6882150  77.6218931
   2.0347194  72.1954593  77.3029879   1.6299968  72.8306936  78.4485009
   1.5208776  72.6359592  77.6968464   3.9284283  75.5337055  77.2725823
   4.2107525  74.7388461  77.0512579   4.6570443  76.0117643  77.2930884
   4.0773846  75.4871652  77.2428838   1.9065476  63.0760089  74.5141588
   1.5768807  63.5271233  73.8445287   1.2310478  62.9976253  75.0614595
   1.7575913  63.1311225  74.4964811   7.5235885  72.4465319  67.3730874
   7.4387180  73.3026286  67.5180443   8.0120268  72.1709643  68.0413033
   7.5824782  72.5322640  67.4932956   9.1141884  59.0645612  72.7591199
   8.7995325  59.7549091  73.1911621   8.5968826  59.0090395  72.0576700
   8.9906355  59.1580501  72.7188148   8.4554318  69.0650113  68.8728609
   7.9265790  69.2809747  69.5325916   8.9779338  69.7586252  68.7929579
   8.4542771  69.1993250  68.9584209  13.9102371  74.6396418  74.2461654
  13.0800074  74.8507061  74.4095070  13.8611623  73.8133472  73.9703937
  13.7809106  74.5486024  74.2299019   1.9712109  77.4700272  77.0809563
   1.4539050  77.1107687  76.4770871   2.6686500  76.9462446  77.0915629
   1.9977690  77.3397960  76.9939822   5.6275701  77.9195086  83.0425736
   5.7159046  77.7321226  83.8903947   6.0565413  77.2732515  82.6430583
   5.7037803  77.7958094  83.1097488   3.1946160  77.2026246  82.0243399
   2.6316995  76.7898856  82.5483060   3.9567184  77.1279152  82.4436542
   3.2240609  77.1303646  82.1636399   4.8031140  69.2078982  66.1504998
   5.0427144  69.4156966  65.3380341   5.1246981  68.4036491  66.2593942
   4.8868298  69.1193083  66.0465551  13.4056329  67.2866818  78.0412075
  12.5684750  67.3569005  78.2759670  13.3744560  67.2891313  77.1686378
  13.2774612  67.2977045  77.9471623   4.1478214  60.5469108  69.7291673
   4.8764375  60.3685062  69.2829829   4.2373107  61.3887187  69.9398851
   4.2684876  60.6452986  69.6945190   8.1286515  71.4822495  73.6323967
   8.8844030  71.9154009  73.6712875   8.2348840  70.8327265  74.2058603
   8.2556686  71.4499979  73.7221992  11.1666686  75.3095772  74.3826370
  10.7301918  75.3132515  75.1385341  10.8329602  75.9901271  73.9505947
  11.0529306  75.4108228  74.4307202   5.7395760  77.3504105  85.7069520
   6.5236176  77.4634953  86.0725262   5.5392354  76.5245242  85.9028206
   5.8261785  77.2450824  85.7903906  11.0864169  62.3509600  76.6255798
  11.7290078  62.4207705  77.2117713  11.3387190  61.6838823  76.1235339
  11.2186301  62.2635949  76.6383077   5.8966153  79.2614207  79.3535976
   5.0981399  79.0213707  79.6109844   6.3452165  79.3128600  80.1003023
   5.8440764  79.2336598  79.5020900  14.3011032  72.0276692  73.2746007
  14.9627466  71.4667360  73.1741915  13.6602444  71.5328723  73.5998698
  14.3039900  71.8713101  73.3078347   5.1887840  75.3246823  65.5826930
   5.6038989  74.9931847  64.8911426   4.3579770  75.0915726  65.4547067
   5.1275849  75.2418079  65.4617778  10.5875863  73.0442074  73.0157996
  10.8231452  73.1887273  72.1884846  10.7365427  73.8084482  73.4089509
  10.6441666  73.1781129  72.9521600  12.4166320  71.8843740  70.8527599
  12.7474537  72.4171380  70.2467694  12.9899408  71.9382628  71.5089550
  12.5499999  71.9713309  70.8605381   4.9566890  73.0074652  87.2456164
   4.1639871  73.3218164  87.4308783   5.0715817  73.2226120  86.4076948
   4.8562301  73.0858489  87.1494499   7.6298209  69.7308643  71.5351180
   7.7245063  70.4697937  71.9890805   7.0057052  69.3026119  71.9685744
   7.5507239  69.7769964  71.6659327   5.8850683  72.9094856  82.1841460
   6.4589544  72.2722100  82.3390024   5.8065487  72.9098938  81.3151118
   5.9583918  72.8159967  82.0787871   7.8821230  71.5757383  64.7688132
   7.8001393  71.6459570  65.6343119   8.5200951  72.1387127  64.5771872
   7.9641068  71.6696354  64.8678081   1.2414401  71.3418121  74.2362658
   0.9833646  70.5089856  74.2093957   1.2962884  71.5675734  73.3955158
   1.2114179  71.2515892  74.1082795   6.3215452  63.4446571  74.3366751
   5.6171778  62.9555757  74.4950670   6.3700426  63.4569046  73.4655195
   6.2245503  63.3736219  74.2306090   3.8822402  67.3679233  79.5819931
   3.4936835  66.9433450  78.9272122   3.2177101  67.6161382  80.0896958
   3.7269330  67.3417954  79.5607799  13.5245671  67.1254237  72.3567761
  13.2682236  66.3134179  72.1665644  14.3674985  67.1331804  72.1297948
  13.6111697  67.0066235  72.2952578   7.7048764  61.0653861  77.0943915
   8.0859276  60.3832032  77.4811789   6.9012048  60.7763463  76.9119580
   7.6425225  60.9220910  77.1247971   4.9861340  71.5977837  67.7796738
   5.8001979  71.8892730  67.6679509   4.9220482  70.9437699  67.2055031
   5.0964080  71.5443032  67.6785575  11.2070831  74.2803833  82.1926314
  10.9709468  73.4491898  82.0738374  11.8514060  74.2289440  82.7781158
  11.2665501  74.1501521  82.2612207   0.8569249  75.0699355  72.9069050
   1.4943196  74.8311102  73.4520843   1.2824320  75.2736513  72.1722211
   1.0145415  75.0650365  72.8786207   1.4972064  70.2901644  67.2443939
   1.8817216  70.0709351  67.9960485   1.2483684  71.1164590  67.3745016
   1.5174136  70.3799791  67.3745016   1.6640604  63.5708060  86.9606524
   1.3494045  64.3407622  86.6976086   1.3430537  63.0078316  86.3758751
   1.5699523  63.6018328  86.8347874  12.2307251  74.0648282  78.2554608
  11.9253068  74.7976339  78.6167924  11.5113467  73.6586212  77.9747394
  12.0794594  74.1130015  78.2667745   3.2390721  75.5471777  74.5862836
   3.3129729  75.3846949  75.4404686   4.0560227  75.7361967  74.3423318
   3.3707079  75.5508520  74.6760862  17.9309043  70.7041283  77.5822952
  17.8633544  70.7237242  76.7125539  17.9164706  71.5471610  77.8078623
  17.9187800  70.8315017  77.4875429   8.3405390  62.1076440  80.9064042
   9.0858982  61.9186251  80.4927467   7.9242694  62.6334678  80.3477898
   8.3890364  62.1578586  80.7628615   1.7795306  78.5106520  69.3176310
   2.0693605  78.1195502  68.5935536   2.5098787  78.6923225  69.7581585
   1.9302191  78.4800334  69.2759117  15.7167661  69.4785669  75.8569547
  16.2675582  68.8453738  76.0966639  15.7011776  70.0101062  76.5485051
  15.7952857  69.4634617  75.9948405   2.3690052  73.3124266  80.4029440
   1.8701745  74.0240034  80.4814329   3.1790276  73.6324933  80.3647603
   2.4146158  73.4651115  80.4086009   9.4196067  67.7182003  74.9674143
   9.0760833  66.9972338  75.3181393   9.5189110  67.5095854  74.1252501
   9.3838110  67.5806206  74.8945823   1.8869178  81.8603293  71.1667152
   2.5393236  81.3279735  71.3958178   1.1894786  81.5071945  71.5535026
   1.8799896  81.7292816  71.2579320   9.8809096  74.1807707  70.5098131
  10.4467129  74.8400917  70.4256674   9.2336999  74.5257405  70.9814533
   9.8687852  74.3289648  70.5670888   6.3515674  77.1246491  69.9335210
   6.1102350  76.3914352  69.5262275   6.5317007  77.6733348  69.2801544
   6.3423298  77.0968882  69.7765433   1.5814995  72.4155051  71.3456133
   1.3857777  73.0229785  70.7516436   1.8049340  71.7222995  70.8647807
   1.5849636  72.4032576  71.1872213   7.9387032  65.6373587  76.8433686
   7.0998133  65.6634866  76.6071949   8.0091400  66.2844323  77.4239033
   7.8255426  65.7369713  76.8942803   6.3856311  62.5358964  71.5761302
   7.0882663  62.3366713  71.0981260   6.1200499  61.7634907  71.8830145
   6.4502943  62.3921930  71.5506743  11.8144556  70.8441574  74.1294928
  11.7278531  70.9997000  74.9829707  11.3595036  71.4879650  73.7554333
  11.7347813  70.9617329  74.2002034   1.1484867  63.7994250  80.6292182
   0.9568064  63.8149384  81.4791606   1.9983463  63.9957924  80.6058837
   1.2460589  63.8308601  80.7515477   5.6870372  68.1652321  72.7520487
   5.4405087  68.0848072  73.5857276   6.0155495  67.3805789  72.5583015
   5.6991616  68.0378587  72.8468010   9.5818421  74.8735681  76.5407268
   9.4432780  75.5716726  77.0456011   8.8018419  74.7184337  76.1843450
   9.4461648  74.9535847  76.5633543   7.9196506  71.1732056  82.7929650
   7.9144545  70.3011872  82.7972077   8.6257500  71.3720225  82.3199106
   8.0241510  71.0735930  82.7236686   1.6467400  70.9009040  82.1643470
   1.7910775  71.4810248  81.5286580   1.9943048  71.2785337  82.8693325
   1.7194861  71.0429744  82.1742465   3.8187317  70.0999208  79.9468602
   3.0710631  70.2930223  79.5416880   3.9728842  69.2744428  79.7092723
   3.7309744  70.0064320  79.8514008   0.7195155  79.0911812  79.0304497
   0.8684718  78.5314727  78.3777902   1.4995157  79.1703813  79.4137016
   0.8569248  79.0197377  78.9901446  11.0771794  74.2313934  67.3023768
  10.6978603  73.4451072  67.2953057  10.4138039  74.7800791  67.1595412
  10.9230269  74.1958758  67.2804565   3.2448455  79.2626455  80.3088988
   3.1692126  78.5935265  80.8639776   3.1738314  79.9644243  80.8229654
   3.2229062  79.2671362  80.4665836   4.0589094  63.9949759  80.8364006
   4.5161708  64.7273733  80.9636798   4.1345423  63.5716224  81.5951261
   4.1380064  64.0406997  80.9665082   8.5316420  57.1739634  74.7057849
   8.6499988  57.6316097  73.9725151   8.3578596  56.3684895  74.4194066
   8.5235591  57.1233406  74.5558782   3.9018702  77.7827453  71.1412594
   4.6668593  77.5137097  70.8195258   3.7996792  77.2977464  71.8582657
   4.0000198  77.6717018  71.1992421   1.9371472  65.9851863  77.6805830
   1.1467547  65.8043323  78.0023165   2.3332095  65.2078815  77.6636124
   1.8788348  65.8439324  77.7258378   6.4237363  74.8139637  63.1212543
   7.1910348  74.8739762  62.7118395   5.9768672  74.2420079  62.6368862
   6.4710790  74.7376213  62.9890254   7.3215158  73.6194293  75.4065276
   6.6460160  73.3879525  75.9078663   7.3307534  73.0115476  74.7807381
   7.2233663  73.4953218  75.3881428   4.4509302  68.4612122  82.1629329
   4.3868443  69.3222078  82.0349465   4.5906490  68.1444115  81.3624880
   4.4624772  68.5412289  82.0257541   9.3231893  76.4759425  67.6375454
   9.4051730  77.2826412  67.3136904   9.8081635  76.4955385  68.3616227
   9.4069051  76.5980088  67.6962352   3.1328396  71.1544261  76.3045531
   2.7090645  71.3548760  75.5684550   2.9573251  70.3073109  76.4169831
   3.0439277  71.0593043  76.2119222   2.6340089  82.6694774  78.7666989
   3.1236020  81.9705563  78.5842653   2.0624322  82.3718644  79.3543046
   2.6224619  82.5220998  78.8268030   4.9589986  71.0254196  70.6066867
   5.5005531  70.5224577  71.0705488   5.2736545  70.9719391  69.7956352
   5.0854383  70.9433617  70.5550679   8.8307093  75.2356844  87.7193779
   9.6441958  74.9641993  87.8798912   8.6702059  74.9364384  86.9153975
   8.9277041  75.1511770  87.6239185   3.1276435  76.4171548  67.8906895
   3.1969256  75.5586086  68.0299896   3.9064890  76.6343429  67.5625920
   3.2529285  76.3224412  67.8624053   6.1079255  65.9190501  80.6589168
   6.3221225  65.2801415  80.1052522   5.4913154  66.3636325  80.2297029
   6.0484584  65.8900644  80.5139599   7.5183923  78.8409249  72.1043389
   7.1263715  78.5375964  71.3866255   7.6736995  79.6778339  71.9148342
   7.4837513  78.9193086  71.9699886   8.2718343  67.5279566  81.5972475
   7.4595025  67.2205456  81.6785647   8.7308278  67.0478566  82.1615187
   8.2198728  67.4116058  81.6927069   7.6823598  75.4059238  72.0449419
   7.3238252  75.5773881  72.8213452   7.1962308  75.8672444  71.4877418
   7.5582295  75.4998209  72.0774688   5.4993984  59.0290436  75.6476510
   4.6287542  59.0029158  75.6009820   5.7534325  58.8567629  74.8302356
   5.4087544  59.0000580  75.5196647   2.4711963  71.0858403  64.5849653
   2.7604488  71.8623286  64.8593228   2.5583762  70.5747135  65.2864153
   2.5266219  71.1250322  64.7292151   5.3671850  68.9339637  86.3801177
   5.8371482  69.5581754  86.7669051   5.4133731  68.2656613  86.9394392
   5.4439726  68.9274318  86.5201248   2.5243124  61.0396665  77.1049981
   2.0081613  60.3476856  77.2301560   1.9637053  61.7067442  77.0512580
   2.3649637  61.0359923  77.1156047   4.5935358  61.5789625  78.9342833
   4.2067111  61.6038656  79.7156363   4.1068295  61.0131304  78.4817350
   4.4647866  61.4985376  78.9830737   8.8428337  76.2963134  82.9916620
   9.4808058  75.8023330  82.6579076   8.2002429  76.2240534  82.4068847
   8.8422564  76.2122142  82.8558975  10.5685337  68.1452280  77.5582536
  10.1412945  68.0578628  76.8030635   9.9311390  68.2530055  78.1437380
  10.4114944  68.1484940  77.5327977   4.2592499  58.4656610  81.2253093
   4.8885617  59.0016910  80.9474164   4.4278362  58.3733969  82.0766659
   4.3770294  58.5317973  81.3101621   4.0606414  63.2527805  83.4979505
   4.8879844  62.9812954  83.5538119   4.0814260  64.0488647  83.8543323
   4.1859264  63.3307559  83.5594688   8.8982594  76.9882942  79.6321977
   9.6874972  76.6372007  79.7524058   9.0726191  77.8019331  79.3698611
   9.0402875  77.0568799  79.6109845   7.7516418  60.9992499  74.1938395
   7.9566011  60.9314807  75.0395392   7.4242842  61.8051320  74.1259573
   7.7331666  61.1078439  74.3098050   2.4492569  68.3273067  75.9347363
   2.1455706  67.7729055  76.5357771   1.7471990  68.5065277  75.4475397
   2.3008779  68.2717849  75.9517069   1.5058666  65.6373587  70.4992065
   1.7818400  64.9192499  70.0869632   2.1057335  66.2358507  70.2913171
   1.6351931  65.6193958  70.4072826  11.0050105  61.5524263  73.6741161
  10.3924419  62.0394665  74.0594892  11.1014280  60.8767754  74.2178812
  10.9288003  61.5242572  73.8120019   5.0069186  63.3087104  68.7738660
   5.4612933  63.4797665  69.4986504   5.4809232  62.6955215  68.3736436
   5.1437507  63.2437990  68.8212422  14.6475133  72.6241200  79.1018677
  14.7058257  73.0727849  79.8478653  14.0141601  73.0340013  78.6648757
  14.5626429  72.7514935  79.1471225   8.2874228  78.2444742  75.5373423
   8.0893917  78.7335556  74.8429634   7.6661939  78.4485983  76.1157556
   8.1661793  78.3461280  75.5196646   2.3482206  70.0129639  69.8783667
   3.0924251  70.4003915  70.1166617   2.4942903  69.1687064  70.0424155
   2.4792792  69.9460111  69.9377637   4.2661782  61.8079898  74.9115529
   3.4197827  61.9802705  74.7856878   4.2632914  61.0029241  75.2481357
   4.1408932  61.7140926  74.9426656   5.3360082  65.5855112  75.7777587
   4.8620037  65.0596874  76.2882897   5.7078218  65.0384585  75.2092448
   5.3209971  65.4271109  75.7692734  11.5996813  70.6457488  77.1884367
  11.3595036  69.8063903  77.1926793  12.0788820  70.7257654  77.9125141
  11.6348997  70.5338887  77.2959169   7.2643582  66.4791667  68.8403340
   6.7366601  66.5620411  68.1509049   7.7239290  67.2209538  68.8367985
   7.2545432  66.6012329  68.7378035  13.6002000  67.4258945  75.1413626
  13.3611770  67.3854779  74.3034411  13.7635901  68.2730097  75.2679347
  13.5892303  67.5451030  75.0367108  10.2048030  71.8108894  81.0718671
  10.9282229  71.3581421  80.8929691   9.9397992  72.0913560  80.2890999
  10.2729303  71.7859863  80.9297387   6.8180665  75.0495230  67.9712997
   7.5414863  75.5153343  67.8277571   6.3781256  75.1168840  67.2210594
   6.8596357  75.1279067  67.8397779   5.9866820  71.9092772  79.2213686
   5.3723813  71.3650823  79.5162322   6.5034105  71.3957009  78.7419502
   5.9722482  71.7529181  79.1937915   5.2263117  72.9797042  76.9557985
   4.7990725  72.3546761  76.5223420   5.2188061  72.6971964  77.7816992
   5.1622258  72.8449823  77.0137813   6.2845947  60.1823451  80.5797208
   5.7886508  60.3787125  79.8888775   7.0415009  60.5816119  80.4086010
   6.3232772  60.2701185  80.4517345   3.5548826  63.8565797  77.1700519
   3.5791314  63.3225909  76.4813299   3.8060300  63.3483106  77.8326110
   3.5958745  63.7026701  77.1665164   2.0179762  72.1497355  84.6526558
   1.1675392  72.2869069  84.7884203   2.1807889  71.4161133  85.0974260
   1.9163625  72.0611456  84.7382157  12.6383344  70.7735305  79.5749221
  13.2301184  71.4132556  79.6067419  13.0742339  70.0758342  79.8641288
  12.7901775  70.7653655  79.6230054   1.2379761  64.1733803  66.6808299
   1.5595602  63.6936885  66.0267561   1.5006705  64.9833449  66.4899110
   1.3245787  64.2223701  66.5563791   4.4676734  75.1952677  80.2007115
   3.9601825  75.7488524  80.6447745   4.1703380  75.2560967  79.3825889
   4.3481619  75.2858989  80.1455572   6.6338916  63.5605997  79.0431778
   7.0593988  63.1078523  78.4315304   6.0195909  63.0066068  79.3196565
   6.6067561  63.4119973  78.9936803   7.0784514  79.1115935  68.1311058
   6.3613824  78.9376797  67.6658296   7.7291252  78.8768507  67.5986544
   7.0686365  79.0511728  67.9840276   5.0733139  60.0321097  72.4522355
   4.4301457  59.8818743  73.0207493   4.7332546  59.7863442  71.6871460
   4.9278216  59.9733219  72.4225370   9.6632485  67.9880524  71.8752364
   8.9923675  68.5310226  71.7465429  10.3572236  68.4575379  71.6334058
   9.6661353  68.1378795  71.8207891   3.7119219  80.1277236  77.1064122
   3.4884874  79.3696065  77.4748148   3.2229062  80.1575257  76.3844562
   3.6062668  80.0199460  77.0540863   9.8260613  64.4436407  74.7842737
  10.1788223  64.0166130  75.4588535   8.9675414  64.3587251  74.9143813
   9.7510058  64.3681148  74.9037747   7.8243879  67.7071776  78.7327579
   7.8041806  67.5255071  79.5862358   7.8723079  68.5783794  78.7087163
   7.8278520  67.8088314  78.8550874   5.7690209  74.2958968  84.6576056
   5.7286063  73.6508645  84.0721211   6.5813527  74.2395585  84.9701468
   5.8833362  74.1917935  84.6173005   2.3597676  80.3477694  74.5601206
   1.9458075  79.6851824  74.1705048   3.0445050  80.4955552  74.0396901
   2.3996048  80.2718352  74.4257704   5.7262970  79.5067779  75.3124823
   5.3279253  79.6170049  74.5445643   5.1114190  79.7149845  75.8951383
   5.5761860  79.5541347  75.2856122   4.2990872  66.1141927  68.1798963
   3.7055712  66.4358923  67.6283530   4.3366150  65.2683022  67.9720069
   4.2165261  66.0366255  68.0681734  11.2584673  59.5654819  75.7127049
  10.7515538  58.8583959  75.6448227  12.0552107  59.2348008  75.8428126
  11.3011912  59.4127970  75.7226044   7.1748689  66.0721431  71.6100713
   6.9462382  66.0954133  70.7679071   7.4346765  65.2478898  71.7295724
   7.1794877  65.9537511  71.5025911   1.4567917  67.9255904  81.2125813
   0.9446820  67.3177087  81.5710845   1.2847413  68.6412497  81.6799789
   1.3557554  67.9419204  81.3342037  13.4604813  74.0819746  68.6967914
  13.8438419  74.8311102  68.9266011  12.6648926  74.3285565  68.4379903
  13.3998595  74.2289440  68.6925487   5.3336988  65.8480149  83.6528069
   5.8908418  65.6193958  83.0206534   5.0098053  66.6085815  83.3763281
   5.3683398  65.9263986  83.5184566   3.0520105  68.9347802  84.6180076
   3.8031432  69.2499479  84.9319630   3.2442681  68.7326973  83.7913998
   3.1911519  68.9515184  84.5423472   2.2720104  66.7539177  66.2728293
   2.6519069  66.7718807  65.4879407   1.5312701  67.1993166  66.1519140
   2.2188942  66.8220952  66.1391861   9.9005395  65.0621369  71.8603871
   9.8999621  64.9070025  72.7188148   9.6961575  65.9084356  71.8045257
   9.8705173  65.1641989  71.9791811   7.6246247  69.7418870  75.5140078
   8.1199912  69.0241865  75.4744098   6.8146023  69.4389668  75.3994565
   7.5790140  69.5916517  75.4913804   3.0704859  73.5916684  67.6637083
   2.2616181  73.2683357  67.6170392   3.5779767  72.8849906  67.5965331
   3.0254525  73.4398000  67.6467377   9.6898066  72.4922558  78.2017207
  10.1153137  71.9696980  77.6487632   9.3254986  73.0903395  77.6805830
   9.6984668  72.5032785  78.0426217   6.2776665  76.2056822  74.5318364
   6.7487844  76.9197085  74.7008350   6.6136844  75.6055572  75.0678234
   6.3971780  76.2228286  74.6350740   8.3653650  77.8158136  86.7110436
   8.4750615  77.0266696  87.0667184   8.6944547  77.7264072  85.9084775
   8.4306056  77.6863988  86.6452827   3.1946160  60.9784293  81.4876459
   3.3274066  60.1815286  81.8157435   3.5791313  61.5050696  82.0674735
   3.2702489  60.9384209  81.6219962   6.9150612  75.9974756  81.2946057
   6.3671558  75.3732640  81.0266122   7.3763640  76.1869028  80.5790136
   6.9017821  75.9333806  81.1496488   6.2678515  57.9014619  78.0857552
   5.4624479  57.7912348  78.4025391   6.1385251  58.0027075  77.2287418
   6.1298648  57.8998289  78.0065593   9.7244476  64.0660111  78.6797249
   9.1407465  64.5669317  78.2674817  10.0448770  63.5589667  78.0461573
   9.6857651  64.0651946  78.5255757   2.2639275  62.9800706  68.9555924
   3.0854970  63.1499018  68.7137619   1.8008926  63.1347967  68.2322222
   2.3170437  63.0282439  68.8127568   0.8534607  60.9743468  79.7354353
   1.3979020  60.6334595  80.3258695   0.9071543  61.8328929  79.8775638
   0.9423726  61.0498727  79.8436226   6.4808938  77.0025829  77.8255398
   7.3007312  76.8588795  78.0871693   6.2003016  77.6272028  78.3671836
   6.5605681  77.0736181  77.9443338  22.9522588  84.6590681  70.7898275
  22.9216593  85.5135317  70.9616544  23.5503937  84.3585973  71.3484418
  23.0359746  84.7407177  70.8973077  16.1522273  83.7466332  75.5451205
  15.2960169  83.9074830  75.5960322  16.1989927  82.8758396  75.5656266
  16.0321385  83.6417134  75.5557271  10.5363413  93.2829050  71.3088437
   9.7846312  92.9044588  71.0804482  10.9849425  93.3147483  70.5607247
  10.4913080  93.2314657  71.1645939  19.4615990  90.0152857  85.1511661
  20.1682757  89.5204888  85.2798596  19.6503925  90.4561939  84.4214319
  19.5943895  90.0071208  85.0620707  15.9888373  93.7054419  66.7373984
  15.6539741  94.3831341  66.3018206  16.5015243  93.3159730  66.1490855
  16.0153954  93.7478997  66.5860775  15.5292664  95.6568688  72.6785095
  15.9132043  96.2255586  72.1389870  15.4651805  94.9318198  72.1990911
  15.5766091  95.6344151  72.5278958  18.9974094  85.8058376  78.1882857
  19.5430054  86.4843462  78.2476826  18.9390971  85.6645836  77.3284438
  19.0690009  85.8850377  78.0694917  12.1148169  93.2947442  73.5751209
  12.2158532  92.4847796  73.8848337  11.5189914  93.2004388  72.9450888
  12.0420708  93.1612470  73.5277448  20.7739163  87.2342983  69.0616584
  20.6578689  87.9850669  69.4908723  21.5695050  86.9766936  69.3112671
  20.8743752  87.3077830  69.1620676  11.9548909  98.2125031  74.9766065
  12.5986364  98.6538195  75.3662224  12.2805164  97.4078457  74.8896324
  12.0980737  98.1590226  75.0211542   5.3113213  89.3167728  73.2003543
   5.0763398  88.4835381  73.0935812   5.4498854  89.5972394  72.3864744
   5.2968876  89.2351232  73.0645898   7.6103301  81.4853459  76.0987850
   6.9908332  80.8946106  75.9297865   7.5087164  82.0764894  75.4652174
   7.5040976  81.4857541  75.9792840  12.6569488  91.2237006  70.3485927
  12.9785329  91.7642213  69.7447235  13.3041585  90.6533777  70.4808217
  12.7995544  91.2196181  70.2792962  14.7071196  83.2253001  70.4320314
  15.4051361  83.4041128  70.9241777  15.0223529  82.7023340  69.8090703
  14.8566534  83.1746773  70.4122324   7.3372434  85.0305741  78.3431419
   7.2131131  85.6168186  78.9781238   7.9890718  84.5365936  78.6443694
   7.4146083  85.0444545  78.4817349  14.8959132  89.6123446  70.4200105
  15.3352767  89.0040546  70.8654878  14.7463795  89.2330819  69.6485570
  14.9380598  89.4661917  70.3719272  12.3630775  88.2067458  77.6218931
  13.0079777  87.7139901  77.3029879  12.6032552  88.3492244  78.4485009
  12.4941360  88.1544900  77.6968464  14.9016866  91.0522363  77.2725823
  15.1840109  90.2573769  77.0512579  15.6303027  91.5302951  77.2930884
  15.0506430  91.0056960  77.2428838  12.8798060  78.5945397  74.5141588
  12.5501390  79.0456541  73.8445287  12.2043062  78.5161561  75.0614595
  12.7308496  78.6496533  74.4964811  18.4968468  87.9650627  67.3730874
  18.4119764  88.8211594  67.5180443  18.9852852  87.6894951  68.0413033
  18.5557366  88.0507948  67.4932956  20.0874468  74.5830920  72.7591199
  19.7727909  75.2734399  73.1911621  19.5701409  74.5275702  72.0576700
  19.9638938  74.6765809  72.7188148  19.4286902  84.5835421  68.8728609
  18.8998373  84.7995055  69.5325916  19.9511922  85.2771560  68.7929579
  19.4275355  84.7178558  68.9584209  24.8834955  90.1581726  74.2461654
  24.0532658  90.3692369  74.4095070  24.8344207  89.3318780  73.9703937
  24.7541690  90.0671332  74.2299019  11.3186509  88.4798638  67.6736077
  10.7343725  88.9848669  68.0801941  10.9156605  88.2541025  66.9332669
  11.1725813  88.5206886  67.6241103   6.8730538  94.1953399  74.4759749
   6.3898116  94.9203889  74.4519332   7.6853856  94.4929529  74.5869907
   6.9221286  94.3455753  74.4887028  12.9444692  92.9885580  77.0809563
  12.4271634  92.6292995  76.4770871  13.6419083  92.4647754  77.0915629
  12.9710273  92.8583268  76.9939822  16.6008284  93.4380394  83.0425736
  16.6891630  93.2506534  83.8903947  17.0297997  92.7917823  82.6430583
  16.6770386  93.3143402  83.1097488  14.1678744  92.7211554  82.0243399
  13.6049579  92.3084164  82.5483060  14.9299767  92.6464459  82.4436542
  14.1973192  92.6488954  82.1636399  15.7763724  84.7264290  66.1504998
  16.0159728  84.9342274  65.3380341  16.0979565  83.9221799  66.2593942
  15.8600882  84.6378391  66.0465551  11.0854014  76.6557686  69.9964536
  11.8399982  77.0236003  69.7581586  10.9081549  77.0297240  70.7643715
  11.1708493  76.7655874  70.0749424   9.7274735  94.7109575  74.6280029
  10.4295315  94.1961564  74.6852785   9.6472218  95.0383726  75.4326904
   9.8198496  94.6823801  74.7552821  24.3788913  82.8052126  78.0412075
  23.5417334  82.8754313  78.2759670  24.3477144  82.8076621  77.1686378
  24.2507195  82.8162353  77.9471623  10.7753642  84.9485162  83.7560444
  10.9474146  84.8391057  84.6045725  11.3122999  85.5939567  83.5191636
  10.8798646  85.0277164  83.8465541   9.4411079  79.0628005  66.6942649
   9.2586652  79.2799886  65.8683642  10.3036692  79.1767017  66.7501263
   9.5415668  79.1117903  66.5797136   9.0525511  90.9015927  74.1365637
   9.8914410  91.1338860  74.1839398   9.0837280  90.0320238  74.0672672
   9.1807228  90.8072873  74.1330281   9.6778214  91.3216802  78.4378942
  10.2176439  91.1787933  79.1082315   8.9948160  91.7213553  78.8062969
   9.6570368  91.3596473  78.5913364  15.1210798  76.0654415  69.7291673
  15.8496958  75.8870370  69.2829829  15.2105691  76.9072495  69.9398851
  15.2417460  76.1638294  69.6945190  19.1019099  87.0007803  73.6323967
  19.8576614  87.4339317  73.6712875  19.2081423  86.3512573  74.2058603
  19.2289269  86.9685287  73.7221992  22.1399270  90.8281080  74.3826370
  21.7034502  90.8317822  75.1385341  21.8062185  91.5086579  73.9505947
  22.0261890  90.9293536  74.4307202  16.7128343  92.8689413  85.7069520
  17.4968760  92.9820261  86.0725262  16.5124938  92.0430550  85.9028206
  16.7994369  92.7636132  85.7903906   5.0815359  87.5417093  78.5913364
   4.8153774  86.7256210  78.7504354   5.0953923  87.5870249  77.7208879
   5.0440081  87.4273998  78.4866846  22.0596753  77.8694908  76.6255798
  22.7022661  77.9393012  77.2117713  22.3119773  77.2024131  76.1235339
  22.1918885  77.7821257  76.6383077   8.9873106  82.3402177  65.2065122
   8.2731283  82.0540357  65.6187554   9.4717074  82.6798803  65.8471509
   8.9532469  82.3483827  65.3620757   9.8313965  81.0795471  81.2380372
   9.1385762  80.6092451  81.4841103  10.4474293  80.8533776  81.8122079
   9.8198495  80.9762603  81.3589524  16.8698737  94.7799515  79.3535976
  16.0713982  94.5399015  79.6109844  17.3184748  94.8313908  80.1003023
  16.8173348  94.7521906  79.5020900  25.2743616  87.5462000  73.2746007
  25.9360050  86.9852668  73.1741915  24.6335028  87.0514031  73.5998698
  25.2772483  87.3898409  73.3078347  16.1620424  90.8432131  65.5826930
  16.5771572  90.5117155  64.8911426  15.3312353  90.6101034  65.4547067
  16.1008432  90.7603387  65.4617778   5.4908772  88.3275872  75.8725108
   5.3084346  88.3022758  75.0197400   6.2258441  88.7974810  75.9114017
   5.5722836  88.3937235  75.7523027  21.5608447  88.5627382  73.0157996
  21.7964036  88.7072581  72.1884846  21.7098010  89.3269790  73.4089509
  21.6174250  88.6966437  72.9521600   8.5554524  85.0460875  82.3807217
   9.2794496  85.0313906  82.8672111   8.6570661  85.7556230  81.8829185
   8.6772733  85.1485578  82.3786004  23.3898903  87.4029048  70.8527599
  23.7207121  87.9356688  70.2467694  23.9631992  87.4567936  71.5089550
  23.5232583  87.4898617  70.8605381  15.9299474  88.5259960  87.2456164
  15.1372454  88.8403472  87.4308783  16.0448401  88.7411428  86.4076948
  15.8294884  88.6043797  87.1494499  18.6030793  85.2493951  71.5351180
  18.6977647  85.9883245  71.9890805  17.9789636  84.8211426  71.9685744
  18.5239823  85.2955272  71.6659327  16.8583266  88.4280164  82.1841460
  17.4322128  87.7907408  82.3390024  16.7798070  88.4284246  81.3151118
  16.9316501  88.3345275  82.0787871   5.4579683  85.2069373  76.0224175
   6.0353185  85.0705824  76.6616420   4.7593745  84.7505157  76.2769759
   5.4400704  85.1191639  76.1546464  18.8553814  87.0942691  64.7688132
  18.7733976  87.1644878  65.6343119  19.4933534  87.6572435  64.5771872
  18.9373651  87.1881662  64.8678081  12.2146985  86.8603429  74.2362658
  11.9566229  86.0275164  74.2093957  12.2695468  87.0861042  73.3955158
  12.1846763  86.7701200  74.1082795  17.2948035  78.9631879  74.3366751
  16.5904362  78.4741065  74.4950670  17.3433009  78.9754354  73.4655195
  17.1978087  78.8921527  74.2306090  11.1881697  84.4141191  74.7227553
  10.6131288  84.5733360  75.3591514  10.8117373  83.7776600  74.2596003
  11.0484509  84.3439004  74.7482111  14.8554986  82.8864540  79.5819931
  14.4669419  82.4618758  78.9272122  14.1909684  83.1346690  80.0896958
  14.7001914  82.8603262  79.5607799  24.4978255  82.6439545  72.3567761
  24.2414820  81.8319487  72.1665644  25.3407569  82.6517112  72.1297948
  24.5844280  82.5251543  72.2952578   0.9338516  84.0581266  72.7371993
   1.0198768  83.6813134  73.5185523   1.5614313  83.6841712  72.2591952
   1.0395067  83.9466748  72.7817471  18.6781347  76.5839169  77.0943915
  19.0591859  75.9017340  77.4811789  17.8744632  76.2948771  76.9119580
  18.6157809  76.4406218  77.1247971  15.9593924  87.1163145  67.7796738
  16.7734563  87.4078038  67.6679509  15.8953065  86.4623007  67.2055031
  16.0696663  87.0628340  67.6785575  22.1803414  89.7989141  82.1926314
  21.9442052  88.9677206  82.0738374  22.8246643  89.7474748  82.7781158
  22.2398085  89.6686829  82.2612207  11.8301832  90.5884663  72.9069050
  12.4675779  90.3496410  73.4520843  12.2556904  90.7921821  72.1722211
  11.9877999  90.5835673  72.8786207   6.5214475  92.8272999  76.7903354
   6.5618620  93.0987850  75.9623133   7.0808999  93.3514907  77.2061142
   6.6097821  92.9448754  76.7295242  12.4704647  85.8086952  67.2443939
  12.8549800  85.5894659  67.9960485  12.2216268  86.6349898  67.3745016
  12.4906720  85.8985099  67.3745016  12.6373188  79.0893367  86.9606524
  12.3226629  79.8592930  86.6976086  12.3163120  78.5263624  86.3758751
  12.5432107  79.1203636  86.8347874  23.2039835  89.5833590  78.2554608
  22.8985652  90.3161647  78.6167924  22.4846051  89.1771519  77.9747394
  23.0527177  89.6315323  78.2667745  14.2123304  91.0657085  74.5862836
  14.2862313  90.9032257  75.4404686  15.0292811  91.2547275  74.3423318
  14.3439663  91.0693827  74.6760862  28.9041627  86.2226591  77.5822952
  28.8366127  86.2422550  76.7125539  28.8897289  87.0656918  77.8078623
  28.8920383  86.3500325  77.4875429   7.9729061  91.4114948  71.6157280
   7.1467179  91.6576685  71.4891559   8.0341052  91.3327029  72.4819338
   7.8603228  91.4359897  71.7246224  10.1905085  77.4783889  72.5752720
   9.3227510  77.5506488  72.6410329  10.4780289  78.2805968  72.7640695
  10.1044833  77.6078036  72.6127487  19.3137973  77.6261748  80.9064042
  20.0591565  77.4371559  80.4927467  18.8975278  78.1519986  80.3477898
  19.3622948  77.6763894  80.7628615  12.7527890  94.0291828  69.3176310
  13.0426188  93.6380810  68.5935536  13.4831371  94.2108533  69.7581585
  12.9034774  93.9985642  69.2759117  26.6900244  84.9970977  75.8569547
  27.2408166  84.3639046  76.0966639  26.6744360  85.5286370  76.5485051
  26.7685441  84.9819925  75.9948405  13.3422635  88.8309574  80.4029440
  12.8434329  89.5425342  80.4814329  14.1522859  89.1510241  80.3647603
  13.3878742  88.9836423  80.4086009  10.6933806  96.0059211  72.3836459
  10.4734101  95.7156565  73.1763126  10.4728328  95.3474166  71.8554372
  10.6281400  95.8658919  72.4225368   9.6050753  88.0932527  74.6492161
   9.3164001  87.4669998  75.1837888  10.4734101  88.0352815  74.7156842
   9.6911005  87.9920071  74.7383116  20.3928651  83.2367310  74.9674143
  20.0493416  82.5157646  75.3181393  20.4921693  83.0281162  74.1252501
  20.3570693  83.0991514  74.8945823  12.8601761  97.3788601  71.1667152
  13.5125819  96.8465043  71.3958178  12.1627370  97.0257253  71.5535026
  12.8532479  97.2478124  71.2579320   9.8083026  89.7327778  70.5734526
  10.5628994  90.1140817  70.7869989   9.2153639  90.1838922  71.0281223
   9.8319740  89.8556606  70.6717405  20.8541680  89.6993015  70.5098131
  21.4199712  90.3586224  70.4256674  20.2069583  90.0442713  70.9814533
  20.8420436  89.8474956  70.5670888  12.2689693  81.6890619  85.6991739
  11.4589469  81.9948398  85.5881581  12.7464380  82.4096201  85.8144323
  12.2193172  81.8405220  85.6998810  11.1281253  90.9036340  75.9474642
  10.6062006  91.0436631  76.6326506  11.5155273  90.1447004  76.1376759
  11.1084954  90.8121863  76.0775718   8.1172437  80.9542148  70.0169596
   7.8297233  80.5843419  69.2801544   8.8042905  81.4237004  69.7553301
   8.1761334  80.9689118  69.8684672  17.3248258  92.6431799  69.9335210
  17.0834934  91.9099659  69.5262275  17.5049591  93.1918656  69.2801544
  17.3155882  92.6154190  69.7765433  12.5547578  87.9340359  71.3456133
  12.3590361  88.5415093  70.7516436  12.7781924  87.2408303  70.8647807
  12.5582219  87.9217884  71.1872213  10.9526108  84.8195096  71.4637001
  11.6748760  84.9836255  71.0040807  10.4734101  85.5404761  71.3576341
  10.9889839  84.9493326  71.3802615  18.9119616  81.1558895  76.8433686
  18.0730717  81.1820174  76.6071949  18.9823983  81.8029631  77.4239033
  18.7988009  81.2555021  76.8942803   8.6033725  87.2253169  80.5691141
   9.1154822  87.5037422  79.9199901   8.3170068  87.9642463  80.9353954
   8.6368588  87.3755523  80.5281019  17.3588894  78.0544272  71.5761302
  18.0615247  77.8552021  71.0981260  17.0933083  77.2820215  71.8830145
  17.4235527  77.9107238  71.5506743  22.7877140  86.3626882  74.1294928
  22.7011114  86.5182308  74.9829707  22.3327620  87.0064958  73.7554333
  22.7080396  86.4802637  74.2002034   5.6900631  81.7323361  70.8654877
   5.7916768  82.5349522  71.1935853   6.4856518  81.5310697  70.5677958
   5.8228537  81.8209260  70.8690233  12.1217450  79.3179557  80.6292182
  11.9300647  79.3334692  81.4791606  12.9716046  79.5143232  80.6058837
  12.2193172  79.3493909  80.7515477   6.5064363  81.8470539  78.6075999
   6.3649855  80.9954480  78.7320507   6.7904927  81.8899200  77.7838205
   6.5272210  81.7270289  78.5043623  16.6602956  83.6837629  72.7520487
  16.4137670  83.6033380  73.5857276  16.9888079  82.8991097  72.5583015
  16.6724199  83.5563894  72.8468010  20.5551005  90.3920988  76.5407268
  20.4165364  91.0902034  77.0456011  19.7751003  90.2369645  76.1843450
  20.4194232  90.4721155  76.5633543  18.8929090  86.6917364  82.7929650
  18.8877128  85.8197180  82.7972077  19.5990084  86.8905533  82.3199106
  18.9974094  86.5921238  82.7236686  12.6199983  86.4194348  82.1643470
  12.7643359  86.9995556  81.5286580  12.9675632  86.7970644  82.8693325
  12.6927444  86.5615052  82.1742465  14.7919900  85.6184516  79.9468602
  14.0443215  85.8115530  79.5416880  14.9461426  84.7929736  79.7092723
  14.7042328  85.5249628  79.8514008  11.6927738  94.6097120  79.0304497
  11.8417302  94.0500035  78.3777902  12.4727740  94.6889121  79.4137016
  11.8301832  94.5382685  78.9901446  22.0504377  89.7499242  67.3023768
  21.6711186  88.9636380  67.2953057  21.3870623  90.2986099  67.1595412
  21.8962852  89.7144066  67.2804565  14.2181039  94.7811762  80.3088988
  14.1424710  94.1120573  80.8639776  14.1470898  95.4829551  80.8229654
  14.1961646  94.7856670  80.4665836  15.0321677  79.5135067  80.8364006
  15.4894292  80.2459041  80.9636798  15.1078006  79.0901532  81.5951261
  15.1112647  79.5592305  80.9665082   7.2754669  79.7600887  81.9253449
   6.7396858  79.1481245  82.2414217   7.3372433  80.3349023  82.5787116
   7.2050301  79.7547814  82.0688876  19.5049003  72.6924942  74.7057849
  19.6232572  73.1501405  73.9725151  19.3311179  71.8870203  74.4194066
  19.4968174  72.6418714  74.5558782  14.8751286  93.3012761  71.1412594
  15.6401177  93.0322405  70.8195258  14.7729376  92.8162772  71.8582657
  14.9732781  93.1902326  71.1992421  12.9104055  81.5037171  77.6805830
  12.1200130  81.3228631  78.0023165  13.3064678  80.7264123  77.6636124
  12.8520932  81.3624632  77.7258378  17.3969946  90.3324945  63.1212543
  18.1642931  90.3925070  62.7118395  16.9501255  89.7605386  62.6368862
  17.4443373  90.2561521  62.9890254  18.2947742  89.1379601  75.4065276
  17.6192744  88.9064833  75.9078663  18.3040118  88.5300784  74.7807381
  18.1966246  89.0138526  75.3881428  15.4241886  83.9797430  82.1629329
  15.3601027  84.8407386  82.0349465  15.5639073  83.6629423  81.3624880
  15.4357356  84.0597597  82.0257541  20.2964476  91.9944733  67.6375454
  20.3784314  92.8011719  67.3136904  20.7814218  92.0140693  68.3616227
  20.3801634  92.1165396  67.6962352  14.1060980  86.6729569  76.3045531
  13.6823229  86.8734068  75.5684550  13.9305835  85.8258417  76.4169831
  14.0171860  86.5778351  76.2119222  13.6072673  98.1880082  78.7666989
  14.0968603  97.4890871  78.5842653  13.0356905  97.8903952  79.3543046
  13.5957203  98.0406306  78.8268030   9.3943425  87.1681621  71.7373504
   9.5508044  87.1028423  72.5929496   9.7344018  87.9430173  71.5252184
   9.4676659  87.2730819  71.8328098  15.9322569  86.5439504  70.6066867
  16.4738115  86.0409885  71.0705488  16.2469128  86.4904699  69.7956352
  16.0586966  86.4618925  70.5550679  19.8039677  90.7542152  87.7193779
  20.6174542  90.4827300  87.8798912  19.6434643  90.4549692  86.9153975
  19.9009625  90.6697078  87.6239185  14.1009019  91.9356856  67.8906895
  14.1701839  91.0771394  68.0299896  14.8797474  92.1528737  67.5625920
  14.2261869  91.8409720  67.8624053  17.0811839  81.4375809  80.6589168
  17.2953808  80.7986723  80.1052522  16.4645738  81.8821633  80.2297029
  17.0217168  81.4085952  80.5139599  18.4916506  94.3594557  72.1043389
  18.0996298  94.0561272  71.3866255  18.6469579  95.1963647  71.9148342
  18.4570096  94.4378394  71.9699886   5.9677686  84.3516571  72.0534271
   6.3476651  84.7701116  71.3894538   5.3933051  84.9330027  72.3603114
   5.9389011  84.4994430  72.0011012  19.2450927  83.0464874  81.5972475
  18.4327608  82.7390764  81.6785647  19.7040861  82.5663874  82.1615187
  19.1931311  82.9301366  81.6927069  18.6556181  90.9244546  72.0449419
  18.2970836  91.0959189  72.8213452  18.1694892  91.3857752  71.4877418
  18.5314878  91.0183517  72.0774688  16.4726567  74.5475744  75.6476510
  15.6020125  74.5214465  75.6009820  16.7266908  74.3752937  74.8302356
  16.3820127  74.5185888  75.5196647  13.4444547  86.6043711  64.5849653
  13.7337071  87.3808594  64.8593228  13.5316345  86.0932443  65.2864153
  13.4998803  86.6435630  64.7292151  16.3404434  84.4524945  86.3801177
  16.8104065  85.0767062  86.7669051  16.3866314  83.7841921  86.9394392
  16.4172310  84.4459626  86.5201248  13.4975708  76.5581973  77.1049981
  12.9814196  75.8662164  77.2301560  12.9369637  77.2252750  77.0512580
  13.3382221  76.5545230  77.1156047  15.5667941  77.0974933  78.9342833
  15.1799694  77.1223964  79.7156363  15.0800878  76.5316612  78.4817350
  15.4380450  77.0170684  78.9830737  19.8160921  91.8148442  82.9916620
  20.4540641  91.3208637  82.6579076  19.1735012  91.7425842  82.4068847
  19.8155147  91.7307450  82.8558975  21.5417921  83.6637588  77.5582536
  21.1145529  83.5763936  76.8030635  20.9043974  83.7715363  78.1437380
  21.3847528  83.6670248  77.5327977  15.2325083  73.9841918  81.2253093
  15.8618201  74.5202218  80.9474164  15.4010946  73.8919277  82.0766659
  15.3502877  74.0503281  81.3101621  15.0338998  78.7713113  83.4979505
  15.8612427  78.4998262  83.5538119  15.0546844  79.5673955  83.8543323
  15.1591848  78.8492867  83.5594688  19.8715177  92.5068250  79.6321977
  20.6607555  92.1557315  79.7524058  20.0458775  93.3204639  79.3698611
  20.0135459  92.5754107  79.6109845   9.6108488  85.9176976  76.6849766
   8.7696494  85.8180850  76.8928659   9.8198496  86.6872456  77.0364086
   9.5173180  86.0169019  76.7677080   7.0884055  83.5396513  74.5134516
   6.6940752  83.6139525  73.7384626   6.5324171  83.9254459  75.0642878
   6.9486867  83.6078287  74.4802176  18.7249001  76.5177807  74.1938395
  18.9298595  76.4500115  75.0395392  18.3975425  77.3236628  74.1259573
  18.7064249  76.6263747  74.3098050  13.4225152  83.8458375  75.9347363
  13.1188290  83.2914363  76.5357771  12.7204573  84.0250585  75.4475397
  13.2741362  83.7903157  75.9517069  12.4791250  81.1558895  70.4992065
  12.7550984  80.4377807  70.0869632  13.0789919  81.7543815  70.2913171
  12.6084514  81.1379266  70.4072826  11.4843503  91.0608096  80.6419461
  11.3763858  91.0710158  81.5081519  11.6939285  91.8862876  80.4524415
  11.4993615  91.1849171  80.7423552  21.9782689  77.0709571  73.6741161
  21.3657003  77.5579973  74.0594892  22.0746864  76.3953062  74.2178812
  21.9020587  77.0427880  73.8120019  15.9801770  78.8272412  68.7738660
  16.4345517  78.9982973  69.4986504  16.4541816  78.2140523  68.3736436
  16.1170090  78.7623297  68.8212422   9.5017295  88.3120738  78.1041398
   8.9105229  88.9530236  78.0744414  10.2638319  88.7358355  78.0772698
   9.5265556  88.4696577  78.0956546   9.8977918  79.4722736  78.7709416
  10.3579400  79.5461665  79.5084540   9.9434025  80.2703990  78.4209237
   9.9728474  79.6016883  78.8282173  11.5461268  80.1389431  83.3381443
  11.1546833  79.4922778  83.7737221  11.7147131  80.7300866  83.9575699
  11.5132178  80.1303699  83.4944149  25.6207717  88.1426508  79.1018677
  25.6790841  88.5913157  79.8478653  24.9874185  88.5525321  78.6648757
  25.5359012  88.2700243  79.1471225  19.2606812  93.7630050  75.5373423
  19.0626500  94.2520864  74.8429634  18.6394523  93.9671291  76.1157556
  19.1394376  93.8646588  75.5196646  13.3214790  85.5314947  69.8783667
  14.0656835  85.9189223  70.1166617  13.4675486  84.6872372  70.0424155
  13.4525375  85.4645419  69.9377637  15.2394366  77.3265205  74.9115529
  14.3930411  77.4988013  74.7856878  15.2365498  76.5214549  75.2481357
  15.1141515  77.2326234  74.9426656  16.3092666  81.1040420  75.7777587
  15.8352620  80.5782182  76.2882897  16.6810802  80.5569893  75.2092448
  16.2942555  80.9456416  75.7692734   6.6865696  83.1011927  81.1461132
   7.5491309  83.0007636  81.0598462   6.3557479  82.5206636  80.5846704
   6.7650892  83.0003553  81.0506538  22.5729396  86.1642796  77.1884367
  22.3327619  85.3249211  77.1926793  23.0521404  86.2442962  77.9125141
  22.6081580  86.0524195  77.2959169  18.2376166  81.9976974  68.8403340
  17.7099184  82.0805718  68.1509049  18.6971874  82.7394846  68.8367985
  18.2278016  82.1197637  68.7378035  24.5734584  82.9444253  75.1413626
  24.3344353  82.9040087  74.3034411  24.7368485  83.7915405  75.2679347
  24.5624887  83.0636338  75.0367108  21.1780614  87.3294202  81.0718671
  21.9014813  86.8766728  80.8929691  20.9130576  87.6098868  80.2890999
  21.2461887  87.3045171  80.9297387  10.0467482  81.9254376  77.8071550
   9.4220552  81.9372768  77.1997503   9.7113077  82.4014551  78.4562791
   9.9052974  81.9972893  77.8128119  10.2309231  80.2679494  63.8644235
   9.8822035  80.9199219  64.3275785   9.7505677  80.2536607  63.1368107
  10.1079475  80.3622548  63.8255327   6.7593158  89.9854836  79.2475315
   6.2293082  89.2947275  79.2970290   7.0318251  89.9765021  78.4188023
   6.7217880  89.8821967  79.1322731  17.7913248  90.5680538  67.9712997
  18.5147447  91.0338651  67.8277571  17.3513839  90.6354148  67.2210594
  17.8328940  90.6464375  67.8397779  16.9599403  87.4278080  79.2213686
  16.3456396  86.8836131  79.5162322  17.4766688  86.9142317  78.7419502
  16.9455066  87.2714489  79.1937915  16.1995700  88.4982350  76.9557985
  15.7723308  87.8732069  76.5223420  16.1920645  88.2157272  77.7816992
  16.1354841  88.3635131  77.0137813   9.3158227  83.5347523  80.0246419
   9.4751714  82.7790848  80.4298141   9.1351121  84.0838463  80.6787157
   9.3123586  83.5041337  80.1809125  17.2578530  75.7008759  80.5797208
  16.7619092  75.8972433  79.8888775  18.0147592  76.1001427  80.4086010
  17.2965355  75.7886493  80.4517345  14.5281410  79.3751105  77.1700519
  14.5523897  78.8411217  76.4813299  14.7792884  78.8668414  77.8326110
  14.5691329  79.2212009  77.1665164   2.0389000  86.6582600  76.6043663
   1.9332449  86.6129444  75.7395747   1.2889220  87.0036380  76.8857948
   1.9124603  86.7023508  76.5180993  10.8082732  78.1021923  76.5506263
  10.8481104  78.6031130  77.2640971   9.9832397  78.1932317  76.2812186
  10.6922258  78.1903739  76.6156802  12.9912345  87.6682663  84.6526558
  12.1407976  87.8054377  84.7884203  13.1540473  86.9346441  85.0974260
  12.8896209  87.5796764  84.7382157  12.2297096  84.6182433  78.8480162
  11.3989025  84.7856251  78.6415410  12.1748613  84.2418384  79.6329048
  12.0986510  84.5872164  78.9328690  10.0380879  78.1091326  84.4836573
  10.6633582  77.5653459  84.7566005   9.5831359  77.6286243  83.9144363
  10.0629139  77.9580807  84.4398167  10.6033139  82.8938024  69.3770280
  10.7436101  83.3910489  70.0798921  11.1015672  82.1924319  69.5184494
  10.6974220  82.8640003  69.5021859  10.6333362  83.7605136  66.7062857
  11.2678441  84.3565561  66.6412319  10.7158973  83.4608593  67.5208727
  10.7389913  83.8046044  66.8165943  23.6115928  86.2920613  79.5749221
  24.2033768  86.9317864  79.6067419  24.0474922  85.5943650  79.8641288
  23.7634359  86.2838963  79.6230054  12.2112345  79.6919111  66.6808299
  12.5328186  79.2122193  66.0267561  12.4739288  80.5018757  66.4899110
  12.2978370  79.7409009  66.5563791  15.4409317  90.7137985  80.2007115
  14.9334409  91.2673832  80.6447745  15.1435964  90.7746275  79.3825889
  15.3214202  90.8044296  80.1455572  17.6071500  79.0791305  79.0431778
  18.0326571  78.6263831  78.4315304  16.9928493  78.5251376  79.3196565
  17.5800145  78.9305281  78.9936803   7.1386350  85.9572976  69.9752403
   7.6478579  86.5537484  70.3563708   7.6120622  85.6898950  69.2928822
   7.2829725  86.0058792  69.9306926  18.0517098  94.6301243  68.1311058
  17.3346407  94.4562105  67.6658296  18.7023835  94.3953815  67.5986544
  18.0418948  94.5697035  67.9840276  16.0465723  75.5506405  72.4522355
  15.4034040  75.4004051  73.0207493  15.7065130  75.3048750  71.6871460
  15.9010800  75.4918527  72.4225370  20.6365069  83.5065831  71.8752364
  19.9656259  84.0495534  71.7465429  21.3304819  83.9760687  71.6334058
  20.6393936  83.6564103  71.8207891  14.6851803  95.6462543  77.1064122
  14.4617457  94.8881373  77.4748148  14.1961646  95.6760565  76.3844562
  14.5795252  95.5384768  77.0540863  20.7993196  79.9621715  74.7842737
  21.1520807  79.5351438  75.4588535  19.9407998  79.8772559  74.9143813
  20.7242641  79.8866456  74.9037747   9.4976881  82.5929235  72.8425583
   8.7788871  83.0093367  73.1098447   9.8689244  83.1583474  72.2917221
   9.4468813  82.7378516  72.8008390  18.7976462  83.2257084  78.7327579
  18.7774390  83.0440379  79.5862358  18.8455663  84.0969102  78.7087163
  18.8011103  83.3273622  78.8550874  16.7422792  89.8144276  84.6576056
  16.7018647  89.1693953  84.0721211  17.5546110  89.7580893  84.9701468
  16.8565946  89.7103243  84.6173005  13.3330260  95.8663002  74.5601206
  12.9190658  95.2037132  74.1705048  14.0177634  96.0140860  74.0396901
  13.3728631  95.7903660  74.4257704  16.6995554  95.0253087  75.3124823
  16.3011837  95.1355357  74.5445643  16.0846773  95.2335153  75.8951383
  16.5494443  95.0726655  75.2856122  15.2723456  81.6327235  68.1798963
  14.6788295  81.9544231  67.6283530  15.3098734  80.7868330  67.9720069
  15.1897845  81.5551563  68.0681734  22.2317257  75.0840127  75.7127049
  21.7248121  74.3769267  75.6448227  23.0284690  74.7533316  75.8428126
  22.2744496  74.9313278  75.7226044  18.1481272  81.5906739  71.6100713
  17.9194965  81.6139441  70.7679071  18.4079349  80.7664206  71.7295724
  18.1527460  81.4722819  71.5025911  12.4300501  83.4441212  81.2125813
  11.9179404  82.8362395  81.5710845  12.2579997  84.1597805  81.6799789
  12.3290138  83.4604512  81.3342037   7.2766216  81.8878788  83.8628175
   7.1068806  82.5480162  83.3176382   6.8332165  82.0985349  84.5840664
   7.1865549  82.0164770  83.8889804  11.2026035  80.1283286  72.9054909
  11.6783401  80.4900365  72.2705090  10.7014635  80.7839753  73.1855051
  11.1991394  80.2777474  72.8531650  24.4337396  89.6005054  68.6967914
  24.8171002  90.3496410  68.9266011  23.6381510  89.8470873  68.4379903
  24.3731179  89.7474747  68.6925487  16.3069571  81.3665457  83.6528069
  16.8641001  81.1379266  83.0206534  15.9830636  82.1271123  83.3763281
  16.3415981  81.4449294  83.5184566   4.1768280  84.7925653  79.1216665
   3.6294999  84.1226299  79.2397533   4.9660658  84.4255501  79.1860132
   4.2120464  84.6390640  79.1485365  14.0252688  84.4533110  84.6180076
  14.7764015  84.7684787  84.9319630  14.2175265  84.2512281  83.7913998
  14.1644103  84.4700492  84.5423472  13.2452688  82.2724485  66.2728293
  13.6251653  82.2904114  65.4879407  12.5045284  82.7178474  66.1519140
  13.1921526  82.3406260  66.1391861  20.8737979  80.5806677  71.8603871
  20.8732205  80.4255333  72.7188148  20.6694159  81.4269664  71.8045257
  20.8437756  80.6827297  71.9791811   2.9355250  84.0046461  76.2762688
   2.7577011  83.5523070  77.0017603   2.6474272  84.8072622  76.4601165
   2.8668203  84.0569019  76.4106191  18.5978831  85.2604178  75.5140078
  19.0932496  84.5427173  75.4744098  17.7878606  84.9574976  75.3994565
  18.5522724  85.1101825  75.4913804  14.0437442  89.1101992  67.6637083
  13.2348765  88.7868665  67.6170392  14.5512351  88.4035214  67.5965331
  13.9987109  88.9583308  67.6467377   4.6727719  86.5374185  73.3884447
   3.8073239  86.5259875  73.2767218   4.7726535  86.3504408  74.2355586
   4.5601886  86.5080246  73.4973391  20.6630649  88.0107866  78.2017207
  21.0885721  87.4882288  77.6487632  20.2987569  88.6088703  77.6805830
  20.6717252  88.0218093  78.0426217  10.2984729  96.3072083  76.9614552
  10.6131288  97.1208472  76.9692334  10.7078143  95.9222302  77.6296712
  10.4052827  96.3700786  77.0618644  17.2509249  91.7242130  74.5318364
  17.7220427  92.4382393  74.7008350  17.5869427  91.1240880  75.0678234
  17.3704364  91.7413594  74.6350740  19.3386234  93.3343443  86.7110436
  19.4483199  92.5452004  87.0667184  19.6677130  93.2449380  85.9084775
  19.4038639  93.2049296  86.6452827  14.1678744  76.4969601  81.4876459
  14.3006649  75.7000594  81.8157435  14.5523897  77.0236004  82.0674735
  14.2435073  76.4569517  81.6219962  17.8883195  91.5160064  81.2946057
  17.3404141  90.8917948  81.0266122  18.3496224  91.7054336  80.5790136
  17.8750405  91.4519114  81.1496488  17.2411099  73.4199927  78.0857552
  16.4357063  73.3097656  78.4025391  17.1117835  73.5212382  77.2287418
  17.1031232  73.4183597  78.0065593  20.6977060  79.5845419  78.6797249
  20.1140048  80.0854625  78.2674817  21.0181354  79.0774975  78.0461573
  20.6590235  79.5837254  78.5255757  13.2371859  78.4986014  68.9555924
  14.0587553  78.6684326  68.7137619  12.7741510  78.6533274  68.2322222
  13.2903021  78.5467746  68.8127568  11.8267191  76.4928776  79.7354353
  12.3711604  76.1519903  80.3258695  11.8804126  77.3514237  79.8775638
  11.9156310  76.5684035  79.8436226   7.6397749  90.2545192  76.6093161
   8.2442607  90.2141026  75.9806982   7.4325062  91.1016344  76.6397217
   7.6986647  90.3733194  76.5209277  17.4541522  92.5211137  77.8255398
  18.2739895  92.3774103  78.0871693  17.1735599  93.1457336  78.3671836
  17.5338265  92.5921489  77.9443338   2.8749032  89.2379809  76.4792084
   2.7773310  88.4276081  76.7882141   3.6577901  89.2171603  76.0938352
   2.9765168  89.1146899  76.4678947  33.9255172 100.1775989  70.7898275
  33.8949176 101.0320625  70.9616544  34.5236521  99.8771281  71.3484418
  34.0092330 100.2592485  70.8973077  27.1254857  99.2651640  75.5451205
  26.2692752  99.4260138  75.5960322  27.1722511  98.3943704  75.5656266
  27.0053968  99.1602442  75.5557271  21.5095997 108.8014357  71.3088437
  20.7578896 108.4229896  71.0804482  21.9582008 108.8332791  70.5607247
  21.4645663 108.7499965  71.1645939  30.4348573 105.5338165  85.1511661
  31.1415341 105.0390196  85.2798596  30.6236509 105.9747247  84.4214319
  30.5676479 105.5256516  85.0620707  26.9620956 109.2239727  66.7373984
  26.6272325 109.9016649  66.3018206  27.4747827 108.8345038  66.1490855
  26.9886538 109.2664305  66.5860775  26.5025248 111.1753996  72.6785095
  26.8864627 111.7440894  72.1389870  26.4384389 110.4503506  72.1990911
  26.5498675 111.1529459  72.5278958  29.9706678 101.3243684  78.1882857
  30.5162638 102.0028770  78.2476826  29.9123554 101.1831144  77.3284438
  30.0422592 101.4035685  78.0694917  23.0880753 108.8132750  73.5751209
  23.1891116 108.0033104  73.8848337  22.4922498 108.7189696  72.9450888
  23.0153291 108.6797778  73.5277448  31.7471746 102.7528291  69.0616584
  31.6311272 103.5035977  69.4908723  32.5427633 102.4952244  69.3112671
  31.8476336 102.8263138  69.1620676  22.9281492 113.7310339  74.9766065
  23.5718948 114.1723503  75.3662224  23.2537748 112.9263765  74.8896324
  23.0713321 113.6775534  75.0211542  16.2845797 104.8353036  73.2003543
  16.0495981 104.0020689  73.0935812  16.4231438 105.1157702  72.3864744
  16.2701459 104.7536540  73.0645898  18.5835884  97.0038767  76.0987850
  17.9640916  96.4131414  75.9297865  18.4819748  97.5950202  75.4652174
  18.4773560  97.0042849  75.9792840  23.6302072 106.7422314  70.3485927
  23.9517913 107.2827521  69.7447235  24.2774168 106.1719085  70.4808217
  23.7728127 106.7381489  70.2792962  25.6803780  98.7438309  70.4320314
  26.3783945  98.9226436  70.9241777  25.9956113  98.2208648  69.8090703
  25.8299117  98.6932081  70.4122324  18.3105017 100.5491049  78.3431419
  18.1863714 101.1353494  78.9781238  18.9623302 100.0551244  78.6443694
  18.3878667 100.5629853  78.4817349  25.8691715 105.1308754  70.4200105
  26.3085351 104.5225854  70.8654878  25.7196378 104.7516127  69.6485570
  25.9113181 104.9847225  70.3719272  23.3363358 103.7252765  77.6218931
  23.9812361 103.2325209  77.3029879  23.5765135 103.8677552  78.4485009
  23.4673944 103.6730208  77.6968464  25.8749450 106.5707671  77.2725823
  26.1572693 105.7759077  77.0512579  26.6035610 107.0488259  77.2930884
  26.0239013 106.5242268  77.2428838  23.8530644  94.1130705  74.5141588
  23.5233974  94.5641849  73.8445287  23.1775645  94.0346869  75.0614595
  23.7041080  94.1681840  74.4964811  29.4701052 103.4835935  67.3730874
  29.3852347 104.3396902  67.5180443  29.9585435 103.2080259  68.0413033
  29.5289949 103.5693256  67.4932956  31.0607051  90.1016228  72.7591199
  30.7460492  90.7919707  73.1911621  30.5433993  90.0461010  72.0576700
  30.9371522  90.1951117  72.7188148  30.4019485 100.1020729  68.8728609
  29.8730957 100.3180363  69.5325916  30.9244505 100.7956868  68.7929579
  30.4007938 100.2363866  68.9584209  35.8567538 105.6767034  74.2461654
  35.0265241 105.8877677  74.4095070  35.8076790 104.8504088  73.9703937
  35.7274274 105.5856640  74.2299019  22.2919093 103.9983946  67.6736077
  21.7076308 104.5033977  68.0801941  21.8889188 103.7726333  66.9332669
  22.1458397 104.0392194  67.6241103  17.8463122 109.7138707  74.4759749
  17.3630700 110.4389197  74.4519332  18.6586440 110.0114837  74.5869907
  17.8953869 109.8641061  74.4887028  23.9177276 108.5070888  77.0809563
  23.4004217 108.1478303  76.4770871  24.6151667 107.9833062  77.0915629
  23.9442857 108.3768576  76.9939822  27.5740868 108.9565702  83.0425736
  27.6624214 108.7691842  83.8903947  28.0030580 108.3103131  82.6430583
  27.6502970 108.8328709  83.1097488  25.1411327 108.2396862  82.0243399
  24.5782162 107.8269472  82.5483060  25.9032351 108.1649767  82.4436542
  25.1705776 108.1674262  82.1636399  26.7496307 100.2449598  66.1504998
  26.9892311 100.4527582  65.3380341  27.0712148  99.4407107  66.2593942
  26.8333465 100.1563699  66.0465551  22.0586598  92.1742994  69.9964536
  22.8132566  92.5421311  69.7581586  21.8814132  92.5482548  70.7643715
  22.1441076  92.2841182  70.0749424  20.7007319 110.2294883  74.6280029
  21.4027898 109.7146872  74.6852785  20.6204802 110.5569034  75.4326904
  20.7931079 110.2009109  74.7552821  35.3521496  98.3237434  78.0412075
  34.5149917  98.3939621  78.2759670  35.3209727  98.3261929  77.1686378
  35.2239779  98.3347661  77.9471623  21.7486225 100.4670470  83.7560444
  21.9206729 100.3576364  84.6045725  22.2855583 101.1124875  83.5191636
  21.8531229 100.5462472  83.8465541  20.4143662  94.5813313  66.6942649
  20.2319236  94.7985194  65.8683642  21.2769275  94.6952325  66.7501263
  20.5148252  94.6303211  66.5797136  20.0258094 106.4201235  74.1365637
  20.8646994 106.6524168  74.1839398  20.0569863 105.5505546  74.0672672
  20.1539812 106.3258181  74.1330281  20.6510797 106.8402110  78.4378942
  21.1909022 106.6973241  79.1082315  19.9680744 107.2398861  78.8062969
  20.6302951 106.8781781  78.5913364  26.0943382  91.5839723  69.7291673
  26.8229542  91.4055678  69.2829829  26.1838274  92.4257803  69.9398851
  26.2150044  91.6823602  69.6945190  30.0751682 102.5193111  73.6323967
  30.8309197 102.9524625  73.6712875  30.1814007 101.8697880  74.2058603
  30.2021853 102.4870595  73.7221992  33.1131853 106.3466388  74.3826370
  32.6767085 106.3503130  75.1385341  32.7794769 107.0271887  73.9505947
  32.9994473 106.4478844  74.4307202  27.6860927 108.3874721  85.7069520
  28.4701344 108.5005569  86.0725262  27.4857521 107.5615858  85.9028206
  27.7726952 108.2821440  85.7903906  16.0547942 103.0602401  78.5913364
  15.7886358 102.2441518  78.7504354  16.0686507 103.1055556  77.7208879
  16.0172665 102.9459306  78.4866846  33.0329336  93.3880216  76.6255798
  33.6755245  93.4578320  77.2117713  33.2852357  92.7209439  76.1235339
  33.1651468  93.3006564  76.6383077  19.9605689  97.8587485  65.2065122
  19.2463866  97.5725665  65.6187554  20.4449658  98.1984111  65.8471509
  19.9265053  97.8669135  65.3620757  20.8046549  96.5980779  81.2380372
  20.1118346  96.1277759  81.4841103  21.4206876  96.3719084  81.8122079
  20.7931079  96.4947911  81.3589524  27.8431320 110.2984823  79.3535976
  27.0446566 110.0584323  79.6109844  28.2917332 110.3499216  80.1003023
  27.7905932 110.2707214  79.5020900  36.2476200 103.0647308  73.2746007
  36.9092634 102.5037976  73.1741915  35.6067612 102.5699339  73.5998698
  36.2505067 102.9083717  73.3078347  27.1353007 106.3617439  65.5826930
  27.5504156 106.0302463  64.8911426  26.3044937 106.1286342  65.4547067
  27.0741016 106.2788695  65.4617778  16.4641356 103.8461180  75.8725108
  16.2816929 103.8208066  75.0197400  17.1991025 104.3160118  75.9114017
  16.5455420 103.9122543  75.7523027  32.5341030 104.0812690  73.0157996
  32.7696619 104.2257889  72.1884846  32.6830594 104.8455098  73.4089509
  32.5906834 104.2151745  72.9521600  19.5287108 100.5646183  82.3807217
  20.2527080 100.5499214  82.8672111  19.6303244 101.2741538  81.8829185
  19.6505317 100.6670886  82.3786004  34.3631487 102.9214356  70.8527599
  34.6939704 103.4541996  70.2467694  34.9364575 102.9753244  71.5089550
  34.4965166 103.0083925  70.8605381  26.9032057 104.0445268  87.2456164
  26.1105038 104.3588780  87.4308783  27.0180984 104.2596736  86.4076948
  26.8027468 104.1229104  87.1494499  29.5763376 100.7679259  71.5351180
  29.6710230 101.5068553  71.9890805  28.9522220 100.3396734  71.9685744
  29.4972406 100.8140579  71.6659327  27.8315850 103.9465472  82.1841460
  28.4054712 103.3092716  82.3390024  27.7530654 103.9469554  81.3151118
  27.9049085 103.8530583  82.0787871  16.4312266 100.7254681  76.0224175
  17.0085769 100.5891132  76.6616420  15.7326328 100.2690465  76.2769759
  16.4133288 100.6376947  76.1546464  29.8286397 102.6127999  64.7688132
  29.7466560 102.6830186  65.6343119  30.4666118 103.1757743  64.5771872
  29.9106235 102.7066970  64.8678081  23.1879569 102.3788737  74.2362658
  22.9298813 101.5460472  74.2093957  23.2428051 102.6046350  73.3955158
  23.1579346 102.2886508  74.1082795  28.2680619  94.4817187  74.3366751
  27.5636945  93.9926373  74.4950670  28.3165593  94.4939662  73.4655195
  28.1710670  94.4106835  74.2306090  22.1614281  99.9326499  74.7227553
  21.5863872 100.0918667  75.3591514  21.7849957  99.2961908  74.2596003
  22.0217093  99.8624312  74.7482111  25.8287569  98.4049848  79.5819931
  25.4402002  97.9804066  78.9272122  25.1642268  98.6531998  80.0896958
  25.6734497  98.3788569  79.5607799  35.4710839  98.1624853  72.3567761
  35.2147403  97.3504795  72.1665644  36.3140152  98.1702420  72.1297948
  35.5576864  98.0436851  72.2952578  11.9071100  99.5766574  72.7371993
  11.9931351  99.1998442  73.5185523  12.5346897  99.2027020  72.2591952
  12.0127651  99.4652056  72.7817471  29.6513931  92.1024477  77.0943915
  30.0324443  91.4202648  77.4811789  28.8477215  91.8134079  76.9119580
  29.5890393  91.9591526  77.1247971  26.9326508 102.6348453  67.7796738
  27.7467146 102.9263346  67.6679509  26.8685649 101.9808315  67.2055031
  27.0429247 102.5813648  67.6785575  33.1535998 105.3174449  82.1926314
  32.9174635 104.4862514  82.0738374  33.7979227 105.2660056  82.7781158
  33.2130669 105.1872137  82.2612207  22.8034416 106.1069970  72.9069050
  23.4408363 105.8681718  73.4520843  23.2289487 106.3107129  72.1722211
  22.9610582 106.1020981  72.8786207  17.4947058 108.3458307  76.7903354
  17.5351204 108.6173158  75.9623133  18.0541582 108.8700215  77.2061142
  17.5830404 108.4634062  76.7295242  23.4437231 101.3272260  67.2443939
  23.8282384 101.1079967  67.9960485  23.1948851 102.1535206  67.3745016
  23.4639303 101.4170406  67.3745016  23.6105771  94.6078675  86.9606524
  23.2959212  95.3778238  86.6976086  23.2895704  94.0448931  86.3758751
  23.5164690  94.6388944  86.8347874  34.1772418 105.1018898  78.2554608
  33.8718235 105.8346955  78.6167924  33.4578634 104.6956827  77.9747394
  34.0259761 105.1500631  78.2667745  25.1855888 106.5842393  74.5862836
  25.2594896 106.4217565  75.4404686  26.0025394 106.7732583  74.3423318
  25.3172246 106.5879135  74.6760862  39.8774211 101.7411899  77.5822952
  39.8098711 101.7607858  76.7125539  39.8629873 102.5842226  77.8078623
  39.8652967 101.8685633  77.4875429  18.9461645 106.9300256  71.6157280
  18.1199762 107.1761993  71.4891559  19.0073636 106.8512337  72.4819338
  18.8335811 106.9545205  71.7246224  21.1637668  92.9969197  72.5752720
  20.2960094  93.0691796  72.6410329  21.4512873  93.7991276  72.7640695
  21.0777416  93.1263344  72.6127487  30.2870557  93.1447056  80.9064042
  31.0324149  92.9556867  80.4927467  29.8707862  93.6705294  80.3477898
  30.3355531  93.1949202  80.7628615  23.7260474 109.5477136  69.3176310
  24.0158772 109.1566117  68.5935536  24.4563954 109.7293841  69.7581585
  23.8767358 109.5170950  69.2759117  37.6632828 100.5156285  75.8569547
  38.2140749  99.8824354  76.0966639  37.6476943 101.0471678  76.5485051
  37.7418024 100.5005233  75.9948405  24.3155219 104.3494882  80.4029440
  23.8166912 105.0610650  80.4814329  25.1255443 104.6695549  80.3647603
  24.3611325 104.5021731  80.4086009  21.6666389 111.5244519  72.3836459
  21.4466685 111.2341873  73.1763126  21.4460911 110.8659474  71.8554372
  21.6013983 111.3844227  72.4225368  20.5783336 103.6117835  74.6492161
  20.2896585 102.9855306  75.1837888  21.4466684 103.5538122  74.7156842
  20.6643588 103.5105379  74.7383116  31.3661234  98.7552618  74.9674143
  31.0226000  98.0342954  75.3181393  31.4654277  98.5466470  74.1252501
  31.3303277  98.6176822  74.8945823  23.8334345 112.8973908  71.1667152
  24.4858403 112.3650351  71.3958178  23.1359954 112.5442561  71.5535026
  23.8265063 112.7663431  71.2579320  20.7815610 105.2513086  70.5734526
  21.5361578 105.6326125  70.7869989  20.1886222 105.7024230  71.0281223
  20.8052323 105.3741913  70.6717405  31.8274263 105.2178323  70.5098131
  32.3932296 105.8771532  70.4256674  31.1802167 105.5628021  70.9814533
  31.8153020 105.3660264  70.5670888  23.2422277  97.2075926  85.6991739
  22.4322052  97.5133706  85.5881581  23.7196963  97.9281509  85.8144323
  23.1925755  97.3590528  85.6998810  22.1013836 106.4221647  75.9474642
  21.5794590 106.5621939  76.6326506  22.4887857 105.6632312  76.1376759
  22.0817537 106.3307171  76.0775718  19.0905020  96.4727456  70.0169596
  18.8029816  96.1028727  69.2801544  19.7775489  96.9422311  69.7553301
  19.1493918  96.4874426  69.8684672  28.2980841 108.1617107  69.9335210
  28.0567517 107.4284967  69.5262275  28.4782174 108.7103964  69.2801544
  28.2888465 108.1339498  69.7765433  23.5280162 103.4525666  71.3456133
  23.3322945 104.0600401  70.7516436  23.7514508 102.7593610  70.8647807
  23.5314803 103.4403192  71.1872213  21.9258692 100.3380404  71.4637001
  22.6481344 100.5021563  71.0040807  21.4466685 101.0590069  71.3576341
  21.9622423 100.4678634  71.3802615  29.8852200  96.6744203  76.8433686
  29.0463300  96.7005482  76.6071949  29.9556567  97.3214939  77.4239033
  29.7720593  96.7740329  76.8942803  19.5766309 102.7438477  80.5691141
  20.0887406 103.0222730  79.9199901  19.2902651 103.4827771  80.9353954
  19.6101172 102.8940830  80.5281019  28.3321478  93.5729580  71.5761302
  29.0347831  93.3737329  71.0981260  28.0665667  92.8005523  71.8830145
  28.3968110  93.4292546  71.5506743  33.7609723 101.8812190  74.1294928
  33.6743698 102.0367616  74.9829707  33.3060203 102.5250265  73.7554333
  33.6812980 101.9987945  74.2002034  16.6633215  97.2508669  70.8654877
  16.7649351  98.0534830  71.1935853  17.4589102  97.0496005  70.5677958
  16.7961121  97.3394567  70.8690233  23.0950034  94.8364865  80.6292182
  22.9033231  94.8520000  81.4791606  23.9448630  95.0328540  80.6058837
  23.1925756  94.8679217  80.7515477  17.4796947  97.3655847  78.6075999
  17.3382439  96.5139788  78.7320507  17.7637510  97.4084508  77.7838205
  17.5004793  97.2455597  78.5043623  27.6335539  99.2022937  72.7520487
  27.3870254  99.1218688  73.5857276  27.9620662  98.4176405  72.5583015
  27.6456783  99.0749202  72.8468010  31.5283588 105.9106296  76.5407268
  31.3897948 106.6087342  77.0456011  30.7483586 105.7554953  76.1843450
  31.3926815 105.9906463  76.5633543  29.8661673 102.2102672  82.7929650
  29.8609712 101.3382488  82.7972077  30.5722667 102.4090841  82.3199106
  29.9706677 102.1106546  82.7236686  23.5932567 101.9379656  82.1643470
  23.7375942 102.5180864  81.5286580  23.9408215 102.3155952  82.8693325
  23.6660028 102.0800360  82.1742465  25.7652484 101.1369824  79.9468602
  25.0175798 101.3300838  79.5416880  25.9194009 100.3115044  79.7092723
  25.6774912 101.0434935  79.8514008  22.6660322 110.1282427  79.0304497
  22.8149885 109.5685343  78.3777902  23.4460324 110.2074429  79.4137016
  22.8034415 110.0567993  78.9901446  33.0236961 105.2684550  67.3023768
  32.6443770 104.4821688  67.2953057  32.3603206 105.8171407  67.1595412
  32.8695436 105.2329374  67.2804565  25.1913622 110.2997070  80.3088988
  25.1157293 109.6305881  80.8639776  25.1203481 111.0014859  80.8229654
  25.1694229 110.3041978  80.4665836  26.0054261  95.0320375  80.8364006
  26.4626875  95.7644349  80.9636798  26.0810590  94.6086840  81.5951261
  26.0845231  95.0777613  80.9665082  18.2487252  95.2786194  81.9253449
  17.7129442  94.6666553  82.2414217  18.3105017  95.8534330  82.5787116
  18.1782885  95.2733122  82.0688876  30.4781587  88.2110250  74.7057849
  30.5965155  88.6686713  73.9725151  30.3043763  87.4055511  74.4194066
  30.4700758  88.1604022  74.5558782  25.8483869 108.8198069  71.1412594
  26.6133760 108.5507713  70.8195258  25.7461959 108.3348080  71.8582657
  25.9465365 108.7087634  71.1992421  23.8836639  97.0222479  77.6805830
  23.0932714  96.8413939  78.0023165  24.2797262  96.2449431  77.6636124
  23.8253515  96.8809940  77.7258378  28.3702530 105.8510253  63.1212543
  29.1375515 105.9110378  62.7118395  27.9233839 105.2790694  62.6368862
  28.4175957 105.7746829  62.9890254  29.2680325 104.6564909  75.4065276
  28.5925327 104.4250141  75.9078663  29.2772701 104.0486092  74.7807381
  29.1698830 104.5323834  75.3881428  26.3974469  99.4982738  82.1629329
  26.3333610 100.3592694  82.0349465  26.5371657  99.1814731  81.3624880
  26.4089939  99.5782904  82.0257541  31.2697060 107.5130041  67.6375454
  31.3516897 108.3197027  67.3136904  31.7546802 107.5326000  68.3616227
  31.3534218 107.6350704  67.6962352  25.0793563 102.1914877  76.3045531
  24.6555812 102.3919376  75.5684550  24.9038418 101.3443725  76.4169831
  24.9904444 102.0963659  76.2119222  24.5805257 113.7065390  78.7666989
  25.0701187 113.0076179  78.5842653  24.0089489 113.4089260  79.3543046
  24.5689787 113.5591614  78.8268030  20.3676008 102.6866929  71.7373504
  20.5240627 102.6213731  72.5929496  20.7076601 103.4615481  71.5252184
  20.4409243 102.7916127  71.8328098  26.9055153 102.0624812  70.6066867
  27.4470698 101.5595193  71.0705488  27.2201712 102.0090007  69.7956352
  27.0319550 101.9804233  70.5550679  30.7772260 106.2727459  87.7193779
  31.5907125 106.0012608  87.8798912  30.6167226 105.9734999  86.9153975
  30.8742209 106.1882386  87.6239185  25.0741602 107.4542164  67.8906895
  25.1434423 106.5956702  68.0299896  25.8530058 107.6714045  67.5625920
  25.1994453 107.3595028  67.8624053  28.0544422  96.9561117  80.6589168
  28.2686392  96.3172031  80.1052522  27.4378321  97.4006940  80.2297029
  27.9949751  96.9271260  80.5139599  29.4649090 109.8779865  72.1043389
  29.0728882 109.5746580  71.3866255  29.6202162 110.7148955  71.9148342
  29.4302680 109.9563702  71.9699886  16.9410270  99.8701879  72.0534271
  17.3209234 100.2886424  71.3894538  16.3665634 100.4515335  72.3603114
  16.9121595 100.0179738  72.0011012  30.2183510  98.5650182  81.5972475
  29.4060192  98.2576072  81.6785647  30.6773445  98.0849182  82.1615187
  30.1663895  98.4486674  81.6927069  29.6288765 106.4429854  72.0449419
  29.2703420 106.6144497  72.8213452  29.1427476 106.9043059  71.4877418
  29.5047462 106.5368825  72.0774688  27.4459151  90.0661052  75.6476510
  26.5752709  90.0399773  75.6009820  27.6999492  89.8938244  74.8302356
  27.3552711  90.0371196  75.5196647  24.4177130 102.1229019  64.5849653
  24.7069655 102.8993902  64.8593228  24.5048929 101.6117751  65.2864153
  24.4731386 102.1620938  64.7292151  27.3137018  99.9710253  86.3801177
  27.7836649 100.5952370  86.7669051  27.3598898  99.3027229  86.9394392
  27.3904893  99.9644934  86.5201248  24.4708291  92.0767281  77.1049981
  23.9546780  91.3847472  77.2301560  23.9102220  92.7438058  77.0512580
  24.3114805  92.0730538  77.1156047  26.5400525  92.6160241  78.9342833
  26.1532278  92.6409272  79.7156363  26.0533462  92.0501919  78.4817350
  26.4113034  92.5355992  78.9830737  30.7893504 107.3333750  82.9916620
  31.4273225 106.8393945  82.6579076  30.1467596 107.2611150  82.4068847
  30.7887731 107.2492758  82.8558975  32.5150504  99.1822896  77.5582536
  32.0878112  99.0949244  76.8030635  31.8776557  99.2900671  78.1437380
  32.3580112  99.1855556  77.5327977  26.2057666  89.5027226  81.2253093
  26.8350784  90.0387526  80.9474164  26.3743529  89.4104585  82.0766659
  26.3235461  89.5688589  81.3101621  26.0071581  94.2898421  83.4979505
  26.8345011  94.0183570  83.5538119  26.0279427  95.0859263  83.8543323
  26.1324431  94.3678175  83.5594688  30.8447761 108.0253558  79.6321977
  31.6340139 107.6742623  79.7524058  31.0191359 108.8389946  79.3698611
  30.9868042 108.0939415  79.6109845  20.5841071 101.4362284  76.6849766
  19.7429078 101.3366158  76.8928659  20.7931079 102.2057764  77.0364086
  20.4905764 101.5354327  76.7677080  18.0616638  99.0581821  74.5134516
  17.6673336  99.1324833  73.7384626  17.5056755  99.4439767  75.0642878
  17.9219450  99.1263595  74.4802176  29.6981585  92.0363115  74.1938395
  29.9031178  91.9685423  75.0395392  29.3708009  92.8421936  74.1259573
  29.6796833  92.1449055  74.3098050  24.3957736  99.3643683  75.9347363
  24.0920874  98.8099671  76.5357771  23.6937157  99.5435893  75.4475397
  24.2473946  99.3088465  75.9517069  23.4523833  96.6744203  70.4992065
  23.7283567  95.9563115  70.0869632  24.0522502  97.2729123  70.2913171
  23.5817098  96.6564574  70.4072826  22.4576087 106.5793404  80.6419461
  22.3496442 106.5895466  81.5081519  22.6671869 107.4048184  80.4524415
  22.4726198 106.7034478  80.7423552  32.9515273  92.5894879  73.6741161
  32.3389586  93.0765281  74.0594892  33.0479448  91.9138370  74.2178812
  32.8753170  92.5613188  73.8120019  26.9534354  94.3457720  68.7738660
  27.4078100  94.5168281  69.4986504  27.4274399  93.7325831  68.3736436
  27.0902674  94.2808605  68.8212422  20.4749879 103.8306046  78.1041398
  19.8837812 104.4715544  78.0744414  21.2370903 104.2543663  78.0772698
  20.4998140 103.9881885  78.0956546  20.8710502  94.9908044  78.7709416
  21.3311983  95.0646973  79.5084540  20.9166609  95.7889298  78.4209237
  20.9461057  95.1202191  78.8282173  22.5193852  95.6574739  83.3381443
  22.1279417  95.0108086  83.7737221  22.6879714  96.2486174  83.9575699
  22.4864762  95.6489007  83.4944149  36.5940301 103.6611816  79.1018677
  36.6523424 104.1098465  79.8478653  35.9606768 104.0710629  78.6648757
  36.5091596 103.7885550  79.1471225  30.2339395 109.2815358  75.5373423
  30.0359084 109.7706172  74.8429634  29.6127106 109.4856599  76.1157556
  30.1126960 109.3831896  75.5196646  24.2947374 101.0500254  69.8783667
  25.0389419 101.4374531  70.1166617  24.4408070 100.2057680  70.0424155
  24.4257959 100.9830727  69.9377637  26.2126949  92.8450513  74.9115529
  25.3662994  93.0173321  74.7856878  26.2098082  92.0399857  75.2481357
  26.0874099  92.7511542  74.9426656  27.2825250  96.6225728  75.7777587
  26.8085204  96.0967490  76.2882897  27.6543385  96.0755201  75.2092448
  27.2675138  96.4641724  75.7692734  17.6598280  98.6197235  81.1461132
  18.5223893  98.5192944  81.0598462  17.3290063  98.0391944  80.5846704
  17.7383476  98.5188861  81.0506538  33.5461980 101.6828103  77.1884367
  33.3060203 100.8434519  77.1926793  34.0253987 101.7628270  77.9125141
  33.5814164 101.5709503  77.2959169  29.2108749  97.5162282  68.8403340
  28.6831768  97.5991026  68.1509049  29.6704457  98.2580154  68.8367985
  29.2010600  97.6382945  68.7378035  35.5467167  98.4629561  75.1413626
  35.3076937  98.4225395  74.3034411  35.7101068  99.3100713  75.2679347
  35.5357471  98.5821646  75.0367108  32.1513197 102.8479510  81.0718671
  32.8747396 102.3952036  80.8929691  31.8863160 103.1284176  80.2890999
  32.2194471 102.8230478  80.9297387  21.0200066  97.4439684  77.8071550
  20.3953136  97.4558075  77.1997503  20.6845660  97.9199859  78.4562791
  20.8785557  97.5158201  77.8128119  21.2041814  95.7864802  63.8644235
  20.8554619  96.4384527  64.3275785  20.7238260  95.7721915  63.1368107
  21.0812058  95.8807856  63.8255327  17.7325741 105.5040144  79.2475315
  17.2025666 104.8132583  79.2970290  18.0050834 105.4950329  78.4188023
  17.6950463 105.4007275  79.1322731  28.7645832 106.0865846  67.9712997
  29.4880031 106.5523959  67.8277571  28.3246423 106.1539456  67.2210594
  28.8061524 106.1649683  67.8397779  27.9331987 102.9463388  79.2213686
  27.3188980 102.4021439  79.5162322  28.4499272 102.4327625  78.7419502
  27.9187649 102.7899797  79.1937915  27.1728284 104.0167658  76.9557985
  26.7455892 103.3917377  76.5223420  27.1653228 103.7342580  77.7816992
  27.1087425 103.8820439  77.0137813  20.2890811  99.0532831  80.0246419
  20.4484298  98.2976155  80.4298141  20.1083705  99.6023771  80.6787157
  20.2856170  99.0226645  80.1809125  28.2311114  91.2194067  80.5797208
  27.7351675  91.4157741  79.8888775  28.9880176  91.6186735  80.4086010
  28.2697939  91.3071801  80.4517345  25.5013994  94.8936413  77.1700519
  25.5256481  94.3596525  76.4813299  25.7525467  94.3853722  77.8326110
  25.5423912  94.7397317  77.1665164  13.0121583 102.1767908  76.6043663
  12.9065032 102.1314752  75.7395747  12.2621803 102.5221688  76.8857948
  12.8857186 102.2208816  76.5180993  21.7815316  93.6207231  76.5506263
  21.8213687  94.1216438  77.2640971  20.9564980  93.7117625  76.2812186
  21.6654842  93.7089047  76.6156802  23.9644929 103.1867971  84.6526558
  23.1140559 103.3239685  84.7884203  24.1273056 102.4531749  85.0974260
  23.8628792 103.0982072  84.7382157  23.2029679 100.1367741  78.8480162
  22.3721609 100.3041559  78.6415410  23.1481196  99.7603692  79.6329048
  23.0719094 100.1057472  78.9328690  21.0113462  93.6276634  84.4836573
  21.6366166  93.0838767  84.7566005  20.5563942  93.1471551  83.9144363
  21.0361723  93.4766115  84.4398167  21.5765723  98.4123332  69.3770280
  21.7168684  98.9095797  70.0798921  22.0748256  97.7109627  69.5184494
  21.6706804  98.3825311  69.5021859  21.6065945  99.2790443  66.7062857
  22.2411025  99.8750868  66.6412319  21.6891556  98.9793901  67.5208727
  21.7122496  99.3231352  66.8165943  34.5848511 101.8105921  79.5749221
  35.1766351 102.4503172  79.6067419  35.0207506 101.1128958  79.8641288
  34.7366942 101.8024271  79.6230054  23.1844928  95.2104419  66.6808299
  23.5060769  94.7307501  66.0267561  23.4471872  96.0204065  66.4899110
  23.2710954  95.2594317  66.5563791  26.4141901 106.2323293  80.2007115
  25.9066992 106.7859140  80.6447745  26.1168547 106.2931583  79.3825889
  26.2946786 106.3229604  80.1455572  28.5804083  94.5976613  79.0431778
  29.0059155  94.1449139  78.4315304  27.9661076  94.0436684  79.3196565
  28.5532729  94.4490589  78.9936803  18.1118933 101.4758284  69.9752403
  18.6211163 102.0722792  70.3563708  18.5853206 101.2084258  69.2928822
  18.2562309 101.5244100  69.9306926  29.0249681 110.1486551  68.1311058
  28.3078991 109.9747413  67.6658296  29.6756419 109.9139123  67.5986544
  29.0151532 110.0882343  67.9840276  27.0198306  91.0691713  72.4522355
  26.3766624  90.9189359  73.0207493  26.6797713  90.8234058  71.6871460
  26.8743383  91.0103835  72.4225370  31.6097653  99.0251139  71.8752364
  30.9388842  99.5680842  71.7465429  32.3037403  99.4945995  71.6334058
  31.6126520  99.1749411  71.8207891  25.6584386 111.1647851  77.1064122
  25.4350041 110.4066681  77.4748148  25.1694230 111.1945873  76.3844562
  25.5527835 111.0570076  77.0540863  31.7725780  95.4807023  74.7842737
  32.1253390  95.0536746  75.4588535  30.9140582  95.3957867  74.9143813
  31.6975225  95.4051764  74.9037747  20.4709465  98.1114543  72.8425583
  19.7521454  98.5278675  73.1098447  20.8421827  98.6768782  72.2917221
  20.4201397  98.2563824  72.8008390  29.7709046  98.7442392  78.7327579
  29.7506973  98.5625687  79.5862358  29.8188247  99.6154410  78.7087163
  29.7743687  98.8458930  78.8550874  27.7155376 105.3329584  84.6576056
  27.6751231 104.6879261  84.0721211  28.5278694 105.2766201  84.9701468
  27.8298529 105.2288550  84.6173005  24.3062843 111.3848310  74.5601206
  23.8923242 110.7222440  74.1705048  24.9910217 111.5326168  74.0396901
  24.3461215 111.3088968  74.4257704  27.6728137 110.5438395  75.3124823
  27.2744421 110.6540665  74.5445643  27.0579357 110.7520461  75.8951383
  27.5227027 110.5911963  75.2856122  26.2456039  97.1512543  68.1798963
  25.6520879  97.4729539  67.6283530  26.2831317  96.3053638  67.9720069
  26.1630429  97.0736871  68.0681734  33.2049840  90.6025435  75.7127049
  32.6980705  89.8954574  75.6448227  34.0017274  90.2718624  75.8428126
  33.2477079  90.4498586  75.7226044  29.1213856  97.1092047  71.6100713
  28.8927549  97.1324749  70.7679071  29.3811932  96.2849514  71.7295724
  29.1260044  96.9908127  71.5025911  23.4033084  98.9626520  81.2125813
  22.8911987  98.3547703  81.5710845  23.2312581  99.6783113  81.6799789
  23.3022721  98.9789819  81.3342037  18.2498799  97.4064096  83.8628175
  18.0801389  98.0665470  83.3176382  17.8064749  97.6170657  84.5840664
  18.1598133  97.5350078  83.8889804  22.1758618  95.6468593  72.9054909
  22.6515985  96.0085673  72.2705090  21.6747218  96.3025061  73.1855051
  22.1723977  95.7962782  72.8531650  35.4069980 105.1190362  68.6967914
  35.7903586 105.8681718  68.9266011  34.6114093 105.3656181  68.4379903
  35.3463762 105.2660055  68.6925487  27.2802155  96.8850765  83.6528069
  27.8373585  96.6564574  83.0206534  26.9563220  97.6456430  83.3763281
  27.3148565  96.9634602  83.5184566  15.1500864 100.3110961  79.1216665
  14.6027583  99.6411607  79.2397533  15.9393242  99.9440809  79.1860132
  15.1853047 100.1575947  79.1485365  24.9985272  99.9718418  84.6180076
  25.7496599 100.2870095  84.9319630  25.1907848  99.7697589  83.7913998
  25.1376686  99.9885800  84.5423472  24.2185272  97.7909793  66.2728293
  24.5984236  97.8089422  65.4879407  23.4777868  98.2363782  66.1519140
  24.1654109  97.8591568  66.1391861  31.8470562  96.0991984  71.8603871
  31.8464789  95.9440641  72.7188148  31.6426742  96.9454971  71.8045257
  31.8170340  96.2012605  71.9791811  13.9087833  99.5231769  76.2762688
  13.7309594  99.0708378  77.0017603  13.6206855 100.3257930  76.4601165
  13.8400786  99.5754327  76.4106191  29.5711414 100.7789486  75.5140078
  30.0665080 100.0612481  75.4744098  28.7611190 100.4760284  75.3994565
  29.5255307 100.6287133  75.4913804  25.0170026 104.6287299  67.6637083
  24.2081348 104.3053973  67.6170392  25.5244935 103.9220522  67.5965331
  24.9719693 104.4768616  67.6467377  15.6460303 102.0559493  73.3884447
  14.7805822 102.0445183  73.2767218  15.7459119 101.8689715  74.2355586
  15.5334470 102.0265554  73.4973391  31.6363233 103.5293174  78.2017207
  32.0618305 103.0067596  77.6487632  31.2720153 104.1274011  77.6805830
  31.6449836 103.5403401  78.0426217  21.2717313 111.8257391  76.9614552
  21.5863872 112.6393780  76.9692334  21.6810726 111.4407610  77.6296712
  21.3785411 111.8886094  77.0618644  28.2241833 107.2427438  74.5318364
  28.6953011 107.9567701  74.7008350  28.5602011 106.6426188  75.0678234
  28.3436948 107.2598902  74.6350740  30.3118817 108.8528751  86.7110436
  30.4215783 108.0637312  87.0667184  30.6409714 108.7634688  85.9084775
  30.3771223 108.7234604  86.6452827  25.1411327  92.0154909  81.4876459
  25.2739233  91.2185902  81.8157435  25.5256480  92.5421312  82.0674735
  25.2167656  91.9754825  81.6219962  28.8615779 107.0345372  81.2946057
  28.3136725 106.4103256  81.0266122  29.3228808 107.2239644  80.5790136
  28.8482988 106.9704422  81.1496488  28.2143683  88.9385235  78.0857552
  27.4089646  88.8282964  78.4025391  28.0850418  89.0397690  77.2287418
  28.0763815  88.9368905  78.0065593  31.6709643  95.1030727  78.6797249
  31.0872632  95.6039933  78.2674817  31.9913937  94.5960283  78.0461573
  31.6322819  95.1022562  78.5255757  24.2104442  94.0171321  68.9555924
  25.0320137  94.1869634  68.7137619  23.7474093  94.1718582  68.2322222
  24.2635605  94.0653054  68.8127568  22.7999774  92.0114084  79.7354353
  23.3444187  91.6705210  80.3258695  22.8536710  92.8699545  79.8775638
  22.8888894  92.0869343  79.8436226  18.6130333 105.7730500  76.6093161
  19.2175190 105.7326334  75.9806982  18.4057646 106.6201652  76.6397217
  18.6719230 105.8918502  76.5209277  28.4274105 108.0396445  77.8255398
  29.2472479 107.8959411  78.0871693  28.1468183 108.6642644  78.3671836
  28.5070849 108.1106797  77.9443338  13.8481615 104.7565117  76.4792084
  13.7505893 103.9461389  76.7882141  14.6310485 104.7356911  76.0938352
  13.9497752 104.6332207  76.4678947  44.8987756 115.6961297  70.7898275
  44.8681760 116.5505933  70.9616544  45.4969104 115.3956589  71.3484418
  44.9824913 115.7777793  70.8973077  38.0987440 114.7836948  75.5451205
  37.2425336 114.9445446  75.5960322  38.1455094 113.9129012  75.5656266
  37.9786552 114.6787749  75.5557271  41.4081157 121.0523473  85.1511661
  42.1147924 120.5575504  85.2798596  41.5969092 121.4932555  84.4214319
  41.5409063 121.0441824  85.0620707  40.9439261 116.8428991  78.1882857
  41.4895221 117.5214078  78.2476826  40.8856138 116.7016452  77.3284438
  41.0155176 116.9220993  78.0694917  42.7204330 118.2713599  69.0616584
  42.6043856 119.0221285  69.4908723  43.5160217 118.0137552  69.3112671
  42.8208919 118.3448445  69.1620676  29.5568468 112.5224075  76.0987850
  28.9373500 111.9316722  75.9297865  29.4552332 113.1135510  75.4652174
  29.4506144 112.5228157  75.9792840  36.6536364 114.2623617  70.4320314
  37.3516528 114.4411744  70.9241777  36.9688696 113.7393956  69.8090703
  36.8031701 114.2117389  70.4122324  29.2837601 116.0676356  78.3431419
  29.1596298 116.6538802  78.9781238  29.9355886 115.5736552  78.6443694
  29.3611250 116.0815161  78.4817349  34.3095942 119.2438073  77.6218931
  34.9544945 118.7510517  77.3029879  34.5497719 119.3862860  78.4485009
  34.4406527 119.1915516  77.6968464  34.8263227 109.6316013  74.5141588
  34.4966557 110.0827157  73.8445287  34.1508229 109.5532177  75.0614595
  34.6773664 109.6867148  74.4964811  40.4433636 119.0021243  67.3730874
  40.3584931 119.8582210  67.5180443  40.9318019 118.7265567  68.0413033
  40.5022533 119.0878564  67.4932956  42.0339635 105.6201536  72.7591199
  41.7193076 106.3105015  73.1911621  41.5166577 105.5646318  72.0576700
  41.9104105 105.7136425  72.7188148  41.3752069 115.6206037  68.8728609
  40.8463540 115.8365671  69.5325916  41.8977089 116.3142175  68.7929579
  41.3740522 115.7549174  68.9584209  46.8300122 121.1952341  74.2461654
  45.9997825 121.4062985  74.4095070  46.7809374 120.3689396  73.9703937
  46.7006857 121.1041948  74.2299019  37.7228891 115.7634906  66.1504998
  37.9624895 115.9712890  65.3380341  38.0444732 114.9592415  66.2593942
  37.8066049 115.6749007  66.0465551  33.0319181 107.6928302  69.9964536
  33.7865149 108.0606619  69.7581586  32.8546716 108.0667856  70.7643715
  33.1173660 107.8026490  70.0749424  46.3254080 113.8422742  78.0412075
  45.4882501 113.9124929  78.2759670  46.2942311 113.8447237  77.1686378
  46.1972362 113.8532969  77.9471623  32.7218809 115.9855778  83.7560444
  32.8939313 115.8761672  84.6045725  33.2588167 116.6310183  83.5191636
  32.8263813 116.0647779  83.8465541  31.3876246 110.0998621  66.6942649
  31.2051819 110.3170501  65.8683642  32.2501859 110.2137633  66.7501263
  31.4880835 110.1488519  66.5797136  37.0675965 107.1025031  69.7291673
  37.7962126 106.9240986  69.2829829  37.1570858 107.9443111  69.9398851
  37.1882627 107.2008910  69.6945190  41.0484266 118.0378419  73.6323967
  41.8041781 118.4709933  73.6712875  41.1546590 117.3883188  74.2058603
  41.1754436 118.0055902  73.7221992  44.0864437 121.8651696  74.3826370
  43.6499669 121.8688438  75.1385341  43.7527352 122.5457195  73.9505947
  43.9727057 121.9664152  74.4307202  44.0061920 108.9065524  76.6255798
  44.6487828 108.9763628  77.2117713  44.2584941 108.2394747  76.1235339
  44.1384052 108.8191872  76.6383077  30.9338273 113.3772793  65.2065122
  30.2196450 113.0910973  65.6187554  31.4182242 113.7169419  65.8471509
  30.8997636 113.3854443  65.3620757  31.7779132 112.1166087  81.2380372
  31.0850929 111.6463067  81.4841103  32.3939460 111.8904392  81.8122079
  31.7663662 112.0133219  81.3589524  47.2208783 118.5832616  73.2746007
  47.8825217 118.0223284  73.1741915  46.5800195 118.0884647  73.5998698
  47.2237651 118.4269025  73.3078347  43.5073614 119.5997998  73.0157996
  43.7429203 119.7443197  72.1884846  43.6563177 120.3640406  73.4089509
  43.5639417 119.7337053  72.9521600  30.5019691 116.0831491  82.3807217
  31.2259664 116.0684522  82.8672111  30.6035828 116.7926846  81.8829185
  30.6237900 116.1856194  82.3786004  45.3364071 118.4399664  70.8527599
  45.6672288 118.9727304  70.2467694  45.9097159 118.4938552  71.5089550
  45.4697750 118.5269233  70.8605381  37.8764641 119.5630576  87.2456164
  37.0837622 119.8774088  87.4308783  37.9913568 119.7782044  86.4076948
  37.7760051 119.6414412  87.1494499  40.5495960 116.2864567  71.5351180
  40.6442814 117.0253861  71.9890805  39.9254803 115.8582042  71.9685744
  40.4704990 116.3325887  71.6659327  38.8048434 119.4650779  82.1841460
  39.3787295 118.8278024  82.3390024  38.7263237 119.4654862  81.3151118
  38.8781668 119.3715891  82.0787871  27.4044850 116.2439989  76.0224175
  27.9818353 116.1076440  76.6616420  26.7058912 115.7875773  76.2769759
  27.3865871 116.1562255  76.1546464  40.8018981 118.1313307  64.7688132
  40.7199144 118.2015494  65.6343119  41.4398701 118.6943051  64.5771872
  40.8838818 118.2252278  64.8678081  34.1612152 117.8974045  74.2362658
  33.9031396 117.0645779  74.2093957  34.2160635 118.1231658  73.3955158
  34.1311930 117.8071816  74.1082795  39.2413202 110.0002495  74.3366751
  38.5369529 109.5111681  74.4950670  39.2898177 110.0124970  73.4655195
  39.1443254 109.9292143  74.2306090  33.1346864 115.4511807  74.7227553
  32.5596456 115.6103975  75.3591514  32.7582541 114.8147216  74.2596003
  32.9949677 115.3809620  74.7482111  36.8020153 113.9235156  79.5819931
  36.4134586 113.4989374  78.9272122  36.1374851 114.1717306  80.0896958
  36.6467081 113.8973877  79.5607799  46.4443422 113.6810161  72.3567761
  46.1879987 112.8690102  72.1665644  47.2872736 113.6887728  72.1297948
  46.5309447 113.5622158  72.2952578  22.8803683 115.0951882  72.7371993
  22.9663935 114.7183750  73.5185523  23.5079481 114.7212327  72.2591952
  22.9860234 114.9837364  72.7817471  40.6246515 107.6209785  77.0943915
  41.0057026 106.9387956  77.4811789  39.8209799 107.3319387  76.9119580
  40.5622976 107.4776834  77.1247971  37.9059091 118.1533761  67.7796738
  38.7199730 118.4448654  67.6679509  37.8418232 117.4993623  67.2055031
  38.0161830 118.0998956  67.6785575  44.1268581 120.8359757  82.1926314
  43.8907219 120.0047822  82.0738374  44.7711810 120.7845364  82.7781158
  44.1863252 120.7057445  82.2612207  34.4169814 116.8457568  67.2443939
  34.8014967 116.6265275  67.9960485  34.1681435 117.6720514  67.3745016
  34.4371887 116.9355714  67.3745016  34.5838355 110.1263983  86.9606524
  34.2691796 110.8963546  86.6976086  34.2628287 109.5634239  86.3758751
  34.4897274 110.1574252  86.8347874  45.1505002 120.6204206  78.2554608
  44.8450819 121.3532263  78.6167924  44.4311218 120.2142135  77.9747394
  44.9992344 120.6685939  78.2667745  50.8506794 117.2597206  77.5822952
  50.7831294 117.2793166  76.7125539  50.8362457 118.1027534  77.8078623
  50.8385551 117.3870941  77.4875429  32.1370252 108.5154505  72.5752720
  31.2692677 108.5877104  72.6410329  32.4245456 109.3176584  72.7640695
  32.0510000 108.6448652  72.6127487  41.2603141 108.6632364  80.9064042
  42.0056733 108.4742175  80.4927467  40.8440445 109.1890602  80.3477898
  41.3088115 108.7134510  80.7628615  48.6365411 116.0341593  75.8569547
  49.1873333 115.4009662  76.0966639  48.6209527 116.5656985  76.5485051
  48.7150608 116.0190541  75.9948405  42.3393818 114.2737926  74.9674143
  41.9958584 113.5528262  75.3181393  42.4386860 114.0651778  74.1252501
  42.3035861 114.1362130  74.8945823  42.8006847 120.7363630  70.5098131
  43.3664879 121.3956840  70.4256674  42.1534750 121.0813329  70.9814533
  42.7885603 120.8845572  70.5670888  34.2154860 112.7261234  85.6991739
  33.4054636 113.0319014  85.5881581  34.6929547 113.4466817  85.8144323
  34.1658339 112.8775836  85.6998810  30.0637604 111.9912764  70.0169596
  29.7762400 111.6214035  69.2801544  30.7508072 112.4607619  69.7553301
  30.1226501 112.0059733  69.8684672  32.8991276 115.8565712  71.4637001
  33.6213927 116.0206870  71.0040807  32.4199268 116.5775377  71.3576341
  32.9355006 115.9863942  71.3802615  40.8584783 112.1929511  76.8433686
  40.0195884 112.2190790  76.6071949  40.9289150 112.8400247  77.4239033
  40.7453177 112.2925637  76.8942803  39.3054061 109.0914888  71.5761302
  40.0080414 108.8922636  71.0981260  39.0398250 108.3190830  71.8830145
  39.3700694 108.9477854  71.5506743  44.7342307 117.3997498  74.1294928
  44.6476281 117.5552924  74.9829707  44.2792787 118.0435573  73.7554333
  44.6545564 117.5173253  74.2002034  27.6365799 112.7693977  70.8654877
  27.7381935 113.5720138  71.1935853  28.4321685 112.5681312  70.5677958
  27.7693704 112.8579875  70.8690233  34.0682618 110.3550173  80.6292182
  33.8765815 110.3705308  81.4791606  34.9181214 110.5513848  80.6058837
  34.1658340 110.3864525  80.7515477  28.4529531 112.8841155  78.6075999
  28.3115022 112.0325095  78.7320507  28.7370094 112.9269815  77.7838205
  28.4737377 112.7640905  78.5043623  38.6068123 114.7208245  72.7520487
  38.3602837 114.6403996  73.5857276  38.9353246 113.9361713  72.5583015
  38.6189367 114.5934510  72.8468010  42.5016172 121.4291604  76.5407268
  42.3630531 122.1272650  77.0456011  41.7216170 121.2740261  76.1843450
  42.3659399 121.5091771  76.5633543  40.8394257 117.7287980  82.7929650
  40.8342295 116.8567796  82.7972077  41.5455251 117.9276149  82.3199106
  40.9439261 117.6291854  82.7236686  34.5665150 117.4564964  82.1643470
  34.7108526 118.0366172  81.5286580  34.9140799 117.8341260  82.8693325
  34.6392612 117.5985668  82.1742465  36.7385068 116.6555132  79.9468602
  35.9908382 116.8486146  79.5416880  36.8926593 115.8300352  79.7092723
  36.6507495 116.5620243  79.8514008  43.9969545 120.7869858  67.3023768
  43.6176353 120.0006996  67.2953057  43.3335790 121.3356715  67.1595412
  43.8428019 120.7514682  67.2804565  36.9786845 110.5505683  80.8364006
  37.4359459 111.2829657  80.9636798  37.0543173 110.1272148  81.5951261
  37.0577815 110.5962921  80.9665082  29.2219836 110.7971502  81.9253449
  28.6862025 110.1851861  82.2414217  29.2837601 111.3719638  82.5787116
  29.1515469 110.7918430  82.0688876  41.4514171 103.7295558  74.7057849
  41.5697739 104.1872021  73.9725151  41.2776346 102.9240819  74.4194066
  41.4433342 103.6789330  74.5558782  34.8569223 112.5407787  77.6805830
  34.0665297 112.3599247  78.0023165  35.2529845 111.7634739  77.6636124
  34.7986099 112.3995248  77.7258378  40.2412909 120.1750217  75.4065276
  39.5657911 119.9435449  75.9078663  40.2505285 119.5671400  74.7807381
  40.1431413 120.0509142  75.3881428  37.3707053 115.0168046  82.1629329
  37.3066194 115.8778002  82.0349465  37.5104241 114.7000039  81.3624880
  37.3822523 115.0968212  82.0257541  36.0526147 117.7100185  76.3045531
  35.6288396 117.9104684  75.5684550  35.8771002 116.8629033  76.4169831
  35.9637027 117.6148967  76.2119222  37.8787736 117.5810120  70.6066867
  38.4203282 117.0780501  71.0705488  38.1934295 117.5275315  69.7956352
  38.0052133 117.4989541  70.5550679  41.7504844 121.7912767  87.7193779
  42.5639709 121.5197916  87.8798912  41.5899810 121.4920307  86.9153975
  41.8474792 121.7067693  87.6239185  39.0277006 112.4746425  80.6589168
  39.2418975 111.8357339  80.1052522  38.4110905 112.9192248  80.2297029
  38.9682335 112.4456568  80.5139599  27.9142853 115.3887187  72.0534271
  28.2941818 115.8071732  71.3894538  27.3398218 115.9700643  72.3603114
  27.8854178 115.5365046  72.0011012  41.1916094 114.0835490  81.5972475
  40.3792775 113.7761380  81.6785647  41.6506028 113.6034490  82.1615187
  41.1396478 113.9671982  81.6927069  38.4191734 105.5846360  75.6476510
  37.5485292 105.5585081  75.6009820  38.6732076 105.4123552  74.8302356
  38.3285294 105.5556504  75.5196647  35.3909714 117.6414327  64.5849653
  35.6802239 118.4179210  64.8593228  35.4781513 117.1303059  65.2864153
  35.4463970 117.6806246  64.7292151  38.2869601 115.4895561  86.3801177
  38.7569232 116.1137678  86.7669051  38.3331481 114.8212537  86.9394392
  38.3637477 115.4830241  86.5201248  35.4440875 107.5952589  77.1049981
  34.9279363 106.9032780  77.2301560  34.8834804 108.2623366  77.0512580
  35.2847388 107.5915846  77.1156047  37.5133108 108.1345549  78.9342833
  37.1264861 108.1594580  79.7156363  37.0266046 107.5687227  78.4817350
  37.3845617 108.0541300  78.9830737  43.4883088 114.7008204  77.5582536
  43.0610696 114.6134552  76.8030635  42.8509141 114.8085979  78.1437380
  43.3312695 114.7040864  77.5327977  37.1790250 105.0212534  81.2253093
  37.8083368 105.5572834  80.9474164  37.3476113 104.9289893  82.0766659
  37.2968045 105.0873896  81.3101621  36.9804165 109.8083729  83.4979505
  37.8077594 109.5368878  83.5538119  37.0012011 110.6044571  83.8543323
  37.1057015 109.8863483  83.5594688  31.5573655 116.9547592  76.6849766
  30.7161661 116.8551466  76.8928659  31.7663663 117.7243072  77.0364086
  31.4638347 117.0539635  76.7677080  29.0349222 114.5767129  74.5134516
  28.6405919 114.6510140  73.7384626  28.4789339 114.9625075  75.0642878
  28.8952034 114.6448903  74.4802176  40.6714168 107.5548423  74.1938395
  40.8763762 107.4870731  75.0395392  40.3440592 108.3607244  74.1259573
  40.6529416 107.6634363  74.3098050  35.3690320 114.8828991  75.9347363
  35.0653457 114.3284979  76.5357771  34.6669740 115.0621201  75.4475397
  35.2206529 114.8273773  75.9517069  34.4256417 112.1929511  70.4992065
  34.7016151 111.4748423  70.0869632  35.0255086 112.7914431  70.2913171
  34.5549681 112.1749881  70.4072826  43.9247856 108.1080187  73.6741161
  43.3122170 108.5950589  74.0594892  44.0212031 107.4323678  74.2178812
  43.8485754 108.0798496  73.8120019  37.9266937 109.8643028  68.7738660
  38.3810684 110.0353588  69.4986504  38.4006983 109.2511139  68.3736436
  38.0635257 109.7993913  68.8212422  31.8443085 110.5093352  78.7709416
  32.3044567 110.5832281  79.5084540  31.8899192 111.3074606  78.4209237
  31.9193641 110.6387499  78.8282173  33.4926435 111.1760047  83.3381443
  33.1012000 110.5293394  83.7737221  33.6612298 111.7671482  83.9575699
  33.4597345 111.1674315  83.4944149  47.5672884 119.1797124  79.1018677
  47.6256008 119.6283772  79.8478653  46.9339352 119.5895936  78.6648757
  47.4824179 119.3070858  79.1471225  35.2679957 116.5685562  69.8783667
  36.0122002 116.9559839  70.1166617  35.4140653 115.7242988  70.0424155
  35.3990542 116.5016035  69.9377637  37.1859533 108.3635821  74.9115529
  36.3395578 108.5358629  74.7856878  37.1830665 107.5585165  75.2481357
  37.0606683 108.2696850  74.9426656  38.2557833 112.1411036  75.7777587
  37.7817787 111.6152798  76.2882897  38.6275969 111.5940509  75.2092448
  38.2407722 111.9827032  75.7692734  28.6330863 114.1382542  81.1461132
  29.4956476 114.0378252  81.0598462  28.3022646 113.5577252  80.5846704
  28.7116060 114.0374169  81.0506538  44.5194564 117.2013411  77.1884367
  44.2792787 116.3619827  77.1926793  44.9986571 117.2813578  77.9125141
  44.5546747 117.0894811  77.2959169  40.1841333 113.0347590  68.8403340
  39.6564351 113.1176334  68.1509049  40.6437041 113.7765462  68.8367985
  40.1743183 113.1568253  68.7378035  46.5199751 113.9814869  75.1413626
  46.2809521 113.9410703  74.3034411  46.6833652 114.8286021  75.2679347
  46.5090054 114.1006954  75.0367108  43.1245781 118.3664818  81.0718671
  43.8479980 117.9137344  80.8929691  42.8595743 118.6469484  80.2890999
  43.1927054 118.3415786  80.9297387  31.9932649 112.9624991  77.8071550
  31.3685719 112.9743383  77.1997503  31.6578244 113.4385167  78.4562791
  31.8518141 113.0343508  77.8128119  32.1774398 111.3050110  63.8644235
  31.8287202 111.9569835  64.3275785  31.6970844 111.2907223  63.1368107
  32.0544642 111.3993163  63.8255327  38.9064570 118.4648696  79.2213686
  38.2921563 117.9206746  79.5162322  39.4231855 117.9512933  78.7419502
  38.8920233 118.3085105  79.1937915  38.1460867 119.5352966  76.9557985
  37.7188476 118.9102685  76.5223420  38.1385812 119.2527888  77.7816992
  38.0820009 119.4005747  77.0137813  31.2623395 114.5718139  80.0246419
  31.4216881 113.8161463  80.4298141  31.0816288 115.1209079  80.6787157
  31.2588754 114.5411953  80.1809125  39.2043698 106.7379375  80.5797208
  38.7084259 106.9343049  79.8888775  39.9612760 107.1372043  80.4086010
  39.2430522 106.8257109  80.4517345  36.4746577 110.4121721  77.1700519
  36.4989064 109.8781833  76.4813299  36.7258051 109.9039030  77.8326110
  36.5156496 110.2582625  77.1665164  32.7547899 109.1392539  76.5506263
  32.7946271 109.6401746  77.2640971  31.9297564 109.2302933  76.2812186
  32.6387425 109.2274355  76.6156802  34.9377512 118.7053279  84.6526558
  34.0873143 118.8424993  84.7884203  35.1005640 117.9717057  85.0974260
  34.8361376 118.6167380  84.7382157  34.1762263 115.6553049  78.8480162
  33.3454192 115.8226867  78.6415410  34.1213780 115.2789000  79.6329048
  34.0451678 115.6242780  78.9328690  31.9846046 109.1461942  84.4836573
  32.6098749 108.6024074  84.7566005  31.5296526 108.6656859  83.9144363
  32.0094307 108.9951423  84.4398167  32.5498307 113.9308640  69.3770280
  32.6901268 114.4281105  70.0798921  33.0480839 113.2294935  69.5184494
  32.6439388 113.9010619  69.5021859  32.5798529 114.7975751  66.7062857
  33.2143608 115.3936176  66.6412319  32.6624140 114.4979209  67.5208727
  32.6855080 114.8416660  66.8165943  45.5581095 117.3291229  79.5749221
  46.1498935 117.9688479  79.6067419  45.9940089 116.6314265  79.8641288
  45.7099526 117.3209579  79.6230054  34.1577512 110.7289727  66.6808299
  34.4793353 110.2492809  66.0267561  34.4204456 111.5389373  66.4899110
  34.2443537 110.7779625  66.5563791  39.5536667 110.1161921  79.0431778
  39.9791738 109.6634447  78.4315304  38.9393660 109.5621991  79.3196565
  39.5265312 109.9675897  78.9936803  29.0851517 116.9943592  69.9752403
  29.5943746 117.5908100  70.3563708  29.5585789 116.7269566  69.2928822
  29.2294893 117.0429408  69.9306926  37.9930890 106.5877021  72.4522355
  37.3499208 106.4374667  73.0207493  37.6530297 106.3419366  71.6871460
  37.8475967 106.5289143  72.4225370  42.5830236 114.5436447  71.8752364
  41.9121426 115.0866150  71.7465429  43.2769986 115.0131303  71.6334058
  42.5859104 114.6934719  71.8207891  42.7458364 110.9992331  74.7842737
  43.0985974 110.5722054  75.4588535  41.8873165 110.9143175  74.9143813
  42.6707808 110.9237072  74.9037747  31.4442049 113.6299851  72.8425583
  30.7254038 114.0463983  73.1098447  31.8154411 114.1954089  72.2917221
  31.3933980 113.7749132  72.8008390  40.7441629 114.2627700  78.7327579
  40.7239557 114.0810995  79.5862358  40.7920830 115.1339718  78.7087163
  40.7476270 114.3644238  78.8550874  38.6887959 120.8514892  84.6576056
  38.6483814 120.2064569  84.0721211  39.5011278 120.7951509  84.9701468
  38.8031113 120.7473858  84.6173005  37.2188623 112.6697851  68.1798963
  36.6253462 112.9914847  67.6283530  37.2563901 111.8238946  67.9720069
  37.1363012 112.5922179  68.0681734  44.1782424 106.1210743  75.7127049
  43.6713288 105.4139882  75.6448227  44.9749857 105.7903932  75.8428126
  44.2209663 105.9683894  75.7226044  40.0946440 112.6277355  71.6100713
  39.8660133 112.6510057  70.7679071  40.3544516 111.8034822  71.7295724
  40.0992628 112.5093435  71.5025911  34.3765668 114.4811828  81.2125813
  33.8644571 113.8733011  81.5710845  34.2045164 115.1968421  81.6799789
  34.2755305 114.4975127  81.3342037  29.2231383 112.9249403  83.8628175
  29.0533973 113.5850778  83.3176382  28.7797333 113.1355965  84.5840664
  29.1330716 113.0535386  83.8889804  33.1491202 111.1653901  72.9054909
  33.6248568 111.5270981  72.2705090  32.6479802 111.8210369  73.1855051
  33.1456561 111.3148090  72.8531650  46.3802564 120.6375669  68.6967914
  46.7636169 121.3867026  68.9266011  45.5846677 120.8841489  68.4379903
  46.3196346 120.7845363  68.6925487  38.2534738 112.4036073  83.6528069
  38.8106168 112.1749882  83.0206534  37.9295803 113.1641738  83.3763281
  38.2881148 112.4819909  83.5184566  26.1233447 115.8296269  79.1216665
  25.5760167 115.1596915  79.2397533  26.9125825 115.4626117  79.1860132
  26.1585631 115.6761255  79.1485365  35.9717856 115.4903726  84.6180076
  36.7229183 115.8055403  84.9319630  36.1640432 115.2882897  83.7913998
  36.1109270 115.5071108  84.5423472  35.1917855 113.3095101  66.2728293
  35.5716820 113.3274730  65.4879407  34.4510451 113.7549090  66.1519140
  35.1386693 113.3776876  66.1391861  42.8203146 111.6177292  71.8603871
  42.8197372 111.4625949  72.7188148  42.6159326 112.4640279  71.8045257
  42.7902924 111.7197913  71.9791811  24.8820417 115.0417077  76.2762688
  24.7042178 114.5893686  77.0017603  24.5939439 115.8443238  76.4601165
  24.8133370 115.0939635  76.4106191  40.5443998 116.2974794  75.5140078
  41.0397663 115.5797789  75.4744098  39.7343774 115.9945592  75.3994565
  40.4987891 116.1472440  75.4913804  42.6095817 119.0478482  78.2017207
  43.0350888 118.5252903  77.6487632  42.2452737 119.6459319  77.6805830
  42.6182419 119.0588709  78.0426217  36.1143911 107.5340217  81.4876459
  36.2471817 106.7371210  81.8157435  36.4989064 108.0606620  82.0674735
  36.1900240 107.4940133  81.6219962  39.1876266 104.4570543  78.0857552
  38.3822230 104.3468272  78.4025391  39.0583002 104.5582998  77.2287418
  39.0496399 104.4554213  78.0065593  42.6442227 110.6216035  78.6797249
  42.0605216 111.1225241  78.2674817  42.9646521 110.1145591  78.0461573
  42.6055402 110.6207870  78.5255757  35.1837026 109.5356629  68.9555924
  36.0052720 109.7054942  68.7137619  34.7206677 109.6903890  68.2322222
  35.2368188 109.5838362  68.8127568  33.7732358 107.5299392  79.7354353
  34.3176771 107.1890518  80.3258695  33.8269294 108.3884853  79.8775638
  33.8621477 107.6054651  79.8436226  53.0072219 121.1386844  72.7591199
  52.6925660 121.8290323  73.1911621  52.4899160 121.0831626  72.0576700
  52.8836689 121.2321733  72.7188148  48.0408549 122.6210339  69.7291673
  48.7694709 122.4426294  69.2829829  48.1303442 123.4628419  69.9398851
  48.1615211 122.7194218  69.6945190  54.9794503 124.4250832  76.6255798
  55.6220412 124.4948936  77.2117713  55.2317524 123.7580055  76.1235339
  55.1116636 124.3377180  76.6383077  51.5979098 123.1395093  77.0943915
  51.9789610 122.4573264  77.4811789  50.7942382 122.8504695  76.9119580
  51.5355560 122.9962142  77.1247971  52.2335724 124.1817672  80.9064042
  52.9789316 123.9927483  80.4927467  51.8173029 124.7075910  80.3477898
  52.2820698 124.2319818  80.7628615  50.2786645 124.6100196  71.5761302
  50.9812998 124.4107944  71.0981260  50.0130834 123.8376138  71.8830145
  50.3433277 124.4663162  71.5506743  52.4246754 119.2480866  74.7057849
  52.5430322 119.7057329  73.9725151  52.2508930 118.4426127  74.4194066
  52.4165925 119.1974638  74.5558782  49.3924318 121.1031668  75.6476510
  48.5217876 121.0770389  75.6009820  49.6464659 120.9308860  74.8302356
  49.3017878 121.0741812  75.5196647  48.4865692 123.6530857  78.9342833
  48.0997445 123.6779888  79.7156363  47.9998629 123.0872535  78.4817350
  48.3578201 123.5726607  78.9830737  48.1522834 120.5397842  81.2253093
  48.7815952 121.0758142  80.9474164  48.3208696 120.4475201  82.0766659
  48.2700628 120.6059204  81.3101621  51.6446752 123.0733731  74.1938395
  51.8496345 123.0056038  75.0395392  51.3173176 123.8792552  74.1259573
  51.6262000 123.1819671  74.3098050  54.8980440 123.6265495  73.6741161
  54.2854753 124.1135897  74.0594892  54.9944615 122.9508986  74.2178812
  54.8218337 123.5983804  73.8120019  50.1776281 122.2564683  80.5797208
  49.6816842 122.4528357  79.8888775  50.9345343 122.6557351  80.4086010
  50.2163106 122.3442417  80.4517345  48.9663473 122.1062328  72.4522355
  48.3231791 121.9559975  73.0207493  48.6262880 121.8604674  71.6871460
  48.8208551 122.0474451  72.4225370  55.1515007 121.6396051  75.7127049
  54.6445872 120.9325190  75.6448227  55.9482441 121.3089240  75.8428126
  55.1942246 121.4869202  75.7226044  47.0876495 123.0525524  81.4876459
  47.2204400 122.2556518  81.8157435  47.4721647 123.5791927  82.0674735
  47.1632823 123.0125441  81.6219962  50.1608850 119.9755851  78.0857552
  49.3554813 119.8653580  78.4025391  50.0315585 120.0768306  77.2287418
  50.0228983 119.9739521  78.0065593   0.7008245  30.5598196  57.7238321
   0.6702250  31.4142833  57.8956591   1.2989594  30.2593489  58.2824465
   0.7845403  30.6414693  57.8313124   2.6320611  36.0589241  61.1801701
   1.8018314  36.2699885  61.3435117   2.5829864  35.2326296  60.9043984
   2.5027347  35.9678847  61.1639066   2.1274570  28.7059642  64.9752122
   1.2902991  28.7761829  65.2099716   2.0962801  28.7084136  64.1026424
   1.9992852  28.7169869  64.8811670   3.0229273  33.4469515  60.2086054
   3.6845707  32.8860184  60.1081962   2.3820685  32.9521546  60.5338745
   3.0258140  33.2905924  60.2418394   1.1384560  33.3036564  57.7867646
   1.4692777  33.8364204  57.1807741   1.7117648  33.3575451  58.4429597
   1.2718239  33.3906132  57.7945428   2.2463912  28.5447060  59.2907808
   1.9900477  27.7327002  59.1005691   3.0893226  28.5524628  59.0637995
   2.3329937  28.4259058  59.2292625   6.6527284  32.1234106  64.5162999
   6.5851784  32.1430065  63.6465586   6.6382946  32.9664433  64.7418670
   6.6406040  32.2507841  64.4215476   4.4385901  30.8978492  62.7909594
   4.9893823  30.2646561  63.0306686   4.4230016  31.4293885  63.4825098
   4.5171097  30.8827440  62.9288452   3.3693374  34.0434023  66.0358724
   3.4276498  34.4920672  66.7818700   2.7359841  34.4532836  65.5988804
   3.2844669  34.1707758  66.0811272   2.3220240  28.8451768  62.0753673
   2.0830010  28.8047602  61.2374458   2.4854142  29.6922920  62.2019394
   2.3110544  28.9643853  61.9707155   1.3601584  32.1928128  66.5089268
   1.9519425  32.8325379  66.5407466   1.7960579  31.4951165  66.7981335
   1.5120016  32.1846479  66.5570100   2.1823053  35.5012569  55.6307960
   2.5656659  36.2503925  55.8606057   1.3867167  35.7478389  55.3719950
   2.1216835  35.6482263  55.6265534  11.6740829  46.0783504  57.7238321
  11.6434833  46.9328141  57.8956591  12.2722177  45.7778797  58.2824465
  11.7577987  46.1600000  57.8313124   4.8740514  45.1659155  62.4791252
   4.0178409  45.3267653  62.5300369   4.9208167  44.2951219  62.4996313
   4.7539625  45.0609957  62.4897318   8.1834230  51.4345681  72.0851708
   8.8900997  50.9397711  72.2138642   8.3722166  51.8754762  71.3554366
   8.3162136  51.4264031  71.9960753   4.7106613  55.1247242  53.6714030
   4.3757982  55.8024164  53.2358253   5.2233484  54.7352554  53.0830902
   4.7372194  55.1671821  53.5200822   4.2510904  57.0761511  59.6125142
   4.6350284  57.6448410  59.0729917   4.1870046  56.3511021  59.1330958
   4.2984332  57.0536974  59.4619005   7.7192335  47.2251199  65.1222903
   8.2648295  47.9036285  65.1816873   7.6609211  47.0838660  64.2624485
   7.7908249  47.3043201  65.0034964   9.4957403  48.6535806  55.9956631
   9.3796929  49.4043492  56.4248769  10.2913290  48.3959759  56.2452718
   9.5961993  48.7270653  56.0960723   0.6767149  59.6317854  61.9106112
   1.3204605  60.0731018  62.3002270   1.0023405  58.8271280  61.8236371
   0.8198978  59.5783049  61.9551589   1.3787729  52.6429829  57.2825974
   1.7003570  53.1835036  56.6787282   2.0259825  52.0726600  57.4148263
   1.5213784  52.6389004  57.2133009   3.4289437  44.6445824  57.3660360
   4.1269602  44.8233951  57.8581824   3.7441769  44.1216163  56.7430750
   3.5784774  44.5939596  57.3462370   3.6177372  51.0316269  57.3540152
   4.0571008  50.4233369  57.7994925   3.4682035  50.6523642  56.5825617
   3.6598838  50.8854740  57.3059319   1.0849015  49.6260281  64.5558977
   1.7298018  49.1332724  64.2369926   1.3250792  49.7685067  65.3825056
   1.2159600  49.5737723  64.6308511   3.6235107  52.4715187  64.2065870
   3.9058349  51.6766592  63.9852626   4.3521267  52.9495774  64.2270931
   3.7724670  52.4249784  64.1768885   1.6016300  40.0138221  61.4481635
   1.2719630  40.4649364  60.7785334   0.9261302  39.9354384  61.9954641
   1.4526737  40.0689356  61.4304858   7.2186709  49.3843450  54.3070921
   7.1338004  50.2404417  54.4520490   7.7071092  49.1087774  54.9753080
   7.2775606  49.4700772  54.4273003   8.8092708  36.0023743  59.6931246
   8.4946149  36.6927222  60.1251668   8.2919650  35.9468526  58.9916746
   8.6857179  36.0958632  59.6528195   8.1505142  46.0028244  55.8068656
   7.6216613  46.2187878  56.4665962   8.6730162  46.6964383  55.7269626
   8.1493595  46.1371381  55.8924255  13.6053195  51.5774549  61.1801701
  12.7750898  51.7885193  61.3435117  13.5562447  50.7511603  60.9043984
  13.4759930  51.4864155  61.1639066   1.6662932  54.4078403  64.0149610
   1.1489874  54.0485818  63.4110918   2.3637324  53.8840577  64.0255676
   1.6928514  54.2776091  63.9279869   5.3226524  54.8573217  69.9765783
   5.4109870  54.6699358  70.8243994   5.7516237  54.2110647  69.5770630
   5.3988627  54.7336225  70.0437535   2.8896984  54.1404377  68.9583445
   2.3267819  53.7276987  69.4823107   3.6518008  54.0657283  69.3776589
   2.9191433  54.0681778  69.0976446   4.4981964  46.1457113  53.0845045
   4.7377968  46.3535097  52.2720388   4.8197805  45.3414622  53.1933989
   4.5819122  46.0571214  52.9805598  13.1007153  44.2244950  64.9752122
  12.2635574  44.2947137  65.2099716  13.0695384  44.2269444  64.1026424
  12.9725436  44.2355177  64.8811670   3.8429038  37.4847239  56.6631719
   4.5715199  37.3063194  56.2169876   3.9323931  38.3265318  56.8738898
   3.9635700  37.5831117  56.6285237   7.8237339  48.4200626  60.5664013
   8.5794854  48.8532140  60.6052922   7.9299663  47.7705396  61.1398649
   7.9507510  48.3878110  60.6562039  10.8617510  52.2473903  61.3166416
  10.4252742  52.2510646  62.0725388  10.5280426  52.9279402  60.8845994
  10.7480130  52.3486359  61.3647249   5.4346584  54.2882236  72.6409567
   6.2187000  54.4013084  73.0065309   5.2343178  53.4623373  72.8368253
   5.5212609  54.1828956  72.7243953  10.7814993  39.2887731  63.5595844
  11.4240901  39.3585836  64.1457760  11.0338014  38.6216954  63.0575386
  10.9137125  39.2014080  63.5723124   5.5916977  56.1992338  66.2876022
   4.7932223  55.9591838  66.5449891   6.0402989  56.2506731  67.0343070
   5.5391588  56.1714729  66.4360947  13.9961856  48.9654823  60.2086054
  14.6578290  48.4045492  60.1081962  13.3553268  48.4706854  60.5338745
  13.9990724  48.8091232  60.2418394   4.8838664  52.2624955  52.5166977
   5.2989813  51.9309978  51.8251473   4.0530594  52.0293857  52.3887114
   4.8226673  52.1796211  52.3957824  10.2826687  49.9820206  59.9498042
  10.5182276  50.1265404  59.1224893  10.4316251  50.7462614  60.3429556
  10.3392490  50.1159260  59.8861646  12.1117144  48.8221872  57.7867646
  12.4425361  49.3549512  57.1807741  12.6850232  48.8760759  58.4429597
  12.2450823  48.9091440  57.7945428   4.6517714  49.9452783  74.1796211
   3.8590695  50.2596295  74.3648830   4.7666641  50.1604252  73.3416995
   4.5513124  50.0236620  74.0834545   7.3249033  46.6686774  58.4691226
   7.4195887  47.4076068  58.9230852   6.7007876  46.2404250  58.9025791
   7.2458063  46.7148095  58.5999374   5.5801507  49.8472987  69.1181507
   6.1540368  49.2100231  69.2730071   5.5016310  49.8477069  68.2491165
   5.6534742  49.7538098  69.0127918   7.5772054  48.5135514  51.7028178
   7.4952217  48.5837701  52.5683165   8.2151775  49.0765258  51.5111919
   7.6591892  48.6074485  51.8018128   0.9365225  48.2796252  61.1702705
   0.6784470  47.4467987  61.1434004   0.9913708  48.5053865  60.3295205
   0.9065003  48.1894023  61.0422841   6.0166276  40.3824703  61.2706797
   5.3122602  39.8933888  61.4290717   6.0651250  40.3947177  60.3995242
   5.9196327  40.3114351  61.1646137   3.5773226  44.3057364  66.5159978
   3.1887659  43.8811581  65.8612169   2.9127925  44.5539513  67.0237005
   3.4220154  44.2796085  66.4947846  13.2196495  44.0632368  59.2907808
  12.9633060  43.2512310  59.1005691  14.0625809  44.0709936  59.0637995
  13.3062521  43.9444366  59.2292625   7.3999588  38.0031992  64.0283962
   7.7810099  37.3210164  64.4151836   6.5962872  37.7141595  63.8459627
   7.3376049  37.8599041  64.0588018   4.6812164  48.5355968  54.7136785
   5.4952803  48.8270861  54.6019556   4.6171306  47.8815831  54.1395078
   4.7914903  48.4821163  54.6125622  10.9021655  51.2181964  69.1266360
  10.6660292  50.3870029  69.0078421  11.5464884  51.1667572  69.7121205
  10.9616325  51.0879652  69.1952254   1.1922888  47.2279776  54.1783986
   1.5768040  47.0087482  54.9300531   0.9434508  48.0542721  54.3085063
   1.2124960  47.3177922  54.3085063   1.3591428  40.5086191  73.8946571
   1.0444869  41.2785753  73.6316133   1.0381361  39.9456447  73.3098797
   1.2650347  40.5396459  73.7687920  11.9258075  51.0026413  65.1894655
  11.6203892  51.7354470  65.5507971  11.2064291  50.5964343  64.9087441
  11.7745417  51.0508146  65.2007792   2.9341545  52.4849908  61.5202883
   3.0080553  52.3225080  62.3744733   3.7511051  52.6740098  61.2763365
   3.0657903  52.4886651  61.6100909  17.6259867  47.6419414  64.5162999
  17.5584368  47.6615373  63.6465586  17.6115530  48.4849741  64.7418670
  17.6138624  47.7693149  64.4215476   8.0356214  39.0454572  67.8404089
   8.7809806  38.8564382  67.4267514   7.6193518  39.5712810  67.2817945
   8.0841188  39.0956717  67.6968662   1.4746130  55.4484651  56.2516357
   1.7644429  55.0573633  55.5275583   2.2049611  55.6301356  56.6921632
   1.6253015  55.4178465  56.2099164  15.4118485  46.4163800  62.7909594
  15.9626406  45.7831869  63.0306686  15.3962600  46.9479193  63.4825098
  15.4903681  46.4012748  62.9288452   2.0640876  50.2502397  67.3369487
   1.5652569  50.9618165  67.4154376   2.8741100  50.5703064  67.2987649
   2.1096982  50.4029246  67.3426056   9.1146891  44.6560134  61.9014190
   8.7711657  43.9350469  62.2521440   9.2139933  44.4473985  61.0592548
   9.0788934  44.5184337  61.8285870   1.5820002  58.7981424  58.1007199
   2.2344060  58.2657866  58.3298225   0.8845610  58.4450076  58.4875073
   1.5750720  58.6670947  58.1919366   9.5759920  51.1185838  57.4438178
  10.1417953  51.7779048  57.3596721   8.9287823  51.4635536  57.9154580
   9.5638676  51.2667779  57.5010934   6.0466498  54.0624622  56.8675257
   5.8053174  53.3292483  56.4602322   6.2267831  54.6111479  56.2141591
   6.0374122  54.0347013  56.7105480   1.2765819  49.3533182  58.2796179
   1.0808601  49.9607916  57.6856482   1.5000164  48.6601126  57.7987853
   1.2800460  49.3410707  58.1212260   7.6337856  42.5751719  63.7773733
   6.7948957  42.6012997  63.5411996   7.7042224  43.2222454  64.3579079
   7.5206250  42.6747844  63.8282850   6.0807135  39.4737096  58.5101349
   6.7833487  39.2744844  58.0321307   5.8151323  38.7013038  58.8170192
   6.1453767  39.3300062  58.4846790  11.5095380  47.7819705  61.0634975
  11.4229355  47.9375131  61.9169753  11.0545860  48.4257781  60.6894380
  11.4298637  47.8995460  61.1342081   0.8435691  40.7372381  67.5632229
   0.6518888  40.7527515  68.4131653   1.6934287  40.9336055  67.5398884
   0.9411413  40.7686732  67.6855524   5.3821196  45.1030452  59.6860534
   5.1355910  45.0226203  60.5197323   5.7106319  44.3183920  59.4923062
   5.3942440  44.9756718  59.7808057   9.2769245  51.8113812  63.4747315
   9.1383604  52.5094858  63.9796058   8.4969243  51.6562468  63.1183497
   9.1412472  51.8913978  63.4973589   7.6147330  48.1110187  69.7269697
   7.6095369  47.2390004  69.7312123   8.3208324  48.3098356  69.2539153
   7.7192334  48.0114061  69.6576732   1.3418223  47.8387171  69.0983517
   1.4861599  48.4188379  68.4626627   1.6893872  48.2163468  69.8033372
   1.4145685  47.9807875  69.1082512   3.5138141  47.0377339  66.8808649
   2.7661455  47.2308354  66.4756927   3.6679666  46.2122559  66.6432770
   3.4260568  46.9442451  66.7854055  10.7722618  51.1692065  54.2363814
  10.3929427  50.3829203  54.2293104  10.1088863  51.7178923  54.0935459
  10.6181093  51.1336889  54.2144611   2.9399279  56.2004586  67.2429035
   2.8642950  55.5313396  67.7979823   2.8689138  56.9022374  67.7569701
   2.9179886  56.2049493  67.4005883   3.7539918  40.9327890  67.7704052
   4.2112532  41.6651864  67.8976845   3.8296247  40.5094355  68.5291308
   3.8330888  40.9785128  67.9005129   8.2267244  34.1117765  61.6397895
   8.3450812  34.5694229  60.9065198   8.0529420  33.3063026  61.3534113
   8.2186415  34.0611537  61.4898829   3.5969526  54.7205585  58.0752641
   4.3619417  54.4515228  57.7535305   3.4947616  54.2355595  58.7922704
   3.6951021  54.6095149  58.1332468   1.6322296  42.9229994  64.6145876
   0.8418371  42.7421454  64.9363212   2.0282919  42.1456947  64.5976171
   1.5739172  42.7817455  64.6598425   6.1188187  51.7517768  50.0552590
   6.8861172  51.8117893  49.6458442   5.6719496  51.1798210  49.5708909
   6.1661614  51.6754344  49.9230300   7.0165982  50.5572424  62.3405322
   6.3410984  50.3257656  62.8418709   7.0258358  49.9493607  61.7147427
   6.9184487  50.4331349  62.3221475   4.1460126  45.3990253  69.0969375
   4.0819267  46.2600210  68.9689512   4.2857314  45.0822246  68.2964927
   4.1575596  45.4790420  68.9597588   9.0182717  53.4137557  54.5715500
   9.1002554  54.2204543  54.2476951   9.5032459  53.4333516  55.2956274
   9.1019875  53.5358219  54.6302399   2.8279220  48.0922392  63.2385578
   2.4041469  48.2926891  62.5024597   2.6524075  47.2451240  63.3509878
   2.7390101  47.9971174  63.1459268   2.3290913  59.6072905  65.7007036
   2.8186844  58.9083695  65.5182700   1.7575146  59.3096775  66.2883093
   2.3175443  59.4599129  65.7608076   4.6540810  47.9632327  57.5406914
   5.1956355  47.4602709  58.0045535   4.9687369  47.9097522  56.7296399
   4.7805207  47.8811748  57.4890726   8.5257917  52.1734975  74.6533826
   9.3392782  51.9020124  74.8138959   8.3652883  51.8742515  73.8494022
   8.6227865  52.0889901  74.5579232   2.8227259  53.3549679  54.8246942
   2.8920080  52.4964217  54.9639942   3.6015714  53.5721560  54.4965967
   2.9480109  53.2602543  54.7964099   5.8030079  42.8568632  67.5929214
   6.0172048  42.2179546  67.0392568   5.1863978  43.3014456  67.1637076
   5.7435408  42.8278776  67.4479646   7.2134747  55.7787380  59.0383435
   6.8214539  55.4754095  58.3206302   7.3687819  56.6156470  58.8488389
   7.1788337  55.8571217  58.9039932   7.9669167  44.4657697  68.5312522
   7.1545849  44.1583588  68.6125694   8.4259102  43.9856697  69.0955234
   7.9149552  44.3494190  68.6267116   7.3774422  52.3437369  58.9789466
   7.0189076  52.5152012  59.7553498   6.8913132  52.8050575  58.4217464
   7.2533119  52.4376340  59.0114735   5.1944808  35.9668568  62.5816557
   4.3238366  35.9407289  62.5349867   5.4485149  35.7945760  61.7642403
   5.1038368  35.9378711  62.4536694   2.1662787  48.0236535  51.5189700
   2.4555312  48.8001417  51.7933275   2.2534586  47.5125266  52.2204200
   2.2217043  48.0628453  51.6632198   5.0622674  45.8717769  73.3141224
   5.5322306  46.4959885  73.7009098   5.1084555  45.2034744  73.8734439
   5.1390550  45.8652449  73.4541295   2.2193948  37.9774796  64.0390028
   1.7032437  37.2854988  64.1641607   1.6587877  38.6445573  63.9852626
   2.0600461  37.9738054  64.0496094   4.2886182  38.5167756  65.8682880
   3.9017935  38.5416788  66.6496410   3.8019119  37.9509435  65.4157397
   4.1598690  38.4363507  65.9170784   8.5379161  53.2341265  69.9256667
   9.1758881  52.7401461  69.5919123   7.8953253  53.1618666  69.3408894
   8.5373387  53.1500274  69.7899022  10.2636161  45.0830411  64.4922582
   9.8363769  44.9956760  63.7370682   9.6262214  45.1908187  65.0777426
  10.1065768  45.0863071  64.4668024   3.9543323  35.4034742  68.1593140
   4.5836441  35.9395042  67.8814210   4.1229186  35.3112101  69.0106706
   4.0721118  35.4696104  68.2441668   3.7557238  40.1905936  70.4319552
   4.5830667  39.9191085  70.4878166   3.7765084  40.9866778  70.7883370
   3.8810088  40.2685691  70.4934735   8.5933418  53.9261073  66.5662024
   9.3825796  53.5750138  66.6864105   8.7677015  54.7397462  66.3038657
   8.7353699  53.9946930  66.5449892   7.4467242  37.9370630  61.1278442
   7.6516835  37.8692938  61.9735439   7.1193666  38.7429451  61.0599619
   7.4282490  38.0456571  61.2438097   2.1443393  45.2651198  62.8687410
   1.8406530  44.7107187  63.4697818   1.4422814  45.4443408  62.3815444
   1.9959603  45.2095981  62.8857116   1.2009490  42.5751718  57.4332112
   1.4769224  41.8570631  57.0209679   1.8008159  43.1736638  57.2253218
   1.3302755  42.5572089  57.3412873  10.7000929  38.4902394  60.6081207
  10.0875243  38.9772796  60.9934939  10.7965104  37.8145885  61.1518859
  10.6238827  38.4620703  60.7460066   4.7020010  40.2465235  55.7078707
   5.1563757  40.4175796  56.4326551   5.1760056  39.6333346  55.3076482
   4.8388331  40.1816121  55.7552468  14.3425957  49.5619331  66.0358724
  14.4009081  50.0105980  66.7818700  13.7092425  49.9718144  65.5988804
  14.2577252  49.6893066  66.0811272   7.9825052  55.1822873  62.4713470
   7.7844741  55.6713687  61.7769681   7.3612763  55.3864114  63.0497603
   7.8612617  55.2839411  62.4536693   2.0433030  46.9507770  56.8123714
   2.7875075  47.3382046  57.0506664   2.1893727  46.1065195  56.9764202
   2.1743616  46.8838243  56.8717684   3.9612606  38.7458029  61.8455575
   3.1148651  38.9180837  61.7196925   3.9583738  37.9407372  62.1821404
   3.8359756  38.6519058  61.8766702   5.0310906  42.5233243  62.7117633
   4.5570861  41.9975005  63.2222944   5.4029042  41.9762716  62.1432495
   5.0160795  42.3649240  62.7032781  11.2947637  47.5835619  64.1224414
  11.0545860  46.7442034  64.1266840  11.7739644  47.6635785  64.8465187
  11.3299821  47.4717018  64.2299216   6.9594406  43.4169798  55.7743387
   6.4317425  43.4998542  55.0849096   7.4190114  44.1587669  55.7708032
   6.9496256  43.5390460  55.6718082  13.2952824  44.3637076  62.0753673
  13.0562594  44.3232910  61.2374458  13.4586725  45.2108228  62.2019394
  13.2843127  44.4829161  61.9707155   9.8998854  48.7487025  68.0058718
  10.6233053  48.2959552  67.8269738   9.6348816  49.0291691  67.2231046
   9.9680127  48.7237994  67.8637433   6.5131488  51.9873361  54.9053044
   7.2365687  52.4531474  54.7617617   6.0732079  52.0546971  54.1550641
   6.5547181  52.0657198  54.7737826   5.6817643  48.8470904  66.1553733
   5.0674637  48.3028954  66.4502368   6.1984928  48.3335140  65.6759549
   5.6673306  48.6907313  66.1277962   4.9213941  49.9175174  63.8898032
   4.4941549  49.2924892  63.4563467   4.9138885  49.6350095  64.7157039
   4.8573082  49.7827954  63.9477859   5.9796771  37.1201582  67.5137255
   5.4837332  37.3165256  66.8228822   6.7365833  37.5194250  67.3426057
   6.0183595  37.2079316  67.3857392   3.2499650  40.7943928  64.1040566
   3.2742138  40.2604040  63.4153346   3.5011124  40.2861237  64.7666156
   3.2909569  40.6404832  64.1005210   1.7130585  49.0875486  71.5866605
   0.8626216  49.2247201  71.7224250   1.8758713  48.3539265  72.0314306
   1.6114449  48.9989588  71.6722204  12.3334168  47.7113436  66.5089268
  12.9252008  48.3510687  66.5407466  12.7693162  47.0136473  66.7981335
  12.4852599  47.7031786  66.5570100   0.9330585  41.1111934  53.6148346
   1.2546426  40.6315017  52.9607608   1.1957529  41.9211580  53.4239157
   1.0196610  41.1601832  53.4903838   4.1627558  52.1330808  67.1347162
   3.6552649  52.6866655  67.5787792   3.8654204  52.1939098  66.3165936
   4.0432443  52.2237120  67.0795618   6.3289740  40.4984128  65.9771825
   6.7544812  40.0456655  65.3655351   5.7146733  39.9444199  66.2536612
   6.3018385  40.3498104  65.9276850   6.7735338  56.0494066  55.0651105
   6.0564648  55.8754928  54.5998343   7.4242076  55.8146638  54.5326591
   6.7637189  55.9889859  54.9180323   4.7683963  36.9699228  59.3862402
   4.1252281  36.8196874  59.9547540   4.4283370  36.7241573  58.6211506
   4.6229040  36.9111350  59.3565417   9.3583309  44.9258655  58.8092410
   8.6874499  45.4688357  58.6805476  10.0523060  45.3953510  58.5674105
   9.3612177  45.0756926  58.7547938   3.4070043  57.0655367  64.0404169
   3.1835698  56.3074196  64.4088195   2.9179886  57.0953388  63.3184608
   3.3013492  56.9577591  63.9880910   9.5211437  41.3814538  61.7182784
   9.8739047  40.9544261  62.3928582   8.6626238  41.2965382  61.8483860
   9.4460881  41.3059279  61.8377794   7.5194703  44.6449907  65.6667626
   7.4992630  44.4633202  66.5202405   7.5673903  45.5161925  65.6427209
   7.5229344  44.7466445  65.7890921   5.4641032  51.2337099  71.5916102
   5.4236887  50.5886776  71.0061258   6.2764351  51.1773716  71.9041514
   5.5784186  51.1296066  71.5513052   2.0548500  57.2855825  61.4941253
   1.6408899  56.6229955  61.1045095   2.7395874  57.4333684  60.9736947
   2.0946872  57.2096483  61.3597750   5.4213794  56.4445910  62.2464870
   5.0230077  56.5548180  61.4785690   4.8065014  56.6527976  62.8291430
   5.2712683  56.4919478  62.2196169   3.9941696  43.0520058  55.1139010
   3.4006535  43.3737054  54.5623577   4.0316974  42.2061153  54.9060116
   3.9116085  42.9744386  55.0021781  10.9535497  36.5032950  62.6467096
  10.4466362  35.7962090  62.5788274  11.7502931  36.1726139  62.7768173
  10.9962736  36.3506102  62.6566091   6.8699513  43.0099562  58.5440760
   6.6413206  43.0332264  57.7019118   7.1297589  42.1857029  58.6635770
   6.8745701  42.8915642  58.4365957   1.1518741  44.8634035  68.1465860
   0.6397644  44.2555218  68.5050891   0.9798237  45.5790628  68.6139836
   1.0508378  44.8797335  68.2682084  13.1555637  51.0197877  55.6307960
  13.5389243  51.7689233  55.8606057  12.3599750  51.2663696  55.3719950
  13.0949419  51.1667571  55.6265534   5.0287812  42.7858280  70.5868116
   5.5859242  42.5572090  69.9546581   4.7048877  43.5463946  70.3103328
   5.0634222  42.8642117  70.4524613   2.7470929  45.8725933  71.5520123
   3.4982256  46.1877610  71.8659677   2.9393505  45.6705104  70.7254044
   2.8862343  45.8893315  71.4763518   1.9670928  43.6917309  53.2068339
   2.3469893  43.7096938  52.4219454   1.2263524  44.1371297  53.0859187
   1.9139766  43.7599083  53.0731908   9.5956219  41.9999500  58.7943918
   9.5950445  41.8448156  59.6528194   9.3912399  42.8462487  58.7385304
   9.5655997  42.1020120  58.9131857   7.3197071  46.6797002  62.4480125
   7.8150736  45.9619997  62.4084145   6.5096847  46.3767799  62.3334612
   7.2740964  46.5294648  62.4253851   2.7655682  50.5294815  54.5977129
   1.9567005  50.2061488  54.5510439   3.2730591  49.8228037  54.5305378
   2.7205349  50.3776131  54.5807424   9.3848890  49.4300689  65.1357254
   9.8103961  48.9075111  64.5827679   9.0205810  50.0281526  64.6145877
   9.3935492  49.4410916  64.9766263   5.9727489  53.1434953  61.4658411
   6.4438667  53.8575216  61.6348396   6.3087668  52.5433703  62.0018281
   6.0922604  53.1606418  61.5690787   8.0604474  54.7536267  73.6450483
   8.1701439  53.9644827  74.0007230   8.3895370  54.6642203  72.8424821
   8.1256880  54.6242120  73.5792874   2.8896984  37.9162424  68.4216506
   3.0224890  37.1193417  68.7497482   3.2742137  38.4428827  69.0014782
   2.9653313  37.8762341  68.5560009   6.6101436  52.9352887  68.2286104
   6.0622382  52.3110771  67.9606169   7.0714464  53.1247159  67.5130183
   6.5968645  52.8711938  68.0836535   5.9629339  34.8392750  65.0197599
   5.1575303  34.7290480  65.3365438   5.8336075  34.9405206  64.1627465
   5.8249472  34.8376420  64.9405640   9.4195300  41.0038242  65.6137296
   8.8358289  41.5047448  65.2014864   9.7399594  40.4967798  64.9801619
   9.3808475  41.0030077  65.4595803   1.9590099  39.9178837  55.8895971
   2.7805793  40.0877150  55.6477666   1.4959750  40.0726098  55.1662269
   2.0121261  39.9660570  55.7467615   6.1759762  53.9403960  64.7595445
   6.9958136  53.7966926  65.0211740   5.8953840  54.5650159  65.3011883
   6.2556505  54.0114312  64.8783384  22.6473412  61.5968812  57.7238321
  22.6167417  62.4513449  57.8956591  23.2454761  61.2964104  58.2824465
  22.7310570  61.6785308  57.8313124  15.8473097  60.6844463  62.4791252
  14.9910993  60.8452961  62.5300369  15.8940751  59.8136527  62.4996313
  15.7272209  60.5795265  62.4897318  10.2314237  70.2207181  58.2428483
   9.4797136  69.8422719  58.0144528  10.6800249  70.2525614  57.4947294
  10.1863904  70.1692788  58.0985986  19.1566814  66.9530989  72.0851708
  19.8633581  66.4583019  72.2138642  19.3454749  67.3940070  71.3554366
  19.2894719  66.9449339  71.9960753  15.6839197  70.6432550  53.6714030
  15.3490565  71.3209472  53.2358253  16.1966067  70.2537862  53.0830902
  15.7104778  70.6857128  53.5200822  15.2243488  72.5946819  59.6125142
  15.6082867  73.1633718  59.0729917  15.1602629  71.8696329  59.1330958
  15.2716915  72.5722282  59.4619005  18.6924918  62.7436507  65.1222903
  19.2380878  63.4221593  65.1816873  18.6341794  62.6023968  64.2624485
  18.7640833  62.8228508  65.0034964  11.8098993  70.2325573  60.5091256
  11.9109356  69.4225927  60.8188384  11.2140738  70.1382519  59.8790934
  11.7371532  70.0990601  60.4617494  20.4689987  64.1721114  55.9956631
  20.3529513  64.9228800  56.4248769  21.2645874  63.9145067  56.2452718
  20.5694576  64.2455961  56.0960723  11.6499733  75.1503162  61.9106112
  12.2937188  75.5916326  62.3002270  11.9755988  74.3456588  61.8236371
  11.7931561  75.0968357  61.9551589   5.0064037  66.2545859  60.1343590
   4.7714222  65.4213512  60.0275858   5.1449678  66.5350525  59.3204790
   4.9919700  66.1729363  59.9985945   7.3054125  58.4231590  63.0327897
   6.6859156  57.8324237  62.8637912   7.2037988  59.0143025  62.3992220
   7.1991800  58.4235673  62.9132887  12.3520312  68.1615137  57.2825974
  12.6736153  68.7020344  56.6787282  12.9992409  67.5911908  57.4148263
  12.4946368  68.1574312  57.2133009  14.4022020  60.1631132  57.3660360
  15.1002185  60.3419259  57.8581824  14.7174353  59.6401471  56.7430750
  14.5517358  60.1124904  57.3462370   7.0323258  61.9683872  65.2771466
   6.9081955  62.5546317  65.9121285   7.6841542  61.4744067  65.5783741
   7.1096907  61.9822676  65.4157396  14.5909956  66.5501577  57.3540152
  15.0303591  65.9418677  57.7994925  14.4414619  66.1708950  56.5825617
  14.6331421  66.4040048  57.3059319  12.0581599  65.1445589  64.5558977
  12.7030601  64.6518032  64.2369926  12.2983376  65.2870375  65.3825056
  12.1892184  65.0923031  64.6308511  14.5967690  67.9900495  64.2065870
  14.8790933  67.1951900  63.9852626  15.3253851  68.4681082  64.2270931
  14.7457254  67.9435091  64.1768885  12.5748884  55.5323529  61.4481635
  12.2452214  55.9834672  60.7785334  11.8993886  55.4539692  61.9954641
  12.4259320  55.5874664  61.4304858  18.1919292  64.9028758  54.3070921
  18.1070587  65.7589725  54.4520490  18.6803676  64.6273082  54.9753080
  18.2508190  64.9886080  54.4273003  19.7825292  51.5209051  59.6931246
  19.4678733  52.2112530  60.1251668  19.2652233  51.4653834  58.9916746
  19.6589762  51.6143940  59.6528195  19.1237726  61.5213552  55.8068656
  18.5949197  61.7373186  56.4665962  19.6462746  62.2149691  55.7269626
  19.1226179  61.6556689  55.8924255  24.5785778  67.0959857  61.1801701
  23.7483482  67.3070500  61.3435117  24.5295031  66.2696911  60.9043984
  24.4492514  67.0049463  61.1639066  11.0137333  65.4176769  54.6076124
  10.4294549  65.9226801  55.0141988  10.6107429  65.1919156  53.8672716
  10.8676637  65.4585017  54.5581149   6.5681362  71.1331530  61.4099796
   6.0848940  71.8582020  61.3859379   7.3804680  71.4307660  61.5209953
   6.6172110  71.2833884  61.4227075  12.6395516  69.9263711  64.0149610
  12.1222458  69.5671126  63.4110918  13.3369907  69.4025885  64.0255676
  12.6661097  69.7961399  63.9279869  16.2959108  70.3758525  69.9765783
  16.3842454  70.1884665  70.8243994  16.7248821  69.7295955  69.5770630
  16.3721210  70.2521533  70.0437535  13.8629568  69.6589685  68.9583445
  13.3000403  69.2462295  69.4823107  14.6250591  69.5842591  69.3776589
  13.8924016  69.5867086  69.0976446  15.4714548  61.6642421  53.0845045
  15.7110551  61.8720405  52.2720388  15.7930389  60.8599930  53.1933989
  15.5551706  61.5756522  52.9805598  10.7804838  53.5935817  56.9304583
  11.5350806  53.9614134  56.6921633  10.6032373  53.9675371  57.6983762
  10.8659316  53.7034005  57.0089471   9.4225559  71.6487706  61.5620076
  10.1246139  71.1339695  61.6192832   9.3423042  71.9761858  62.3666951
   9.5149320  71.6201932  61.6892868  24.0739737  59.7430257  64.9752122
  23.2368158  59.8132445  65.2099716  24.0427968  59.7454752  64.1026424
  23.9458019  59.7540484  64.8811670  10.4704466  61.8863293  70.6900491
  10.6424970  61.7769188  71.5385772  11.0073823  62.5317699  70.4531683
  10.5749470  61.9655295  70.7805587   9.1361903  56.0006136  53.6282696
   8.9537476  56.2178017  52.8023688   9.9987516  56.1145149  53.6841310
   9.2366492  56.0496034  53.5137183   8.7476335  67.8394058  61.0705684
   9.5865234  68.0716991  61.1179445   8.7788104  66.9698370  61.0012719
   8.8758052  67.7451005  61.0670328   9.3729038  68.2594933  65.3718989
   9.9127263  68.1166064  66.0422361   8.6898984  68.6591684  65.7403015
   9.3521192  68.2974604  65.5253411  14.8161622  53.0032547  56.6631719
  15.5447782  52.8248502  56.2169876  14.9056515  53.8450626  56.8738898
  14.9368284  53.1016425  56.6285237  18.7969923  63.9385934  60.5664013
  19.5527438  64.3717448  60.6052922  18.9032247  63.2890704  61.1398649
  18.9240093  63.9063418  60.6562039  21.8350094  67.7659211  61.3166416
  21.3985326  67.7695954  62.0725388  21.5013009  68.4464710  60.8845994
  21.7212714  67.8671667  61.3647249  16.4079167  69.8067544  72.6409567
  17.1919584  69.9198392  73.0065309  16.2075762  68.9808681  72.8368253
  16.4945193  69.7014263  72.7243953   4.7766183  64.4795224  65.5253411
   4.5104598  63.6634341  65.6844401   4.7904747  64.5248380  64.6548926
   4.7390905  64.3652129  65.4206893  21.7547577  54.8073039  63.5595844
  22.3973485  54.8771144  64.1457760  22.0070597  54.1402262  63.0575386
  21.8869709  54.7199388  63.5723124   8.6823930  59.2780309  52.1405169
   7.9682107  58.9918488  52.5527601   9.1667898  59.6176934  52.7811556
   8.6483293  59.2861958  52.2960804   9.5264789  58.0173602  68.1720418
   8.8336586  57.5470582  68.4181150  10.1425116  57.7911907  68.7462125
   9.5149319  57.9140734  68.2929571  16.5649561  71.7177646  66.2876022
  15.7664806  71.4777146  66.5449891  17.0135572  71.7692039  67.0343070
  16.5124172  71.6900037  66.4360947  24.9694440  64.4840131  60.2086054
  25.6310874  63.9230800  60.1081962  24.3285852  63.9892162  60.5338745
  24.9723307  64.3276540  60.2418394  15.8571248  67.7810263  52.5166977
  16.2722396  67.4495286  51.8251473  15.0263177  67.5479165  52.3887114
  15.7959256  67.6981518  52.3957824   5.1859596  65.2654004  62.8065155
   5.0035170  65.2400890  61.9537447   5.9209265  65.7352941  62.8454064
   5.2673660  65.3315366  62.6863073  21.2559271  65.5005514  59.9498042
  21.4914860  65.6450712  59.1224893  21.4048834  66.2647922  60.3429556
  21.3125074  65.6344568  59.8861646   8.2505348  61.9839006  69.3147264
   8.9745320  61.9692037  69.8012158   8.3521485  62.6934362  68.8169232
   8.3723557  62.0863710  69.3126050  23.0849727  64.3407179  57.7867646
  23.4157944  64.8734820  57.1807741  23.6582815  64.3946067  58.4429597
  23.2183406  64.4276748  57.7945428  15.6250298  65.4638091  74.1796211
  14.8323278  65.7781603  74.3648830  15.7399225  65.6789559  73.3416995
  15.5245708  65.5421928  74.0834545  18.2981616  62.1872082  58.4691226
  18.3928471  62.9261376  58.9230852  17.6740460  61.7589558  58.9025791
  18.2190647  62.2333403  58.5999374  16.5534090  65.3658295  69.1181507
  17.1272952  64.7285539  69.2730071  16.4748894  65.3662377  68.2491165
  16.6267325  65.2723406  69.0127918   5.1530507  62.1447504  62.9564221
   5.7304009  62.0083955  63.5956467   4.4544568  61.6883288  63.2109806
   5.1351528  62.0569770  63.0886511  18.5504638  64.0320822  51.7028178
  18.4684800  64.1023009  52.5683165  19.1884358  64.5950566  51.5111919
  18.6324475  64.1259793  51.8018128  11.9097809  63.7981560  61.1702705
  11.6517053  62.9653295  61.1434004  11.9646292  64.0239173  60.3295205
  11.8797587  63.7079331  61.0422841  16.9898859  55.9010011  61.2706797
  16.2855186  55.4119196  61.4290717  17.0383833  55.9132485  60.3995242
  16.8928911  55.8299659  61.1646137  10.8832521  61.3519322  61.6567599
  10.3082112  61.5111491  62.2931560  10.5068197  60.7154731  61.1936050
  10.7435333  61.2817135  61.6822158  14.5505810  59.8242672  66.5159978
  14.1620242  59.3996889  65.8612169  13.8860508  60.0724821  67.0237005
  14.3952738  59.7981393  66.4947846  24.1929079  59.5817676  59.2907808
  23.9365644  58.7697618  59.1005691  25.0358393  59.5895243  59.0637995
  24.2795104  59.4629674  59.2292625   0.6289340  60.9959397  59.6712040
   0.7149592  60.6191265  60.4525570   1.2565137  60.6219843  59.1931998
   0.7345891  60.8844879  59.7157517  18.3732171  53.5217300  64.0283962
  18.7542683  52.8395471  64.4151836  17.5695456  53.2326902  63.8459627
  18.3108633  53.3784349  64.0588018  15.6544748  64.0541276  54.7136785
  16.4685387  64.3456169  54.6019556  15.5903889  63.4001139  54.1395078
  15.7647487  64.0006471  54.6125622  21.8754238  66.7367272  69.1266360
  21.6392876  65.9055337  69.0078421  22.5197467  66.6852880  69.7121205
  21.9348909  66.6064960  69.1952254  11.5252656  67.5262794  59.8409097
  12.1626603  67.2874541  60.3860890  11.9507728  67.7299953  59.1062258
  11.6828822  67.5213804  59.8126254   6.2165299  69.7651130  63.7243401
   6.2569444  70.0365981  62.8963180   6.7759823  70.2893038  64.1401189
   6.3048645  69.8826885  63.6635289  12.1655471  62.7465083  54.1783986
  12.5500624  62.5272790  54.9300531  11.9167092  63.5728029  54.3085063
  12.1857544  62.8363230  54.3085063  12.3324012  56.0271499  73.8946571
  12.0177453  56.7971061  73.6316133  12.0113944  55.4641755  73.3098797
  12.2382931  56.0581767  73.7687920  22.8990659  66.5211721  65.1894655
  22.5936476  67.2539778  65.5507971  22.1796874  66.1149651  64.9087441
  22.7478001  66.5693454  65.2007792  13.9074128  68.0035216  61.5202883
  13.9813136  67.8410388  62.3744733  14.7243635  68.1925406  61.2763365
  14.0390487  68.0071959  61.6100909  28.5992451  63.1604722  64.5162999
  28.5316951  63.1800681  63.6465586  28.5848113  64.0035049  64.7418670
  28.5871207  63.2878456  64.4215476   7.6679885  68.3493079  58.5497327
   6.8418003  68.5954816  58.4231605   7.7291876  68.2705160  59.4159385
   7.5554052  68.3738028  58.6586271   9.8855909  54.4162020  59.5092767
   9.0178334  54.4884620  59.5750376  10.1731113  55.2184099  59.6980742
   9.7995657  54.5456167  59.5467533  19.0088797  54.5639880  67.8404089
  19.7542389  54.3749690  67.4267514  18.5926102  55.0898117  67.2817945
  19.0573772  54.6142025  67.6968662  12.4478714  70.9669959  56.2516357
  12.7377012  70.5758941  55.5275583  13.1782195  71.1486664  56.6921632
  12.5985598  70.9363773  56.2099164  26.3851068  61.9349108  62.7909594
  26.9358990  61.3017177  63.0306686  26.3695184  62.4664501  63.4825098
  26.4636265  61.9198056  62.9288452  13.0373459  65.7687705  67.3369487
  12.5385153  66.4803473  67.4154376  13.8473683  66.0888372  67.2987649
  13.0829566  65.9214554  67.3426056  10.3884630  72.9437342  59.3176506
  10.1684925  72.6534696  60.1103173  10.1679152  72.2852297  58.7894419
  10.3232224  72.8037050  59.3565415   9.3001577  65.0310658  61.5832208
   9.0114825  64.4048130  62.1177935  10.1684925  64.9730946  61.6496888
   9.3861829  64.9298203  61.6723163  20.0879474  60.1745442  61.9014190
  19.7444240  59.4535777  62.2521440  20.1872517  59.9659293  61.0592548
  20.0521517  60.0369645  61.8285870  12.5552585  74.3166732  58.1007199
  13.2076643  73.7843174  58.3298225  11.8578194  73.9635384  58.4875073
  12.5483303  74.1856255  58.1919366   9.5033850  66.6705909  57.5074573
  10.2579818  67.0518948  57.7210036   8.9104463  67.1217053  57.9621270
   9.5270564  66.7934737  57.6057451  20.5492504  66.6371146  57.4438178
  21.1150536  67.2964356  57.3596721  19.9020407  66.9820844  57.9154580
  20.5371260  66.7853087  57.5010934  11.9640517  58.6268750  72.6331785
  11.1540293  58.9326529  72.5221628  12.4415204  59.3474332  72.7484369
  11.9143996  58.7783351  72.6338856  10.8232077  67.8414471  62.8814688
  10.3012830  67.9814762  63.5666553  11.2106097  67.0825135  63.0716806
  10.8035778  67.7499995  63.0115765   7.8123261  57.8920279  56.9509643
   7.5248056  57.5221550  56.2141590   8.4993729  58.3615135  56.6893348
   7.8712158  57.9067249  56.8024719  17.0199082  69.5809930  56.8675257
  16.7785758  68.8477791  56.4602322  17.2000415  70.1296787  56.2141591
  17.0106706  69.5532321  56.7105480  12.2498402  64.8718490  58.2796179
  12.0541185  65.4793224  57.6856482  12.4732748  64.1786434  57.7987853
  12.2533043  64.8596015  58.1212260  10.6476932  61.7573228  58.3977048
  11.3699584  61.9214386  57.9380854  10.1684925  62.4782892  58.2916388
  10.6840663  61.8871457  58.3142662  18.6070440  58.0937026  63.7773733
  17.7681541  58.1198305  63.5411996  18.6774807  58.7407762  64.3579079
  18.4938833  58.1933152  63.8282850   8.2984549  64.1631300  67.5031188
   8.8105646  64.4415553  66.8539947   8.0120892  64.9020594  67.8694001
   8.3319412  64.3133654  67.4621066  17.0539718  54.9922403  58.5101349
  17.7566071  54.7930152  58.0321307  16.7883907  54.2198346  58.8170192
  17.1186350  54.8485369  58.4846790  22.4827964  63.3005013  61.0634975
  22.3961938  63.4560439  61.9169753  22.0278444  63.9443089  60.6894380
  22.4031220  63.4180768  61.1342081   5.3851455  58.6701492  57.7994924
   5.4867592  59.4727653  58.1275900   6.1807342  58.4688828  57.5018005
   5.5179361  58.7587391  57.8030280  11.8168274  56.2557689  67.5632229
  11.6251471  56.2712823  68.4131653  12.6666870  56.4521363  67.5398884
  11.9143996  56.2872040  67.6855524   6.2015187  58.7848670  65.5416046
   6.0600679  57.9332611  65.6660554   6.4855751  58.8277331  64.7178252
   6.2223034  58.6648420  65.4383670  16.3553780  60.6215760  59.6860534
  16.1088494  60.5411511  60.5197323  16.6838903  59.8369228  59.4923062
  16.3675023  60.4942026  59.7808057  20.2501829  67.3299120  63.4747315
  20.1116188  68.0280165  63.9796058  19.4701826  67.1747776  63.1183497
  20.1145055  67.4099286  63.4973589  18.5879914  63.6295495  69.7269697
  18.5827952  62.7575312  69.7312123  19.2940908  63.8283664  69.2539153
  18.6924918  63.5299369  69.6576732  12.3150807  63.3572479  69.0983517
  12.4594183  63.9373687  68.4626627  12.6626456  63.7348776  69.8033372
  12.3878268  63.4993183  69.1082512  14.4870724  62.5562647  66.8808649
  13.7394038  62.7493662  66.4756927  14.6412250  61.7307867  66.6432770
  14.3993152  62.4627759  66.7854055  11.3878562  71.5475251  65.9644544
  11.5368126  70.9878167  65.3117948  12.1678564  71.6267252  66.3477063
  11.5252656  71.4760816  65.9241493  21.7455201  66.6877373  54.2363814
  21.3662010  65.9014511  54.2293104  21.0821447  67.2364230  54.0935459
  21.5913676  66.6522197  54.2144611  13.9131863  71.7189894  67.2429035
  13.8375534  71.0498704  67.7979823  13.8421722  72.4207682  67.7569701
  13.8912470  71.7234801  67.4005883  14.7272501  56.4513198  67.7704052
  15.1845116  57.1837172  67.8976845  14.8028830  56.0279663  68.5291308
  14.8063471  56.4970436  67.9005129   6.9705493  56.6979018  68.8593496
   6.4347682  56.0859376  69.1754263   7.0323257  57.2727154  69.5127163
   6.9001125  56.6925945  69.0028923  19.1999827  49.6303073  61.6397895
  19.3183395  50.0879536  60.9065198  19.0262003  48.8248334  61.3534113
  19.1918998  49.5796845  61.4898829  14.5702110  70.2390892  58.0752641
  15.3352001  69.9700536  57.7535305  14.4680200  69.7540903  58.7922704
  14.6683605  70.1280457  58.1332468  12.6054879  58.4415302  64.6145876
  11.8150954  58.2606762  64.9363212  13.0015502  57.6642254  64.5976171
  12.5471756  58.3002763  64.6598425  17.0920770  67.2703076  50.0552590
  17.8593755  67.3303201  49.6458442  16.6452079  66.6983518  49.5708909
  17.1394197  67.1939652  49.9230300  17.9898566  66.0757732  62.3405322
  17.3143567  65.8442964  62.8418709  17.9990942  65.4678915  61.7147427
  17.8917070  65.9516657  62.3221475  15.1192710  60.9175561  69.0969375
  15.0551851  61.7785517  68.9689512  15.2589897  60.6007554  68.2964927
  15.1308180  60.9975728  68.9597588  19.9915300  68.9322864  54.5715500
  20.0735138  69.7389851  54.2476951  20.4765042  68.9518824  55.2956274
  20.0752458  69.0543527  54.6302399  13.8011804  63.6107700  63.2385578
  13.3774053  63.8112199  62.5024597  13.6256659  62.7636548  63.3509878
  13.7122684  63.5156482  63.1459268  13.3023497  75.1258213  65.7007036
  13.7919427  74.4269003  65.5182700  12.7307729  74.8282083  66.2883093
  13.2908027  74.9784437  65.7608076   9.0894249  64.1059752  58.6713551
   9.2458868  64.0406555  59.5269543   9.4294842  64.8808304  58.4592230
   9.1627483  64.2108950  58.7668145  15.6273393  63.4817635  57.5406914
  16.1688939  62.9788016  58.0045535  15.9419952  63.4282830  56.7296399
  15.7537790  63.3997056  57.4890726  19.4990501  67.6920283  74.6533826
  20.3125366  67.4205432  74.8138959  19.3385467  67.3927823  73.8494022
  19.5960449  67.6075209  74.5579232  13.7959843  68.8734987  54.8246942
  13.8652663  68.0149525  54.9639942  14.5748298  69.0906868  54.4965967
  13.9212693  68.7787851  54.7964099  16.7762663  58.3753940  67.5929214
  16.9904632  57.7364854  67.0392568  16.1596562  58.8199764  67.1637076
  16.7167992  58.3464084  67.4479646  18.1867330  71.2972688  59.0383435
  17.7947122  70.9939403  58.3206302  18.3420403  72.1341778  58.8488389
  18.1520920  71.3756525  58.9039932   5.6628510  61.2894702  58.9874318
   6.0427475  61.7079247  58.3234585   5.0883875  61.8708158  59.2943161
   5.6339835  61.4372561  58.9351059  18.9401751  59.9843005  68.5312522
  18.1278432  59.6768895  68.6125694  19.3991685  59.5042005  69.0955234
  18.8882135  59.8679497  68.6267116  18.3507005  67.8622677  58.9789466
  17.9921660  68.0337320  59.7553498  17.8645716  68.3235883  58.4217464
  18.2265702  67.9561648  59.0114735  16.1677391  51.4853876  62.5816557
  15.2970949  51.4592597  62.5349867  16.4217732  51.3131068  61.7642403
  16.0770951  51.4564019  62.4536694  13.1395371  63.5421842  51.5189700
  13.4287895  64.3186725  51.7933275  13.2267169  63.0310574  52.2204200
  13.1949627  63.5813761  51.6632198  16.0355258  61.3903077  73.3141224
  16.5054889  62.0145193  73.7009098  16.0817138  60.7220052  73.8734439
  16.1123134  61.3837757  73.4541295  13.1926532  53.4960104  64.0390028
  12.6765020  52.8040295  64.1641607  12.6320461  54.1630881  63.9852626
  13.0333045  53.4923362  64.0496094  15.2618765  54.0353064  65.8682880
  14.8750518  54.0602096  66.6496410  14.7751702  53.4694743  65.4157397
  15.1331274  53.9548815  65.9170784  19.5111745  68.7526573  69.9256667
  20.1491465  68.2586769  69.5919123  18.8685836  68.6803973  69.3408894
  19.5105971  68.6685582  69.7899022  21.2368745  60.6015719  64.4922582
  20.8096353  60.5142068  63.7370682  20.5994798  60.7093494  65.0777426
  21.0798352  60.6048379  64.4668024  14.9275907  50.9220050  68.1593140
  15.5569025  51.4580350  67.8814210  15.0961770  50.8297408  69.0106706
  15.0453701  50.9881412  68.2441668  14.7289822  55.7091244  70.4319552
  15.5563251  55.4376393  70.4878166  14.7497668  56.5052086  70.7883370
  14.8542672  55.7870998  70.4934735  19.5666001  69.4446381  66.5662024
  20.3558379  69.0935446  66.6864105  19.7409599  70.2582770  66.3038657
  19.7086283  69.5132238  66.5449892   9.3059312  62.8555107  63.6189812
   8.4647318  62.7558981  63.8268706   9.5149319  63.6250587  63.9704133
   9.2124004  62.9547150  63.7017127   6.7834878  60.4774644  61.4474563
   6.3891576  60.5517656  60.6724673   6.2274995  60.8632590  61.9982925
   6.6437691  60.5456419  61.4142223  18.4199825  53.4555938  61.1278442
  18.6249419  53.3878246  61.9735439  18.0926249  54.2614759  61.0599619
  18.4015073  53.5641878  61.2438097  13.1175976  60.7836506  62.8687410
  12.8139114  60.2292494  63.4697818  12.4155397  60.9628716  62.3815444
  12.9692186  60.7281289  62.8857116  12.1742074  58.0937026  57.4332112
  12.4501808  57.3755939  57.0209679  12.7740743  58.6921946  57.2253218
  12.3035338  58.0757397  57.3412873  11.1794327  67.9986227  67.5759508
  11.0714682  68.0088289  68.4421566  11.3890109  68.8241007  67.3864461
  11.1944438  68.1227302  67.6763599  21.6733513  54.0087702  60.6081207
  21.0607827  54.4958104  60.9934939  21.7697688  53.3331193  61.1518859
  21.5971411  53.9806011  60.7460066  15.6752594  55.7650543  55.7078707
  16.1296341  55.9361104  56.4326551  16.1492640  55.1518654  55.3076482
  15.8120914  55.7001429  55.7552468   9.1968119  65.2498869  65.0381445
   8.6056053  65.8908368  65.0084460   9.9589143  65.6736487  65.0112745
   9.2216380  65.4074708  65.0296592   9.5928742  56.4100867  65.7049463
  10.0530224  56.4839797  66.4424587   9.6384849  57.2082121  65.3549284
   9.6679298  56.5395014  65.7622219  11.2412092  57.0767562  70.2721490
  10.8497657  56.4300909  70.7077268  11.4097955  57.6678997  70.8915745
  11.2083002  57.0681830  70.4284196  25.3158541  65.0804639  66.0358724
  25.3741665  65.5291288  66.7818700  24.6825009  65.4903452  65.5988804
  25.2309836  65.2078374  66.0811272  18.9557636  70.7008181  62.4713470
  18.7577324  71.1898995  61.7769681  18.3345347  70.9049422  63.0497603
  18.8345200  70.8024719  62.4536693  13.0165614  62.4693078  56.8123714
  13.7607659  62.8567354  57.0506664  13.1626310  61.6250503  56.9764202
  13.1476199  62.4023551  56.8717684  14.9345189  54.2643337  61.8455575
  14.0881235  54.4366144  61.7196925  14.9316322  53.4592680  62.1821404
  14.8092339  54.1704366  61.8766702  16.0043490  58.0418551  62.7117633
  15.5303444  57.5160313  63.2222944  16.3761626  57.4948024  62.1432495
  15.9893379  57.8834548  62.7032781   6.3816520  60.0390058  68.0801179
   7.2442133  59.9385767  67.9938509   6.0508303  59.4584767  67.5186751
   6.4601716  59.9381684  67.9846585  22.2680220  63.1020927  64.1224414
  22.0278443  62.2627342  64.1266840  22.7472228  63.1821093  64.8465187
  22.3032404  62.9902326  64.2299216  17.9326990  58.9355106  55.7743387
  17.4050008  59.0183850  55.0849096  18.3922698  59.6772977  55.7708032
  17.9228840  59.0575768  55.6718082  24.2685407  59.8822384  62.0753673
  24.0295177  59.8418218  61.2374458  24.4319309  60.7293536  62.2019394
  24.2575711  60.0014469  61.9707155  20.8731438  64.2672333  68.0058718
  21.5965636  63.8144860  67.8269738  20.6081400  64.5476999  67.2231046
  20.9412711  64.2423302  67.8637433   9.7418306  58.8632507  64.7411597
   9.1171376  58.8750899  64.1337550   9.4063901  59.3392682  65.3902837
   9.6003798  58.9351024  64.7468166   9.9260055  57.2057625  50.7984282
   9.5772859  57.8577350  51.2615832   9.4456500  57.1914738  50.0708153
   9.8030299  57.3000679  50.7595374   6.4543982  66.9232967  66.1815362
   5.9243906  66.2325406  66.2310336   6.7269075  66.9143152  65.3528070
   6.4168704  66.8200099  66.0662778  17.4864072  67.5058669  54.9053044
  18.2098271  67.9716782  54.7617617  17.0464663  67.5732279  54.1550641
  17.5279764  67.5842506  54.7737826  16.6550227  64.3656211  66.1553733
  16.0407220  63.8214262  66.4502368  17.1717512  63.8520448  65.6759549
  16.6405890  64.2092621  66.1277962  15.8946524  65.4360481  63.8898032
  15.4674132  64.8110200  63.4563467  15.8871469  65.1535403  64.7157039
  15.8305665  65.3013262  63.9477859   9.0109051  60.4725655  66.9586466
   9.1702538  59.7168979  67.3638188   8.8301945  61.0216594  67.6127203
   9.0074410  60.4419468  67.1149172  16.9529354  52.6386890  67.5137255
  16.4569916  52.8350564  66.8228822  17.7098416  53.0379558  67.3426057
  16.9916179  52.7264624  67.3857392  14.2232234  56.3129236  64.1040566
  14.2474721  55.7789348  63.4153346  14.4743708  55.8046545  64.7666156
  14.2642153  56.1590140  64.1005210   1.7339824  63.5960731  63.5383710
   1.6283273  63.5507575  62.6735794   0.9840044  63.9414512  63.8197995
   1.6075427  63.6401639  63.4521040  10.5033556  55.0400054  63.4846310
  10.5431928  55.5409261  64.1981018   9.6783221  55.1310448  63.2152233
  10.3873082  55.1281871  63.5496848  12.6863169  64.6060794  71.5866605
  11.8358800  64.7432509  71.7224250  12.8491297  63.8724573  72.0314306
  12.5847033  64.5174895  71.6722204  11.9247920  61.5560564  65.7820209
  11.0939849  61.7234382  65.5755457  11.8699437  61.1796515  66.5669094
  11.7937334  61.5250295  65.8668737   9.7331703  55.0469457  71.4176620
  10.3584406  54.5031590  71.6906052   9.2782183  54.5664375  70.8484410
   9.7579963  54.8958938  71.3738214  10.2983963  59.8316156  56.3110327
  10.4386924  60.3288620  57.0138968  10.7966496  59.1302450  56.4524540
  10.3925044  59.8018134  56.4361906  10.3284186  60.6983267  53.6402904
  10.9629265  61.2943692  53.5752365  10.4109797  60.3986724  54.4548774
  10.4340737  60.7424175  53.7505990  23.3066752  63.2298744  66.5089268
  23.8984592  63.8695995  66.5407466  23.7425746  62.5321781  66.7981335
  23.4585183  63.2217094  66.5570100  11.9063169  56.6297242  53.6148346
  12.2279010  56.1500325  52.9607608  12.1690112  57.4396888  53.4239157
  11.9929194  56.6787140  53.4903838  15.1360141  67.6516116  67.1347162
  14.6285232  68.2051963  67.5787792  14.8386788  67.7124406  66.3165936
  15.0165026  67.7422428  67.0795618  17.3022324  56.0169436  65.9771825
  17.7277395  55.5641962  65.3655351  16.6879317  55.4629507  66.2536612
  17.2750969  55.8683412  65.9276850   6.8337174  62.8951107  56.9092450
   7.3429403  63.4915615  57.2903755   7.3071446  62.6277081  56.2268869
   6.9780549  62.9436923  56.8646972  17.7467922  71.5679374  55.0651105
  17.0297231  71.3940236  54.5998343  18.3974659  71.3331946  54.5326591
  17.7369772  71.5075167  54.9180323  15.7416546  52.4884536  59.3862402
  15.0984864  52.3382182  59.9547540  15.4015953  52.2426881  58.6211506
  15.5961624  52.4296658  59.3565417  20.3315893  60.4443963  58.8092410
  19.6607083  60.9873665  58.6805476  21.0255643  60.9138818  58.5674105
  20.3344760  60.5942234  58.7547938  14.3802627  72.5840675  64.0404169
  14.1568281  71.8259504  64.4088195  13.8912470  72.6138696  63.3184608
  14.2746076  72.4762899  63.9880910  20.4944020  56.8999846  61.7182784
  20.8471630  56.4729569  62.3928582  19.6358822  56.8150690  61.8483860
  20.4193465  56.8244587  61.8377794   9.1927705  59.5307366  59.7765630
   8.4739695  59.9471499  60.0438494   9.5640068  60.0961605  59.2257268
   9.1419637  59.6756647  59.7348437  18.4927286  60.1635215  65.6667626
  18.4725214  59.9818510  66.5202405  18.5406487  61.0347233  65.6427209
  18.4961927  60.2651753  65.7890921  16.4373616  66.7522407  71.5916102
  16.3969471  66.1072084  71.0061258  17.2496934  66.6959024  71.9041514
  16.5516770  66.6481374  71.5513052  13.0281084  72.8041133  61.4941253
  12.6141482  72.1415263  61.1045095  13.7128458  72.9518992  60.9736947
  13.0679455  72.7281791  61.3597750  16.3946378  71.9631218  62.2464870
  15.9962661  72.0733488  61.4785690  15.7797597  72.1713284  62.8291430
  16.2445267  72.0104786  62.2196169  14.9674280  58.5705366  55.1139010
  14.3739119  58.8922362  54.5623577  15.0049557  57.7246461  54.9060116
  14.8848669  58.4929694  55.0021781  21.9268080  52.0218258  62.6467096
  21.4198945  51.3147398  62.5788274  22.7235514  51.6911447  62.7768173
  21.9695320  51.8691410  62.6566091  17.8432096  58.5284870  58.5440760
  17.6145789  58.5517572  57.7019118  18.1030173  57.7042337  58.6635770
  17.8478284  58.4100950  58.4365957  12.1251325  60.3819343  68.1465860
  11.6130228  59.7740526  68.5050891  11.9530821  61.0975936  68.6139836
  12.0240962  60.3982643  68.2682084   6.9717039  58.8256919  70.7968222
   6.8019630  59.4858294  70.2516428   6.5282989  59.0363480  71.5180711
   6.8816373  58.9542901  70.8229851  10.8976859  57.0661417  59.8394955
  11.3734225  57.4278497  59.2045137  10.3965458  57.7217884  60.1195098
  10.8942218  57.2155605  59.7871696  24.1288220  66.5383185  55.6307960
  24.5121826  67.2874541  55.8606057  23.3332334  66.7849004  55.3719950
  24.0682003  66.6852879  55.6265534  16.0020395  58.3043588  70.5868116
  16.5591825  58.0757398  69.9546581  15.6781460  59.0649254  70.3103328
  16.0366805  58.3827425  70.4524613   3.8719104  61.7303784  66.0556712
   3.3245823  61.0604430  66.1737580   4.6611482  61.3633632  66.1200179
   3.9071288  61.5768771  66.0825412  13.7203512  61.3911241  71.5520123
  14.4714839  61.7062918  71.8659677  13.9126089  61.1890412  70.7254044
  13.8594927  61.4078623  71.4763518  12.9403512  59.2102616  53.2068339
  13.3202477  59.2282246  52.4219454  12.1996108  59.6556605  53.0859187
  12.8872350  59.2784391  53.0731908  20.5688803  57.5184808  58.7943918
  20.5683029  57.3633464  59.6528194  20.3644983  58.3647795  58.7385304
  20.5388580  57.6205428  58.9131857   2.6306073  60.9424592  63.2102735
   2.4527835  60.4901201  63.9357650   2.3425096  61.7450754  63.3941212
   2.5619027  60.9947150  63.3446238  18.2929655  62.1982309  62.4480125
  18.7883320  61.4805305  62.4084145  17.4829430  61.8953107  62.3334612
  18.2473548  62.0479956  62.4253851  13.7388266  66.0480123  54.5977129
  12.9299589  65.7246796  54.5510439  14.2463175  65.3413345  54.5305378
  13.6937933  65.8961439  54.5807424   4.3678543  63.4752316  60.3224494
   3.5024063  63.4638006  60.2107265   4.4677359  63.2882539  61.1695633
   4.2552710  63.4458377  60.4313438  20.3581473  64.9485997  65.1357254
  20.7836545  64.4260419  64.5827679  19.9938393  65.5466834  64.6145877
  20.3668076  64.9596224  64.9766263   9.9935553  73.2450214  63.8954599
  10.3082112  74.0586603  63.9032381  10.4028967  72.8600433  64.5636758
  10.1003651  73.3078917  63.9958691  16.9460073  68.6620261  61.4658411
  17.4171251  69.3760524  61.6348396  17.2820251  68.0619011  62.0018281
  17.0655188  68.6791726  61.5690787  19.0337057  70.2721575  73.6450483
  19.1434023  69.4830135  74.0007230  19.3627954  70.1827511  72.8424821
  19.0989463  70.1427428  73.5792874  13.8629568  53.4347732  68.4216506
  13.9957473  52.6378725  68.7497482  14.2474721  53.9614135  69.0014782
  13.9385897  53.3947649  68.5560009  17.5834019  68.4538195  68.2286104
  17.0354965  67.8296079  67.9606169  18.0447048  68.6432467  67.5130183
  17.5701229  68.3897246  68.0836535  16.9361923  50.3578058  65.0197599
  16.1307887  50.2475788  65.3365438  16.8068658  50.4590514  64.1627465
  16.7982056  50.3561728  64.9405640  20.3927884  56.5223550  65.6137296
  19.8090872  57.0232756  65.2014864  20.7132178  56.0153106  64.9801619
  20.3541059  56.5215385  65.4595803  12.9322683  55.4364145  55.8895971
  13.7538377  55.6062458  55.6477666  12.4692334  55.5911406  55.1662269
  12.9853845  55.4845878  55.7467615  11.5218015  53.4306907  66.6694400
  12.0662428  53.0898034  67.2598741  11.5754950  54.2892368  66.8115684
  11.6107134  53.5062166  66.7776273   7.3348573  67.1923323  63.5433208
   7.9393431  67.1519157  62.9147028   7.1275886  68.0394475  63.5737263
   7.3937471  67.3111325  63.4549324  17.1492346  69.4589268  64.7595445
  17.9690719  69.3152234  65.0211740  16.8686423  70.0835467  65.3011883
  17.2289089  69.5299620  64.8783384   2.5699856  66.1757940  63.4132131
   2.4724134  65.3654212  63.7222187   3.3528725  66.1549734  63.0278399
   2.6715992  66.0525031  63.4018994  33.6205996  77.1154120  57.7238321
  33.5900000  77.9698756  57.8956591  34.2187345  76.8149412  58.2824465
  33.7043154  77.1970616  57.8313124  26.8205681  76.2029771  62.4791252
  25.9643576  76.3638269  62.5300369  26.8673334  75.3321835  62.4996313
  26.7004792  76.0980573  62.4897318  21.2046820  85.7392489  58.2428483
  20.4529720  85.3608027  58.0144528  21.6532832  85.7710922  57.4947294
  21.1596487  85.6878096  58.0985986  30.1299397  82.4716296  72.0851708
  30.8366165  81.9768327  72.2138642  30.3187333  82.9125378  71.3554366
  30.2627303  82.4634647  71.9960753  26.6571780  86.1617858  53.6714030
  26.3223149  86.8394780  53.2358253  27.1698651  85.7723169  53.0830902
  26.6837361  86.2042436  53.5200822  26.1976072  88.1132127  59.6125142
  26.5815451  88.6819026  59.0729917  26.1335213  87.3881637  59.1330958
  26.2449499  88.0907590  59.4619005  29.6657502  78.2621815  65.1222903
  30.2113462  78.9406901  65.1816873  29.6074378  78.1209276  64.2624485
  29.7373416  78.3413816  65.0034964  22.7831577  85.7510881  60.5091256
  22.8841940  84.9411235  60.8188384  22.1873322  85.6567827  59.8790934
  22.7104115  85.6175909  60.4617494  31.4422570  79.6906422  55.9956631
  31.3262096  80.4414108  56.4248769  32.2378457  79.4330375  56.2452718
  31.5427160  79.7641269  56.0960723  22.6232316  90.6688470  61.9106112
  23.2669772  91.1101634  62.3002270  22.9488572  89.8641896  61.8236371
  22.7664145  90.6153665  61.9551589  15.9796621  81.7731167  60.1343590
  15.7446805  80.9398820  60.0275858  16.1182262  82.0535833  59.3204790
  15.9652283  81.6914671  59.9985945  18.2786708  73.9416898  63.0327897
  17.6591740  73.3509545  62.8637912  18.1770572  74.5328333  62.3992220
  18.1724384  73.9420980  62.9132887  23.3252896  83.6800445  57.2825974
  23.6468737  84.2205652  56.6787282  23.9724992  83.1097216  57.4148263
  23.4678951  83.6759620  57.2133009  25.3754604  75.6816440  57.3660360
  26.0734769  75.8604567  57.8581824  25.6906937  75.1586779  56.7430750
  25.5249941  75.6310212  57.3462370  18.0055841  77.4869180  65.2771466
  17.8814538  78.0731625  65.9121285  18.6574126  76.9929375  65.5783741
  18.0829491  77.5007984  65.4157396  25.5642539  82.0686885  57.3540152
  26.0036175  81.4603985  57.7994925  25.4147202  81.6894258  56.5825617
  25.6064005  81.9225356  57.3059319  23.0314182  80.6630897  64.5558977
  23.6763185  80.1703340  64.2369926  23.2715959  80.8055683  65.3825056
  23.1624767  80.6108339  64.6308511  25.5700274  83.5085802  64.2065870
  25.8523517  82.7137208  63.9852626  26.2986434  83.9866390  64.2270931
  25.7189837  83.4620399  64.1768885  23.5481468  71.0508836  61.4481635
  23.2184798  71.5019980  60.7785334  22.8726469  70.9725000  61.9954641
  23.3991904  71.1059972  61.4304858  29.1651876  80.4214066  54.3070921
  29.0803171  81.2775033  54.4520490  29.6536259  80.1458390  54.9753080
  29.2240773  80.5071388  54.4273003  30.7557875  67.0394359  59.6931246
  30.4411316  67.7297838  60.1251668  30.2384817  66.9839142  58.9916746
  30.6322346  67.1329248  59.6528195  30.0970309  77.0398860  55.8068656
  29.5681781  77.2558494  56.4665962  30.6195329  77.7334999  55.7269626
  30.0958762  77.1741997  55.8924255  35.5518362  82.6145165  61.1801701
  34.7216065  82.8255808  61.3435117  35.5027614  81.7882219  60.9043984
  35.4225097  82.5234771  61.1639066  21.9869917  80.9362077  54.6076124
  21.4027132  81.4412108  55.0141988  21.5840012  80.7104464  53.8672716
  21.8409221  80.9770325  54.5581149  17.5413946  86.6516838  61.4099796
  17.0581524  87.3767328  61.3859379  18.3537264  86.9492968  61.5209953
  17.5904693  86.8019192  61.4227075  23.6128100  85.4449019  64.0149610
  23.0955041  85.0856434  63.4110918  24.3102491  84.9211193  64.0255676
  23.6393681  85.3146707  63.9279869  27.2691692  85.8943833  69.9765783
  27.3575037  85.7069973  70.8243994  27.6981404  85.2481262  69.5770630
  27.3453794  85.7706841  70.0437535  24.8362151  85.1774993  68.9583445
  24.2732986  84.7647603  69.4823107  25.5983175  85.1027899  69.3776589
  24.8656600  85.1052393  69.0976446  26.4447131  77.1827729  53.0845045
  26.6843135  77.3905713  52.2720388  26.7662972  76.3785238  53.1933989
  26.5284289  77.0941830  52.9805598  21.7537422  69.1121125  56.9304583
  22.5083390  69.4799442  56.6921633  21.5764956  69.4860679  57.6983762
  21.8391900  69.2219313  57.0089471  20.3958143  87.1673014  61.5620076
  21.0978722  86.6525003  61.6192832  20.3155626  87.4947165  62.3666951
  20.4881903  87.1387240  61.6892868  35.0472320  75.2615565  64.9752122
  34.2100741  75.3317752  65.2099716  35.0160551  75.2640060  64.1026424
  34.9190603  75.2725792  64.8811670  21.4437049  77.4048601  70.6900491
  21.6157553  77.2954496  71.5385772  21.9806407  78.0503006  70.4531683
  21.5482053  77.4840603  70.7805587  20.1094486  71.5191444  53.6282696
  19.9270060  71.7363325  52.8023688  20.9720099  71.6330457  53.6841310
  20.2099076  71.5681342  53.5137183  19.7208918  83.3579366  61.0705684
  20.5597818  83.5902299  61.1179445  19.7520687  82.4883677  61.0012719
  19.8490636  83.2636313  61.0670328  20.3461621  83.7780241  65.3718989
  20.8859846  83.6351372  66.0422361  19.6631568  84.1776992  65.7403015
  20.3253775  83.8159912  65.5253411  25.7894205  68.5217855  56.6631719
  26.5180366  68.3433809  56.2169876  25.8789098  69.3635934  56.8738898
  25.9100868  68.6201733  56.6285237  29.7702506  79.4571242  60.5664013
  30.5260021  79.8902756  60.6052922  29.8764831  78.8076012  61.1398649
  29.8972677  79.4248726  60.6562039  32.8082677  83.2844519  61.3166416
  32.3717909  83.2881262  62.0725388  32.4745593  83.9650018  60.8845994
  32.6945297  83.3856975  61.3647249  27.3811751  85.3252852  72.6409567
  28.1652168  85.4383700  73.0065309  27.1808345  84.4993989  72.8368253
  27.4677776  85.2199571  72.7243953  15.7498766  79.9980532  65.5253411
  15.4837182  79.1819649  65.6844401  15.7637330  80.0433688  64.6548926
  15.7123489  79.8837437  65.4206893  32.7280160  70.3258347  63.5595844
  33.3706069  70.3956452  64.1457760  32.9803181  69.6587570  63.0575386
  32.8602292  70.2384696  63.5723124  19.6556513  74.7965616  52.1405169
  18.9414690  74.5103796  52.5527601  20.1400482  75.1362242  52.7811556
  19.6215877  74.8047266  52.2960804  20.4997373  73.5358910  68.1720418
  19.8069169  73.0655890  68.4181150  21.1157700  73.3097215  68.7462125
  20.4881903  73.4326042  68.2929571  27.5382144  87.2362954  66.2876022
  26.7397390  86.9962454  66.5449891  27.9868156  87.2877347  67.0343070
  27.4856755  87.2085345  66.4360947  35.9427023  80.0025439  60.2086054
  36.6043458  79.4416108  60.1081962  35.3018435  79.5077470  60.5338745
  35.9455891  79.8461848  60.2418394  26.8303831  83.2995570  52.5166977
  27.2454980  82.9680594  51.8251473  25.9995761  83.0664473  52.3887114
  26.7691840  83.2166826  52.3957824  16.1592180  80.7839311  62.8065155
  15.9767753  80.7586197  61.9537447  16.8941849  81.2538249  62.8454064
  16.2406244  80.8500674  62.6863073  32.2291854  81.0190821  59.9498042
  32.4647443  81.1636020  59.1224893  32.3781418  81.7833229  60.3429556
  32.2857657  81.1529876  59.8861646  19.2237932  77.5024314  69.3147264
  19.9477904  77.4877345  69.8012158  19.3254068  78.2119670  68.8169232
  19.3456141  77.6049018  69.3126050  34.0582311  79.8592487  57.7867646
  34.3890528  80.3920128  57.1807741  34.6315399  79.9131375  58.4429597
  34.1915990  79.9462056  57.7945428  26.5982881  80.9823399  74.1796211
  25.8055862  81.2966911  74.3648830  26.7131808  81.1974867  73.3416995
  26.4978292  81.0607236  74.0834545  29.2714200  77.7057390  58.4691226
  29.3661054  78.4446684  58.9230852  28.6473044  77.2774866  58.9025791
  29.1923230  77.7518711  58.5999374  27.5266674  80.8843603  69.1181507
  28.1005536  80.2470847  69.2730071  27.4481478  80.8847685  68.2491165
  27.5999909  80.7908714  69.0127918  16.1263090  77.6632812  62.9564221
  16.7036593  77.5269263  63.5956467  15.4277152  77.2068596  63.2109806
  16.1084112  77.5755078  63.0886511  22.8830392  79.3166868  61.1702705
  22.6249637  78.4838603  61.1434004  22.9378875  79.5424481  60.3295205
  22.8530170  79.2264639  61.0422841  27.9631443  71.4195319  61.2706797
  27.2587769  70.9304504  61.4290717  28.0116417  71.4317793  60.3995242
  27.8661494  71.3484966  61.1646137  21.8565105  76.8704630  61.6567599
  21.2814696  77.0296799  62.2931560  21.4800781  76.2340039  61.1936050
  21.7167917  76.8002443  61.6822158  25.5238393  75.3427980  66.5159978
  25.1352826  74.9182197  65.8612169  24.8593092  75.5910129  67.0237005
  25.3685321  75.3166701  66.4947846  35.1661662  75.1002984  59.2907808
  34.9098227  74.2882926  59.1005691  36.0090976  75.1080551  59.0637995
  35.2527688  74.9814982  59.2292625  11.6021924  76.5144705  59.6712040
  11.6882175  76.1376573  60.4525570  12.2297721  76.1405151  59.1931998
  11.7078475  76.4030187  59.7157517  29.3464755  69.0402608  64.0283962
  29.7275267  68.3580779  64.4151836  28.5428039  68.7512210  63.8459627
  29.2841217  68.8969657  64.0588018  26.6277332  79.5726584  54.7136785
  27.4417970  79.8641477  54.6019556  26.5636473  78.9186447  54.1395078
  26.7380071  79.5191779  54.6125622  32.8486822  82.2552580  69.1266360
  32.6125459  81.4240645  69.0078421  33.4930051  82.2038187  69.7121205
  32.9081492  82.1250268  69.1952254  22.4985240  83.0448102  59.8409097
  23.1359187  82.8059849  60.3860890  22.9240311  83.2485261  59.1062258
  22.6561406  83.0399112  59.8126254  17.1897882  85.2836438  63.7243401
  17.2302027  85.5551289  62.8963180  17.7492406  85.8078346  64.1401189
  17.2781228  85.4012193  63.6635289  23.1388055  78.2650391  54.1783986
  23.5233208  78.0458098  54.9300531  22.8899675  79.0913337  54.3085063
  23.1590127  78.3548538  54.3085063  23.3056595  71.5456807  73.8946571
  22.9910036  72.3156369  73.6316133  22.9846528  70.9827063  73.3098797
  23.2115514  71.5767075  73.7687920  33.8723242  82.0397029  65.1894655
  33.5669059  82.7725086  65.5507971  33.1529458  81.6334959  64.9087441
  33.7210585  82.0878762  65.2007792  24.8806712  83.5220524  61.5202883
  24.9545720  83.3595696  62.3744733  25.6976218  83.7110714  61.2763365
  25.0123070  83.5257267  61.6100909  39.5725034  78.6790030  64.5162999
  39.5049535  78.6985989  63.6465586  39.5580697  79.5220357  64.7418670
  39.5603791  78.8063764  64.4215476  18.6412468  83.8678387  58.5497327
  17.8150586  84.1140124  58.4231605  18.7024460  83.7890468  59.4159385
  18.5286635  83.8923336  58.6586271  20.8588492  69.9347328  59.5092767
  19.9910918  70.0069928  59.5750376  21.1463697  70.7369407  59.6980742
  20.7728240  70.0641475  59.5467533  29.9821381  70.0825187  67.8404089
  30.7274973  69.8934998  67.4267514  29.5658686  70.6083425  67.2817945
  30.0306355  70.1327333  67.6968662  23.4211297  86.4855267  56.2516357
  23.7109596  86.0944249  55.5275583  24.1514778  86.6671972  56.6921632
  23.5718182  86.4549081  56.2099164  37.3583652  77.4534416  62.7909594
  37.9091573  76.8202485  63.0306686  37.3427767  77.9849809  63.4825098
  37.4368848  77.4383364  62.9288452  24.0106043  81.2873013  67.3369487
  23.5117736  81.9988781  67.4154376  24.8206267  81.6073680  67.2987649
  24.0562149  81.4399862  67.3426056  21.3617213  88.4622650  59.3176506
  21.1417508  88.1720004  60.1103173  21.1411735  87.8037605  58.7894419
  21.2964807  88.3222358  59.3565415  20.2734160  80.5495966  61.5832208
  19.9847409  79.9233437  62.1177935  21.1417508  80.4916254  61.6496888
  20.3594412  80.4483510  61.6723163  31.0612058  75.6930750  61.9014190
  30.7176824  74.9721085  62.2521440  31.1605101  75.4844601  61.0592548
  31.0254101  75.5554953  61.8285870  23.5285169  89.8352040  58.1007199
  24.1809227  89.3028482  58.3298225  22.8310778  89.4820692  58.4875073
  23.5215887  89.7041563  58.1919366  20.4766434  82.1891217  57.5074573
  21.2312402  82.5704256  57.7210036  19.8837046  82.6402361  57.9621270
  20.5003147  82.3120045  57.6057451  31.5225087  82.1556454  57.4438178
  32.0883120  82.8149664  57.3596721  30.8752991  82.5006152  57.9154580
  31.5103844  82.3038395  57.5010934  22.9373101  74.1454058  72.6331785
  22.1272876  74.4511837  72.5221628  23.4147787  74.8659640  72.7484369
  22.8876579  74.2968659  72.6338856  21.7964660  83.3599779  62.8814688
  21.2745414  83.5000070  63.5666553  22.1838681  82.6010443  63.0716806
  21.7768361  83.2685302  63.0115765  18.7855844  73.4105587  56.9509643
  18.4980640  73.0406858  56.2141590  19.4726313  73.8800443  56.6893348
  18.8444742  73.4252557  56.8024719  27.9931665  85.0995238  56.8675257
  27.7518341  84.3663099  56.4602322  28.1732998  85.6482095  56.2141591
  27.9839289  85.0717629  56.7105480  23.2230986  80.3903798  58.2796179
  23.0273769  80.9978532  57.6856482  23.4465331  79.6971742  57.7987853
  23.2265627  80.3781323  58.1212260  21.6209516  77.2758536  58.3977048
  22.3432168  77.4399694  57.9380854  21.1417509  77.9968200  58.2916388
  21.6573247  77.4056765  58.3142662  29.5803023  73.6122334  63.7773733
  28.7414124  73.6383613  63.5411996  29.6507391  74.2593070  64.3579079
  29.4671417  73.7118460  63.8282850  19.2717133  79.6816608  67.5031188
  19.7838230  79.9600861  66.8539947  18.9853475  80.4205902  67.8694001
  19.3051996  79.8318962  67.4621066  28.0272302  70.5107711  58.5101349
  28.7298655  70.3115460  58.0321307  27.7616490  69.7383654  58.8170192
  28.0918934  70.3670677  58.4846790  33.4560547  78.8190321  61.0634975
  33.3694522  78.9745747  61.9169753  33.0011027  79.4628397  60.6894380
  33.3763804  78.9366076  61.1342081  16.3584039  74.1886800  57.7994924
  16.4600175  74.9912961  58.1275900  17.1539926  73.9874136  57.5018005
  16.4911945  74.2772699  57.8030280  22.7900858  71.7742997  67.5632229
  22.5984055  71.7898131  68.4131653  23.6399454  71.9706671  67.5398884
  22.8876580  71.8057348  67.6855524  17.1747771  74.3033978  65.5416046
  17.0333263  73.4517919  65.6660554  17.4588334  74.3462639  64.7178252
  17.1955617  74.1833728  65.4383670  27.3286363  76.1401068  59.6860534
  27.0821078  76.0596819  60.5197323  27.6571486  75.3554536  59.4923062
  27.3407607  76.0127334  59.7808057  31.2234412  82.8484428  63.4747315
  31.0848771  83.5465473  63.9796058  30.4434410  82.6933084  63.1183497
  31.0877639  82.9284594  63.4973589  29.5612497  79.1480803  69.7269697
  29.5560536  78.2760619  69.7312123  30.2673491  79.3468972  69.2539153
  29.6657501  79.0484677  69.6576732  23.2883391  78.8757787  69.0983517
  23.4326766  79.4558995  68.4626627  23.6359039  79.2534084  69.8033372
  23.3610852  79.0178491  69.1082512  25.4603308  78.0747955  66.8808649
  24.7126622  78.2678970  66.4756927  25.6144833  77.2493175  66.6432770
  25.3725736  77.9813067  66.7854055  22.3611146  87.0660559  65.9644544
  22.5100709  86.5063475  65.3117948  23.1411148  87.1452560  66.3477063
  22.4985239  86.9946124  65.9241493  32.7187785  82.2062681  54.2363814
  32.3394594  81.4199819  54.2293104  32.0554030  82.7549538  54.0935459
  32.5646260  82.1707505  54.2144611  24.8864446  87.2375202  67.2429035
  24.8108117  86.5684012  67.7979823  24.8154305  87.9392990  67.7569701
  24.8645053  87.2420109  67.4005883  25.7005085  71.9698506  67.7704052
  26.1577699  72.7022480  67.8976845  25.7761414  71.5464971  68.5291308
  25.7796055  72.0155744  67.9005129  17.9438076  72.2164326  68.8593496
  17.4080266  71.6044684  69.1754263  18.0055841  72.7912462  69.5127163
  17.8733709  72.2111253  69.0028923  30.1732411  65.1488381  61.6397895
  30.2915979  65.6064844  60.9065198  29.9994587  64.3433642  61.3534113
  30.1651582  65.0982153  61.4898829  25.5434693  85.7576200  58.0752641
  26.3084584  85.4885844  57.7535305  25.4412783  85.2726211  58.7922704
  25.6416189  85.6465765  58.1332468  23.5787463  73.9600610  64.6145876
  22.7883538  73.7792070  64.9363212  23.9748086  73.1827562  64.5976171
  23.5204339  73.8188071  64.6598425  28.9631149  81.5943040  62.3405322
  28.2876151  81.3628272  62.8418709  28.9723525  80.9864223  61.7147427
  28.8649654  81.4701965  62.3221475  26.0925293  76.4360869  69.0969375
  26.0284434  77.2970825  68.9689512  26.2322481  76.1192862  68.2964927
  26.1040763  76.5161036  68.9597588  30.9647884  84.4508172  54.5715500
  31.0467721  85.2575159  54.2476951  31.4497626  84.4704132  55.2956274
  31.0485042  84.5728835  54.6302399  24.7744387  79.1293008  63.2385578
  24.3506636  79.3297507  62.5024597  24.5989242  78.2821856  63.3509878
  24.6855268  79.0341790  63.1459268  24.2756081  90.6443521  65.7007036
  24.7652011  89.9454311  65.5182700  23.7040313  90.3467391  66.2883093
  24.2640611  90.4969745  65.7608076  20.0626832  79.6245060  58.6713551
  20.2191451  79.5591863  59.5269543  20.4027425  80.3993612  58.4592230
  20.1360067  79.7294258  58.7668145  26.6005977  79.0002943  57.5406914
  27.1421522  78.4973324  58.0045535  26.9152536  78.9468138  56.7296399
  26.7270374  78.9182364  57.4890726  30.4723084  83.2105591  74.6533826
  31.2857949  82.9390740  74.8138959  30.3118050  82.9113131  73.8494022
  30.5693033  83.1260517  74.5579232  24.7692426  84.3920295  54.8246942
  24.8385247  83.5334833  54.9639942  25.5480882  84.6092176  54.4965967
  24.8945276  84.2973159  54.7964099  27.7495246  73.8939248  67.5929214
  27.9637216  73.2550162  67.0392568  27.1329145  74.3385072  67.1637076
  27.6900575  73.8649392  67.4479646  29.1599914  86.8157996  59.0383435
  28.7679706  86.5124711  58.3206302  29.3152986  87.6527086  58.8488389
  29.1253504  86.8941833  58.9039932  16.6361094  76.8080010  58.9874318
  17.0160058  77.2264555  58.3234585  16.0616458  77.3893466  59.2943161
  16.6072418  76.9557869  58.9351059  29.9134334  75.5028313  68.5312522
  29.1011016  75.1954203  68.6125694  30.3724269  75.0227313  69.0955234
  29.8614719  75.3864805  68.6267116  29.3239589  83.3807985  58.9789466
  28.9654243  83.5522628  59.7553498  28.8378300  83.8421191  58.4217464
  29.1998286  83.4746956  59.0114735  27.1409975  67.0039184  62.5816557
  26.2703533  66.9777905  62.5349867  27.3950316  66.8316376  61.7642403
  27.0503535  66.9749327  62.4536694  24.1127954  79.0607150  51.5189700
  24.4020479  79.8372033  51.7933275  24.1999753  78.5495882  52.2204200
  24.1682210  79.0999069  51.6632198  27.0087842  76.9088384  73.3141224
  27.4787473  77.5330501  73.7009098  27.0549722  76.2405360  73.8734439
  27.0855717  76.9023065  73.4541295  24.1659115  69.0145412  64.0390028
  23.6497604  68.3225603  64.1641607  23.6053044  69.6816189  63.9852626
  24.0065628  69.0108670  64.0496094  26.2351349  69.5538372  65.8682880
  25.8483102  69.5787403  66.6496410  25.7484286  68.9880051  65.4157397
  26.1063858  69.4734123  65.9170784  30.4844328  84.2711881  69.9256667
  31.1224049  83.7772077  69.5919123  29.8418420  84.1989281  69.3408894
  30.4838555  84.1870889  69.7899022  32.2101328  76.1201027  64.4922582
  31.7828936  76.0327375  63.7370682  31.5727381  76.2278802  65.0777426
  32.0530935  76.1233687  64.4668024  25.9008490  66.4405357  68.1593140
  26.5301608  66.9765658  67.8814210  26.0694353  66.3482716  69.0106706
  26.0186285  66.5066720  68.2441668  25.7022405  71.2276552  70.4319552
  26.5295835  70.9561701  70.4878166  25.7230251  72.0237394  70.7883370
  25.8275255  71.3056306  70.4934735  30.5398585  84.9631689  66.5662024
  31.3290963  84.6120754  66.6864105  30.7142183  85.7768078  66.3038657
  30.6818866  85.0317546  66.5449892  20.2791895  78.3740415  63.6189812
  19.4379902  78.2744289  63.8268706  20.4881903  79.1435895  63.9704133
  20.1856588  78.4732458  63.7017127  17.7567462  75.9959952  61.4474563
  17.3624160  76.0702964  60.6724673  17.2007579  76.3817898  61.9982925
  17.6170274  76.0641727  61.4142223  29.3932409  68.9741246  61.1278442
  29.5982002  68.9063554  61.9735439  29.0658833  69.7800067  61.0599619
  29.3747657  69.0827186  61.2438097  24.0908560  76.3021814  62.8687410
  23.7871697  75.7477802  63.4697818  23.3887981  76.4814024  62.3815444
  23.9424770  76.2466596  62.8857116  23.1474657  73.6122334  57.4332112
  23.4234391  72.8941246  57.0209679  23.7473326  74.2107254  57.2253218
  23.2767922  73.5942705  57.3412873  22.1526911  83.5171535  67.5759508
  22.0447266  83.5273597  68.4421566  22.3622692  84.3426315  67.3864461
  22.1677022  83.6412610  67.6763599  32.6466097  69.5273010  60.6081207
  32.0340410  70.0143412  60.9934939  32.7430271  68.8516501  61.1518859
  32.5703994  69.4991319  60.7460066  26.6485178  71.2835851  55.7078707
  27.1028924  71.4546412  56.4326551  27.1225223  70.6703962  55.3076482
  26.7853498  71.2186737  55.7552468  20.1700703  80.7684177  65.0381445
  19.5788636  81.4093675  65.0084460  20.9321727  81.1921795  65.0112745
  20.1948964  80.9260016  65.0296592  20.5661326  71.9286175  65.7049463
  21.0262807  72.0025104  66.4424587  20.6117433  72.7267429  65.3549284
  20.6411881  72.0580322  65.7622219  22.2144676  72.5952870  70.2721490
  21.8230241  71.9486217  70.7077268  22.3830538  73.1864305  70.8915745
  22.1815586  72.5867138  70.4284196  36.2891125  80.5989947  66.0358724
  36.3474248  81.0476596  66.7818700  35.6557592  81.0088760  65.5988804
  36.2042420  80.7263682  66.0811272  29.9290219  86.2193489  62.4713470
  29.7309908  86.7084303  61.7769681  29.3077930  86.4234730  63.0497603
  29.8077784  86.3210027  62.4536693  23.9898198  77.9878386  56.8123714
  24.7340243  78.3752662  57.0506664  24.1358894  77.1435811  56.9764202
  24.1208783  77.9208858  56.8717684  25.9077773  69.7828645  61.8455575
  25.0613818  69.9551452  61.7196925  25.9048905  68.9777988  62.1821404
  25.7824923  69.6889674  61.8766702  26.9776073  73.5603859  62.7117633
  26.5036028  73.0345621  63.2222944  27.3494209  73.0133332  62.1432495
  26.9625962  73.4019856  62.7032781  17.3549104  75.5575366  68.0801179
  18.2174717  75.4571075  67.9938509  17.0240887  74.9770075  67.5186751
  17.4334300  75.4566992  67.9846585  33.2412804  78.6206235  64.1224414
  33.0011027  77.7812650  64.1266840  33.7204811  78.7006401  64.8465187
  33.2764988  78.5087634  64.2299216  28.9059573  74.4540414  55.7743387
  28.3782592  74.5369158  55.0849096  29.3655281  75.1958285  55.7708032
  28.8961424  74.5761076  55.6718082  35.2417991  75.4007692  62.0753673
  35.0027761  75.3603526  61.2374458  35.4051892  76.2478844  62.2019394
  35.2308294  75.5199777  61.9707155  31.8464021  79.7857641  68.0058718
  32.5698220  79.3330168  67.8269738  31.5813983  80.0662307  67.2231046
  31.9145294  79.7608610  67.8637433  20.7150890  74.3817815  64.7411597
  20.0903960  74.3936207  64.1337550  20.3796484  74.8577990  65.3902837
  20.5736381  74.4536332  64.7468166  20.8992638  72.7242933  50.7984282
  20.5505443  73.3762658  51.2615832  20.4189084  72.7100046  50.0708153
  20.7762882  72.8185987  50.7595374  17.4276565  82.4418275  66.1815362
  16.8976490  81.7510714  66.2310336  17.7001658  82.4328460  65.3528070
  17.3901287  82.3385407  66.0662778  28.4596656  83.0243977  54.9053044
  29.1830854  83.4902090  54.7617617  28.0197247  83.0917587  54.1550641
  28.5012348  83.1027814  54.7737826  27.6282811  79.8841519  66.1553733
  27.0139804  79.3399570  66.4502368  28.1450096  79.3705756  65.6759549
  27.6138473  79.7277928  66.1277962  26.8679108  80.9545789  63.8898032
  26.4406716  80.3295508  63.4563467  26.8604052  80.6720711  64.7157039
  26.8038249  80.8198570  63.9477859  19.9841635  75.9910962  66.9586466
  20.1435122  75.2354287  67.3638188  19.8034529  76.5401902  67.6127203
  19.9806994  75.9604776  67.1149172  27.9261938  68.1572198  67.5137255
  27.4302499  68.3535872  66.8228822  28.6831000  68.5564866  67.3426057
  27.9648763  68.2449932  67.3857392  25.1964818  71.8314544  64.1040566
  25.2207305  71.2974656  63.4153346  25.4476291  71.3231853  64.7666156
  25.2374736  71.6775448  64.1005210  12.7072407  79.1146039  63.5383710
  12.6015856  79.0692883  62.6735794  11.9572627  79.4599819  63.8197995
  12.5808010  79.1586947  63.4521040  21.4766140  70.5585362  63.4846310
  21.5164511  71.0594569  64.1981018  20.6515804  70.6495756  63.2152233
  21.3605666  70.6467179  63.5496848  23.6595753  80.1246102  71.5866605
  22.8091383  80.2617816  71.7224250  23.8223880  79.3909880  72.0314306
  23.5579616  80.0360203  71.6722204  22.8980503  77.0745872  65.7820209
  22.0672433  77.2419690  65.5755457  22.8432020  76.6981823  66.5669094
  22.7669918  77.0435603  65.8668737  20.7064286  70.5654765  71.4176620
  21.3316990  70.0216898  71.6906052  20.2514766  70.0849683  70.8484410
  20.7312547  70.4144246  71.3738214  21.2716547  75.3501464  56.3110327
  21.4119508  75.8473928  57.0138968  21.7699080  74.6487758  56.4524540
  21.3657628  75.3203442  56.4361906  21.3016769  76.2168575  53.6402904
  21.9361849  76.8129000  53.5752365  21.3842380  75.9172032  54.4548774
  21.4073320  76.2609483  53.7505990  34.2799335  78.7484052  66.5089268
  34.8717175  79.3881303  66.5407466  34.7158330  78.0507089  66.7981335
  34.4317766  78.7402402  66.5570100  22.8795752  72.1482550  53.6148346
  23.2011593  71.6685633  52.9607608  23.1422696  72.9582196  53.4239157
  22.9661778  72.1972448  53.4903838  26.1092725  83.1701424  67.1347162
  25.6017816  83.7237271  67.5787792  25.8119371  83.2309714  66.3165936
  25.9897610  83.2607736  67.0795618  28.2754907  71.5354744  65.9771825
  28.7009979  71.0827270  65.3655351  27.6611900  70.9814815  66.2536612
  28.2483553  71.3868720  65.9276850  17.8069757  78.4136415  56.9092450
  18.3161987  79.0100923  57.2903755  18.2804030  78.1462389  56.2268869
  17.9513133  78.4622231  56.8646972  28.7200505  87.0864682  55.0651105
  28.0029815  86.9125544  54.5998343  29.3707243  86.8517254  54.5326591
  28.7102356  87.0260475  54.9180323  26.7149130  68.0069844  59.3862402
  26.0717448  67.8567490  59.9547540  26.3748537  67.7612189  58.6211506
  26.5694207  67.9481966  59.3565417  31.3048476  75.9629271  58.8092410
  30.6339666  76.5058973  58.6805476  31.9988227  76.4324126  58.5674105
  31.3077344  76.1127542  58.7547938  25.3535210  88.1025983  64.0404169
  25.1300865  87.3444812  64.4088195  24.8645054  88.1324004  63.3184608
  25.2478659  87.9948207  63.9880910  31.4676604  72.4185154  61.7182784
  31.8204214  71.9914877  62.3928582  30.6091405  72.3335998  61.8483860
  31.3926049  72.3429895  61.8377794  20.1660289  75.0492674  59.7765630
  19.4472278  75.4656806  60.0438494  20.5372651  75.6146913  59.2257268
  20.1152221  75.1941955  59.7348437  29.4659870  75.6820523  65.6667626
  29.4457797  75.5003818  66.5202405  29.5139070  76.5532541  65.6427209
  29.4694511  75.7837061  65.7890921  27.4106200  82.2707715  71.5916102
  27.3702054  81.6257392  71.0061258  28.2229518  82.2144332  71.9041514
  27.5249353  82.1666682  71.5513052  24.0013667  88.3226441  61.4941253
  23.5874066  87.6600571  61.1045095  24.6861041  88.4704299  60.9736947
  24.0412039  88.2467099  61.3597750  27.3678961  87.4816526  62.2464870
  26.9695245  87.5918796  61.4785690  26.7530181  87.6898592  62.8291430
  27.2177851  87.5290094  62.2196169  25.9406863  74.0890674  55.1139010
  25.3471703  74.4107670  54.5623577  25.9782141  73.2431769  54.9060116
  25.8581252  74.0115002  55.0021781  32.9000664  67.5403566  62.6467096
  32.3931529  66.8332706  62.5788274  33.6968098  67.2096755  62.7768173
  32.9427903  67.3876717  62.6566091  28.8164680  74.0470178  58.5440760
  28.5878373  74.0702880  57.7019118  29.0762756  73.2227645  58.6635770
  28.8210868  73.9286258  58.4365957  23.0983908  75.9004651  68.1465860
  22.5862811  75.2925834  68.5050891  22.9263404  76.6161244  68.6139836
  22.9973545  75.9167951  68.2682084  17.9449623  74.3442227  70.7968222
  17.7752213  75.0043601  70.2516428  17.5015573  74.5548788  71.5180711
  17.8548957  74.4728209  70.8229851  21.8709442  72.5846725  59.8394955
  22.3466809  72.9463804  59.2045137  21.3698042  73.2403192  60.1195098
  21.8674801  72.7340913  59.7871696  35.1020804  82.0568493  55.6307960
  35.4854410  82.8059849  55.8606057  34.3064917  82.3034312  55.3719950
  35.0414586  82.2038187  55.6265534  26.9752979  73.8228896  70.5868116
  27.5324409  73.5942706  69.9546581  26.6514044  74.5834562  70.3103328
  27.0099389  73.9012733  70.4524613  14.8451688  77.2489092  66.0556712
  14.2978407  76.5789738  66.1737580  15.6344066  76.8818940  66.1200179
  14.8803871  77.0954079  66.0825412  24.6936096  76.9096549  71.5520123
  25.4447423  77.2248226  71.8659677  24.8858672  76.7075720  70.7254044
  24.8327510  76.9263931  71.4763518  23.9136096  74.7287924  53.2068339
  24.2935060  74.7467554  52.4219454  23.1728692  75.1741913  53.0859187
  23.8604933  74.7969699  53.0731908  31.5421386  73.0370116  58.7943918
  31.5415613  72.8818772  59.6528194  31.3377566  73.8833103  58.7385304
  31.5121164  73.1390736  58.9131857  13.6038657  76.4609900  63.2102735
  13.4260418  76.0086509  63.9357650  13.3157679  77.2636061  63.3941212
  13.5351610  76.5132458  63.3446238  29.2662238  77.7167617  62.4480125
  29.7615903  76.9990612  62.4084145  28.4562014  77.4138415  62.3334612
  29.2206131  77.5665264  62.4253851  24.7120850  81.5665431  54.5977129
  23.9032172  81.2432104  54.5510439  25.2195759  80.8598653  54.5305378
  24.6670516  81.4146747  54.5807424  15.3411127  78.9937624  60.3224494
  14.4756646  78.9823314  60.2107265  15.4409943  78.8067847  61.1695633
  15.2285294  78.9643685  60.4313438  31.3314057  80.4671305  65.1357254
  31.7569129  79.9445727  64.5827679  30.9670977  81.0652142  64.6145877
  31.3400660  80.4781532  64.9766263  20.9668137  88.7635522  63.8954599
  21.2814696  89.5771911  63.9032381  21.3761550  88.3785741  64.5636758
  21.0736235  88.8264225  63.9958691  27.9192656  84.1805569  61.4658411
  28.3903835  84.8945832  61.6348396  28.2552835  83.5804319  62.0018281
  28.0387772  84.1977033  61.5690787  30.0069641  85.7906883  73.6450483
  30.1166607  85.0015443  74.0007230  30.3360538  85.7012819  72.8424821
  30.0722047  85.6612735  73.5792874  24.8362151  68.9533040  68.4216506
  24.9690057  68.1564033  68.7497482  25.2207304  69.4799443  69.0014782
  24.9118480  68.9132956  68.5560009  28.5566603  83.9723503  68.2286104
  28.0087549  83.3481387  67.9606169  29.0179632  84.1617775  67.5130183
  28.5433812  83.9082554  68.0836535  27.9094507  65.8763366  65.0197599
  27.1040470  65.7661096  65.3365438  27.7801242  65.9775822  64.1627465
  27.7714639  65.8747036  64.9405640  31.3660467  72.0408858  65.6137296
  30.7823456  72.5418064  65.2014864  31.6864761  71.5338414  64.9801619
  31.3273642  72.0400693  65.4595803  23.9055266  70.9549453  55.8895971
  24.7270961  71.1247765  55.6477666  23.4424917  71.1096714  55.1662269
  23.9586429  71.0031186  55.7467615  22.4950598  68.9492215  66.6694400
  23.0395011  68.6083342  67.2598741  22.5487534  69.8077676  66.8115684
  22.5839718  69.0247474  66.7776273  18.3081157  82.7108631  63.5433208
  18.9126014  82.6704465  62.9147028  18.1008469  83.5579783  63.5737263
  18.3670054  82.8296633  63.4549324  28.1224929  84.9774576  64.7595445
  28.9423303  84.8337542  65.0211740  27.8419007  85.6020775  65.3011883
  28.2021672  85.0484928  64.8783384  13.5432439  81.6943248  63.4132131
  13.4456717  80.8839520  63.7222187  14.3261309  81.6735042  63.0278399
  13.6448576  81.5710339  63.4018994  44.5938579  92.6339428  57.7238321
  44.5632584  93.4884064  57.8956591  45.1919928  92.3334720  58.2824465
  44.6775737  92.7155924  57.8313124  37.7938264  91.7215079  62.4791252
  36.9376160  91.8823577  62.5300369  37.8405918  90.8507143  62.4996313
  37.6737376  91.6165881  62.4897318  32.1779404 101.2577797  58.2428483
  31.4262304 100.8793335  58.0144528  32.6265416 101.2896230  57.4947294
  32.1329071 101.2063404  58.0985986  41.1031981  97.9901604  72.0851708
  41.8098748  97.4953635  72.2138642  41.2919916  98.4310686  71.3554366
  41.2359886  97.9819955  71.9960753  37.6304364 101.6803166  53.6714030
  37.2955732 102.3580088  53.2358253  38.1431234 101.2908477  53.0830902
  37.6569945 101.7227744  53.5200822  37.1708655 103.6317435  59.6125142
  37.5548035 104.2004333  59.0729917  37.1067796 102.9066945  59.1330958
  37.2182082 103.6092898  59.4619005  40.6390085  93.7807123  65.1222903
  41.1846045  94.4592209  65.1816873  40.5806962  93.6394584  64.2624485
  40.7106000  93.8599124  65.0034964  33.7564160 101.2696189  60.5091256
  33.8574523 100.4596543  60.8188384  33.1605905 101.1753135  59.8790934
  33.6836699 101.1361217  60.4617494  42.4155154  95.2091730  55.9956631
  42.2994680  95.9599416  56.4248769  43.2111041  94.9515683  56.2452718
  42.5159743  95.2826577  56.0960723  33.5964900 106.1873778  61.9106112
  34.2402355 106.6286942  62.3002270  33.9221155 105.3827204  61.8236371
  33.7396728 106.1338973  61.9551589  26.9529204  97.2916475  60.1343590
  26.7179389  96.4584128  60.0275858  27.0914845  97.5721141  59.3204790
  26.9384867  97.2099979  59.9985945  29.2519292  89.4602206  63.0327897
  28.6324324  88.8694853  62.8637912  29.1503156  90.0513641  62.3992220
  29.1456967  89.4606288  62.9132887  34.2985480  99.1985753  57.2825974
  34.6201321  99.7390960  56.6787282  34.9457576  98.6282524  57.4148263
  34.4411535  99.1944928  57.2133009  36.3487188  91.2001748  57.3660360
  37.0467352  91.3789875  57.8581824  36.6639520  90.6772087  56.7430750
  36.4982525  91.1495520  57.3462370  28.9788425  93.0054488  65.2771466
  28.8547122  93.5916933  65.9121285  29.6306709  92.5114683  65.5783741
  29.0562074  93.0193292  65.4157396  36.5375123  97.5872193  57.3540152
  36.9768758  96.9789293  57.7994925  36.3879786  97.2079566  56.5825617
  36.5796589  97.4410664  57.3059319  34.0046766  96.1816205  64.5558977
  34.6495768  95.6888648  64.2369926  34.2448543  96.3240991  65.3825056
  34.1357351  96.1293647  64.6308511  36.5432857  99.0271110  64.2065870
  36.8256100  98.2322516  63.9852626  37.2719018  99.5051698  64.2270931
  36.6922421  98.9805707  64.1768885  34.5214051  86.5694144  61.4481635
  34.1917381  87.0205288  60.7785334  33.8459053  86.4910308  61.9954641
  34.3724487  86.6245280  61.4304858  40.1384460  95.9399374  54.3070921
  40.0535755  96.7960341  54.4520490  40.6268843  95.6643698  54.9753080
  40.1973357  96.0256695  54.4273003  41.7290459  82.5579667  59.6931246
  41.4143900  83.2483146  60.1251668  41.2117401  82.5024450  58.9916746
  41.6054929  82.6514556  59.6528195  41.0702893  92.5584168  55.8068656
  40.5414364  92.7743802  56.4665962  41.5927913  93.2520307  55.7269626
  41.0691346  92.6927305  55.8924255  46.5250946  98.1330473  61.1801701
  45.6948649  98.3441116  61.3435117  46.4760198  97.3067527  60.9043984
  46.3957681  98.0420079  61.1639066  32.9602501  96.4547385  54.6076124
  32.3759716  96.9597416  55.0141988  32.5572596  96.2289772  53.8672716
  32.8141804  96.4955633  54.5581149  28.5146529 102.1702146  61.4099796
  28.0314107 102.8952636  61.3859379  29.3269847 102.4678276  61.5209953
  28.5637277 102.3204500  61.4227075  34.5860683 100.9634327  64.0149610
  34.0687625 100.6041742  63.4110918  35.2835074 100.4396501  64.0255676
  34.6126264 100.8332015  63.9279869  38.2424275 101.4129141  69.9765783
  38.3307621 101.2255281  70.8243994  38.6713988 100.7666570  69.5770630
  38.3186378 101.2892149  70.0437535  35.8094735 100.6960301  68.9583445
  35.2465570 100.2832911  69.4823107  36.5715758 100.6213206  69.3776589
  35.8389184 100.6237701  69.0976446  37.4179715  92.7013037  53.0845045
  37.6575719  92.9091021  52.2720388  37.7395556  91.8970546  53.1933989
  37.5016873  92.6127138  52.9805598  32.7270005  84.6306433  56.9304583
  33.4815973  84.9984750  56.6921633  32.5497540  85.0045987  57.6983762
  32.8124484  84.7404621  57.0089471  31.3690726 102.6858322  61.5620076
  32.0711306 102.1710311  61.6192832  31.2888209 103.0132473  62.3666951
  31.4614487 102.6572548  61.6892868  46.0204904  90.7800873  64.9752122
  45.1833325  90.8503060  65.2099716  45.9893135  90.7825368  64.1026424
  45.8923186  90.7911100  64.8811670  32.4169633  92.9233909  70.6900491
  32.5890137  92.8139804  71.5385772  32.9538990  93.5688314  70.4531683
  32.5214637  93.0025911  70.7805587  31.0827070  87.0376752  53.6282696
  30.9002643  87.2548633  52.8023688  31.9452683  87.1515764  53.6841310
  31.1831659  87.0866650  53.5137183  30.6941502  98.8764674  61.0705684
  31.5330401  99.1087607  61.1179445  30.7253271  98.0068985  61.0012719
  30.8223219  98.7821620  61.0670328  31.3194205  99.2965549  65.3718989
  31.8592430  99.1536680  66.0422361  30.6364151  99.6962300  65.7403015
  31.2986359  99.3345220  65.5253411  36.7626789  84.0403162  56.6631719
  37.4912949  83.8619117  56.2169876  36.8521682  84.8821242  56.8738898
  36.8833451  84.1387041  56.6285237  40.7435090  94.9756550  60.5664013
  41.4992605  95.4088064  60.6052922  40.8497414  94.3261320  61.1398649
  40.8705260  94.9434034  60.6562039  43.7815261  98.8029827  61.3166416
  43.3450493  98.8066569  62.0725388  43.4478176  99.4835326  60.8845994
  43.6677881  98.9042283  61.3647249  38.3544334 100.8438160  72.6409567
  39.1384751 100.9569008  73.0065309  38.1540929 100.0179297  72.8368253
  38.4410360 100.7384879  72.7243953  26.7231350  95.5165840  65.5253411
  26.4569765  94.7004957  65.6844401  26.7369914  95.5618996  64.6548926
  26.6856072  95.4022745  65.4206893  43.7012744  85.8443655  63.5595844
  44.3438652  85.9141760  64.1457760  43.9535764  85.1772878  63.0575386
  43.8334876  85.7570004  63.5723124  30.6289097  90.3150924  52.1405169
  29.9147274  90.0289104  52.5527601  31.1133066  90.6547550  52.7811556
  30.5948460  90.3232574  52.2960804  31.4729956  89.0544218  68.1720418
  30.7801753  88.5841198  68.4181150  32.0890284  88.8282523  68.7462125
  31.4614486  88.9511350  68.2929571  38.5114728 102.7548262  66.2876022
  37.7129974 102.5147762  66.5449891  38.9600739 102.8062655  67.0343070
  38.4589339 102.7270653  66.4360947  46.9159607  95.5210747  60.2086054
  47.5776041  94.9601415  60.1081962  46.2751019  95.0262778  60.5338745
  46.9188475  95.3647156  60.2418394  37.8036415  98.8180878  52.5166977
  38.2187563  98.4865902  51.8251473  36.9728344  98.5849781  52.3887114
  37.7424424  98.7352134  52.3957824  27.1324764  96.3024619  62.8065155
  26.9500337  96.2771505  61.9537447  27.8674432  96.7723557  62.8454064
  27.2138827  96.3685982  62.6863073  43.2024438  96.5376129  59.9498042
  43.4380027  96.6821328  59.1224893  43.3514001  97.3018537  60.3429556
  43.2590241  96.6715184  59.8861646  30.1970515  93.0209622  69.3147264
  30.9210488  93.0062653  69.8012158  30.2986652  93.7304978  68.8169232
  30.3188724  93.1234325  69.3126050  45.0314895  95.3777795  57.7867646
  45.3623112  95.9105435  57.1807741  45.6047983  95.4316683  58.4429597
  45.1648574  95.4647364  57.7945428  37.5715465  96.5008707  74.1796211
  36.7788445  96.8152219  74.3648830  37.6864392  96.7160175  73.3416995
  37.4710875  96.5792544  74.0834545  40.2446784  93.2242698  58.4691226
  40.3393638  93.9631992  58.9230852  39.6205627  92.7960173  58.9025791
  40.1655814  93.2704019  58.5999374  38.4999257  96.4028911  69.1181507
  39.0738119  95.7656155  69.2730071  38.4214061  96.4032993  68.2491165
  38.5732492  96.3094022  69.0127918  27.0995674  93.1818120  62.9564221
  27.6769177  93.0454571  63.5956467  26.4009736  92.7253904  63.2109806
  27.0816695  93.0940386  63.0886511  40.4969805  95.0691438  51.7028178
  40.4149967  95.1393625  52.5683165  41.1349525  95.6321182  51.5111919
  40.5789642  95.1630409  51.8018128  33.8562976  94.8352176  61.1702705
  33.5982220  94.0023911  61.1434004  33.9111459  95.0609789  60.3295205
  33.8262754  94.7449947  61.0422841  38.9364026  86.9380626  61.2706797
  38.2320353  86.4489812  61.4290717  38.9849001  86.9503101  60.3995242
  38.8394078  86.8670274  61.1646137  32.8297688  92.3889938  61.6567599
  32.2547280  92.5482107  62.2931560  32.4533365  91.7525347  61.1936050
  32.6900501  92.3187751  61.6822158  36.4970977  90.8613288  66.5159978
  36.1085410  90.4367505  65.8612169  35.8325675  91.1095437  67.0237005
  36.3417905  90.8352009  66.4947846  46.1394246  90.6188292  59.2907808
  45.8830811  89.8068234  59.1005691  46.9823560  90.6265859  59.0637995
  46.2260271  90.5000290  59.2292625  22.5754507  92.0330013  59.6712040
  22.6614759  91.6561881  60.4525570  23.2030305  91.6590459  59.1931998
  22.6811058  91.9215495  59.7157517  40.3197338  84.5587916  64.0283962
  40.7007850  83.8766087  64.4151836  39.5160623  84.2697518  63.8459627
  40.2573800  84.4154965  64.0588018  37.6009915  95.0911892  54.7136785
  38.4150554  95.3826785  54.6019556  37.5369056  94.4371754  54.1395078
  37.7112654  95.0377087  54.6125622  43.8219405  97.7737888  69.1266360
  43.5858043  96.9425953  69.0078421  44.4662634  97.7223495  69.7121205
  43.8814076  97.6435576  69.1952254  33.4717823  98.5633410  59.8409097
  34.1091770  98.3245157  60.3860890  33.8972895  98.7670568  59.1062258
  33.6293990  98.5584420  59.8126254  28.1630466 100.8021746  63.7243401
  28.2034611 101.0736597  62.8963180  28.7224990 101.3263654  64.1401189
  28.2513812 100.9197501  63.6635289  34.1120638  93.7835699  54.1783986
  34.4965791  93.5643406  54.9300531  33.8632259  94.6098645  54.3085063
  34.1322711  93.8733846  54.3085063  34.2789179  87.0642115  73.8946571
  33.9642620  87.8341677  73.6316133  33.9579111  86.5012371  73.3098797
  34.1848098  87.0952383  73.7687920  44.8455826  97.5582337  65.1894655
  44.5401643  98.2910394  65.5507971  44.1262042  97.1520266  64.9087441
  44.6943168  97.6064070  65.2007792  35.8539295  99.0405832  61.5202883
  35.9278304  98.8781004  62.3744733  36.6708802  99.2296022  61.2763365
  35.9855654  99.0442575  61.6100909  50.5457618  94.1975338  64.5162999
  50.4782118  94.2171297  63.6465586  50.5313280  95.0405665  64.7418670
  50.5336375  94.3249072  64.4215476  29.6145052  99.3863695  58.5497327
  28.7883170  99.6325432  58.4231605  29.6757043  99.3075776  59.4159385
  29.5019219  99.4108644  58.6586271  31.8321076  85.4532636  59.5092767
  30.9643501  85.5255235  59.5750376  32.1196280  86.2554715  59.6980742
  31.7460824  85.5826783  59.5467533  40.9553965  85.6010495  67.8404089
  41.7007557  85.4120306  67.4267514  40.5391269  86.1268733  67.2817945
  41.0038939  85.6512641  67.6968662  34.3943881 102.0040575  56.2516357
  34.6842179 101.6129557  55.5275583  35.1247362 102.1857280  56.6921632
  34.5450765 101.9734389  56.2099164  48.3316235  92.9719724  62.7909594
  48.8824157  92.3387793  63.0306686  48.3160351  93.5035117  63.4825098
  48.4101432  92.9568672  62.9288452  34.9838626  96.8058321  67.3369487
  34.4850320  97.5174089  67.4154376  35.7938851  97.1258988  67.2987649
  35.0294733  96.9585170  67.3426056  32.3349797 103.9807958  59.3176506
  32.1150092 103.6905312  60.1103173  32.1144319 103.3222913  58.7894419
  32.2697391 103.8407666  59.3565415  31.2466744  96.0681274  61.5832208
  30.9579992  95.4418745  62.1177935  32.1150092  96.0101562  61.6496888
  31.3326996  95.9668818  61.6723163  42.0344642  91.2116058  61.9014190
  41.6909408  90.4906393  62.2521440  42.1337684  91.0029909  61.0592548
  41.9986684  91.0740261  61.8285870  34.5017752 105.3537348  58.1007199
  35.1541810 104.8213790  58.3298225  33.8043361 105.0006000  58.4875073
  34.4948470 105.2226871  58.1919366  31.4499017  97.7076525  57.5074573
  32.2044985  98.0889564  57.7210036  30.8569630  98.1587669  57.9621270
  31.4735731  97.8305353  57.6057451  42.4957671  97.6741762  57.4438178
  43.0615703  98.3334971  57.3596721  41.8485574  98.0191460  57.9154580
  42.4836427  97.8223703  57.5010934  33.9105684  89.6639366  72.6331785
  33.1005460  89.9697145  72.5221628  34.3880371  90.3844948  72.7484369
  33.8609163  89.8153967  72.6338856  32.7697244  98.8785087  62.8814688
  32.2477997  99.0185378  63.5666553  33.1571264  98.1195751  63.0716806
  32.7500945  98.7870610  63.0115765  29.7588428  88.9290895  56.9509643
  29.4713224  88.5592166  56.2141590  30.4458896  89.3985751  56.6893348
  29.8177325  88.9437865  56.8024719  38.9664249 100.6180546  56.8675257
  38.7250925  99.8848406  56.4602322  39.1465582 101.1667403  56.2141591
  38.9571873 100.5902937  56.7105480  34.1963569  95.9089106  58.2796179
  34.0006352  96.5163840  57.6856482  34.4197915  95.2157050  57.7987853
  34.1998210  95.8966631  58.1212260  32.5942099  92.7943844  58.3977048
  33.3164751  92.9585002  57.9380854  32.1150092  93.5153508  58.2916388
  32.6305830  92.9242073  58.3142662  40.5535607  89.1307642  63.7773733
  39.7146708  89.1568921  63.5411996  40.6239974  89.7778378  64.3579079
  40.4404001  89.2303768  63.8282850  30.2449716  95.2001916  67.5031188
  30.7570813  95.4786169  66.8539947  29.9586059  95.9391210  67.8694001
  30.2784579  95.3504270  67.4621066  39.0004885  86.0293019  58.5101349
  39.7031238  85.8300768  58.0321307  38.7349074  85.2568962  58.8170192
  39.0651518  85.8855985  58.4846790  44.4293131  94.3375629  61.0634975
  44.3427105  94.4931055  61.9169753  43.9743611  94.9813705  60.6894380
  44.3496388  94.4551384  61.1342081  27.3316622  89.7072108  57.7994924
  27.4332759  90.5098269  58.1275900  28.1272509  89.5059444  57.5018005
  27.4644528  89.7958007  57.8030280  33.7633442  87.2928305  67.5632229
  33.5716639  87.3083439  68.4131653  34.6132038  87.4891979  67.5398884
  33.8609163  87.3242656  67.6855524  28.1480355  89.8219286  65.5416046
  28.0065846  88.9703227  65.6660554  28.4320918  89.8647947  64.7178252
  28.1688201  89.7019036  65.4383670  38.3018947  91.6586376  59.6860534
  38.0553661  91.5782127  60.5197323  38.6304070  90.8739844  59.4923062
  38.3140190  91.5312641  59.7808057  42.1966996  98.3669736  63.4747315
  42.0581355  99.0650781  63.9796058  41.4166994  98.2118392  63.1183497
  42.0610223  98.4469902  63.4973589  40.5345081  94.6666111  69.7269697
  40.5293119  93.7945927  69.7312123  41.2406075  94.8654280  69.2539153
  40.6390085  94.5669985  69.6576732  34.2615974  94.3943095  69.0983517
  34.4059350  94.9744303  68.4626627  34.6091623  94.7719391  69.8033372
  34.3343436  94.5363799  69.1082512  36.4335892  93.5933263  66.8808649
  35.6859206  93.7864278  66.4756927  36.5877417  92.7678483  66.6432770
  36.3458319  93.4998375  66.7854055  33.3343729 102.5845867  65.9644544
  33.4833293 102.0248782  65.3117948  34.1143731 102.6637868  66.3477063
  33.4717823 102.5131432  65.9241493  43.6920369  97.7247989  54.2363814
  43.3127177  96.9385127  54.2293104  43.0286614  98.2734846  54.0935459
  43.5378843  97.6892813  54.2144611  35.8597030 102.7560509  67.2429035
  35.7840701 102.0869320  67.7979823  35.7886889 103.4578298  67.7569701
  35.8377637 102.7605417  67.4005883  36.6737669  87.4883814  67.7704052
  37.1310283  88.2207788  67.8976845  36.7493997  87.0650279  68.5291308
  36.7528638  87.5341052  67.9005129  28.9170660  87.7349634  68.8593496
  28.3812849  87.1229992  69.1754263  28.9788425  88.3097770  69.5127163
  28.8466292  87.7296561  69.0028923  41.1464995  80.6673689  61.6397895
  41.2648563  81.1250152  60.9065198  40.9727170  79.8618950  61.3534113
  41.1384165  80.6167461  61.4898829  36.5167277 101.2761508  58.0752641
  37.2817168 101.0071152  57.7535305  36.4145367 100.7911519  58.7922704
  36.6148772 101.1651073  58.1332468  34.5520046  89.4785918  64.6145876
  33.7616121  89.2977378  64.9363212  34.9480669  88.7012870  64.5976171
  34.4936923  89.3373379  64.6598425  39.0385937  98.3073692  50.0552590
  39.8058922  98.3673817  49.6458442  38.5917246  97.7354134  49.5708909
  39.0859365  98.2310268  49.9230300  39.9363733  97.1128348  62.3405322
  39.2608735  96.8813580  62.8418709  39.9456109  96.5049531  61.7147427
  39.8382237  96.9887273  62.3221475  37.0657877  91.9546177  69.0969375
  37.0017018  92.8156133  68.9689512  37.2055065  91.6378170  68.2964927
  37.0773347  92.0346344  68.9597588  41.9380467  99.9693480  54.5715500
  42.0200305 100.7760467  54.2476951  42.4230210  99.9889440  55.2956274
  42.0217625 100.0914143  54.6302399  35.7476971  94.6478316  63.2385578
  35.3239220  94.8482815  62.5024597  35.5721826  93.8007164  63.3509878
  35.6587851  94.5527098  63.1459268  35.2488664 106.1628829  65.7007036
  35.7384594 105.4639618  65.5182700  34.6772896 105.8652699  66.2883093
  35.2373194 106.0155053  65.7608076  31.0359416  95.1430368  58.6713551
  31.1924035  95.0777170  59.5269543  31.3760009  95.9178920  58.4592230
  31.1092650  95.2479566  58.7668145  37.5738560  94.5188251  57.5406914
  38.1154106  94.0158632  58.0045535  37.8885119  94.4653446  56.7296399
  37.7002957  94.4367672  57.4890726  41.4455668  98.7290899  74.6533826
  42.2590533  98.4576047  74.8138959  41.2850634  98.4298439  73.8494022
  41.5425616  98.6445825  74.5579232  35.7425010  99.9105603  54.8246942
  35.8117830  99.0520141  54.9639942  36.5213465 100.1277484  54.4965967
  35.8677860  99.8158467  54.7964099  38.7227830  89.4124556  67.5929214
  38.9369799  88.7735470  67.0392568  38.1061729  89.8570380  67.1637076
  38.6633159  89.3834699  67.4479646  40.1332498 102.3343304  59.0383435
  39.7412289 102.0310019  58.3206302  40.2885570 103.1712394  58.8488389
  40.0986087 102.4127141  58.9039932  27.6093677  92.3265318  58.9874318
  27.9892642  92.7449863  58.3234585  27.0349042  92.9078774  59.2943161
  27.5805002  92.4743177  58.9351059  40.8866918  91.0213621  68.5312522
  40.0743599  90.7139511  68.6125694  41.3456852  90.5412621  69.0955234
  40.8347302  90.9050113  68.6267116  40.2972172  98.8993293  58.9789466
  39.9386827  99.0707936  59.7553498  39.8110883  99.3606499  58.4217464
  40.1730869  98.9932264  59.0114735  38.1142558  82.5224491  62.5816557
  37.2436116  82.4963213  62.5349867  38.3682900  82.3501684  61.7642403
  38.0236118  82.4934635  62.4536694  35.0860538  94.5792458  51.5189700
  35.3753063  95.3557341  51.7933275  35.1732337  94.0681190  52.2204200
  35.1414794  94.6184377  51.6632198  37.9820425  92.4273692  73.3141224
  38.4520056  93.0515809  73.7009098  38.0282305  91.7590668  73.8734439
  38.0588301  92.4208373  73.4541295  35.1391699  84.5330720  64.0390028
  34.6230187  83.8410911  64.1641607  34.5785628  85.2001497  63.9852626
  34.9798212  84.5293977  64.0496094  37.2083932  85.0723680  65.8682880
  36.8215685  85.0972711  66.6496410  36.7216870  84.5065359  65.4157397
  37.0796441  84.9919431  65.9170784  41.4576912  99.7897189  69.9256667
  42.0956632  99.2957385  69.5919123  40.8151003  99.7174589  69.3408894
  41.4571138  99.7056197  69.7899022  43.1833912  91.6386335  64.4922582
  42.7561520  91.5512683  63.7370682  42.5459965  91.7464110  65.0777426
  43.0263519  91.6418995  64.4668024  36.8741074  81.9590665  68.1593140
  37.5034192  82.4950965  67.8814210  37.0426937  81.8668024  69.0106706
  36.9918869  82.0252028  68.2441668  36.6754989  86.7461860  70.4319552
  37.5028418  86.4747009  70.4878166  36.6962835  87.5422702  70.7883370
  36.8007839  86.8241614  70.4934735  41.5131168 100.4816997  66.5662024
  42.3023546 100.1306062  66.6864105  41.6874766 101.2953386  66.3038657
  41.6551450 100.5502854  66.5449892  31.2524479  93.8925723  63.6189812
  30.4112485  93.7929597  63.8268706  31.4614487  94.6621203  63.9704133
  31.1589171  93.9917766  63.7017127  28.7300046  91.5145260  61.4474563
  28.3356743  91.5888272  60.6724673  28.1740163  91.9003206  61.9982925
  28.5902858  91.5827034  61.4142223  40.3664992  84.4926554  61.1278442
  40.5714586  84.4248862  61.9735439  40.0391416  85.2985375  61.0599619
  40.3480240  84.6012494  61.2438097  35.0641144  91.8207122  62.8687410
  34.7604281  91.2663110  63.4697818  34.3620564  91.9999332  62.3815444
  34.9157353  91.7651904  62.8857116  34.1207241  89.1307642  57.4332112
  34.3966975  88.4126554  57.0209679  34.7205910  89.7292562  57.2253218
  34.2500505  89.1128013  57.3412873  33.1259495  99.0356843  67.5759508
  33.0179849  99.0458905  68.4421566  33.3355276  99.8611623  67.3864461
  33.1409606  99.1597918  67.6763599  43.6198680  85.0458318  60.6081207
  43.0072994  85.5328720  60.9934939  43.7162855  84.3701809  61.1518859
  43.5436578  85.0176627  60.7460066  37.6217761  86.8021159  55.7078707
  38.0761508  86.9731720  56.4326551  38.0957807  86.1889270  55.3076482
  37.7586081  86.7372044  55.7552468  31.1433287  96.2869485  65.0381445
  30.5521220  96.9278983  65.0084460  31.9054310  96.7107102  65.0112745
  31.1681547  96.4445324  65.0296592  31.5393909  87.4471483  65.7049463
  31.9995391  87.5210412  66.4424587  31.5850016  88.2452737  65.3549284
  31.6144465  87.5765630  65.7622219  33.1877259  88.1138178  70.2721490
  32.7962824  87.4671525  70.7077268  33.3563122  88.7049613  70.8915745
  33.1548169  88.1052446  70.4284196  47.2623708  96.1175255  66.0358724
  47.3206832  96.5661904  66.7818700  46.6290176  96.5274068  65.5988804
  47.1775003  96.2448990  66.0811272  40.9022803 101.7378797  62.4713470
  40.7042491 102.2269611  61.7769681  40.2810514 101.9420038  63.0497603
  40.7810367 101.8395335  62.4536693  34.9630781  93.5063694  56.8123714
  35.7072826  93.8937970  57.0506664  35.1091477  92.6621119  56.9764202
  35.0941366  93.4394166  56.8717684  36.8810357  85.3013953  61.8455575
  36.0346402  85.4736760  61.7196925  36.8781489  84.4963296  62.1821404
  36.7557507  85.2074981  61.8766702  37.9508657  89.0789167  62.7117633
  37.4768611  88.5530929  63.2222944  38.3226793  88.5318640  62.1432495
  37.9358546  88.9205164  62.7032781  28.3281687  91.0760674  68.0801179
  29.1907300  90.9756383  67.9938509  27.9973470  90.4955383  67.5186751
  28.4066884  90.9752300  67.9846585  44.2145388  94.1391543  64.1224414
  43.9743610  93.2997958  64.1266840  44.6937395  94.2191709  64.8465187
  44.2497571  94.0272942  64.2299216  39.8792157  89.9725722  55.7743387
  39.3515175  90.0554465  55.0849096  40.3387865  90.7143593  55.7708032
  39.8694007  90.0946384  55.6718082  46.2150575  90.9193000  62.0753673
  45.9760345  90.8788834  61.2374458  46.3784476  91.7664152  62.2019394
  46.2040878  91.0385085  61.9707155  42.8196605  95.3042949  68.0058718
  43.5430804  94.8515476  67.8269738  42.5546567  95.5847615  67.2231046
  42.8877878  95.2793918  67.8637433  31.6883473  89.9003123  64.7411597
  31.0636543  89.9121515  64.1337550  31.3529068  90.3763298  65.3902837
  31.5468965  89.9721640  64.7468166  31.8725222  88.2428241  50.7984282
  31.5238026  88.8947966  51.2615832  31.3921668  88.2285354  50.0708153
  31.7495466  88.3371295  50.7595374  28.4009149  97.9603583  66.1815362
  27.8709073  97.2696022  66.2310336  28.6734242  97.9513768  65.3528070
  28.3633871  97.8570715  66.0662778  39.4329239  98.5429285  54.9053044
  40.1563438  99.0087398  54.7617617  38.9929830  98.6102895  54.1550641
  39.4744931  98.6213122  54.7737826  38.6015394  95.4026827  66.1553733
  37.9872387  94.8584878  66.4502368  39.1182679  94.8891064  65.6759549
  38.5871057  95.2463236  66.1277962  37.8411691  96.4731097  63.8898032
  37.4139299  95.8480816  63.4563467  37.8336636  96.1906019  64.7157039
  37.7770833  96.3383878  63.9477859  30.9574219  91.5096270  66.9586466
  31.1167705  90.7539595  67.3638188  30.7767112  92.0587210  67.6127203
  30.9539577  91.4790084  67.1149172  38.8994521  83.6757506  67.5137255
  38.4035083  83.8721180  66.8228822  39.6563584  84.0750174  67.3426057
  38.9381346  83.7635240  67.3857392  36.1697401  87.3499852  64.1040566
  36.1939888  86.8159964  63.4153346  36.4208875  86.8417161  64.7666156
  36.2107320  87.1960756  64.1005210  23.6804991  94.6331347  63.5383710
  23.5748440  94.5878191  62.6735794  22.9305211  94.9785127  63.8197995
  23.5540594  94.6772255  63.4521040  32.4498723  86.0770670  63.4846310
  32.4897095  86.5779877  64.1981018  31.6248388  86.1681064  63.2152233
  32.3338249  86.1652486  63.5496848  34.6328336  95.6431410  71.5866605
  33.7823967  95.7803124  71.7224250  34.7956464  94.9095188  72.0314306
  34.5312200  95.5545511  71.6722204  33.8713087  92.5931180  65.7820209
  33.0405016  92.7604998  65.5755457  33.8164604  92.2167131  66.5669094
  33.7402502  92.5620911  65.8668737  31.6796870  86.0840073  71.4176620
  32.3049573  85.5402206  71.6906052  31.2247350  85.6034990  70.8484410
  31.7045131  85.9329554  71.3738214  32.2449131  90.8686772  56.3110327
  32.3852092  91.3659236  57.0138968  32.7431663  90.1673066  56.4524540
  32.3390211  90.8388750  56.4361906  32.2749353  91.7353883  53.6402904
  32.9094432  92.3314308  53.5752365  32.3574964  91.4357340  54.4548774
  32.3805904  91.7794791  53.7505990  45.2531919  94.2669360  66.5089268
  45.8449759  94.9066611  66.5407466  45.6890913  93.5692397  66.7981335
  45.4050350  94.2587710  66.5570100  33.8528336  87.6667858  53.6148346
  34.1744177  87.1870940  52.9607608  34.1155280  88.4767504  53.4239157
  33.9394361  87.7157756  53.4903838  37.0825309  98.6886732  67.1347162
  36.5750400  99.2422579  67.5787792  36.7851955  98.7495022  66.3165936
  36.9630194  98.7793043  67.0795618  39.2487491  87.0540052  65.9771825
  39.6742562  86.6012578  65.3655351  38.6344484  86.5000123  66.2536612
  39.2216136  86.9054028  65.9276850  28.7802341  93.9321723  56.9092450
  29.2894570  94.5286231  57.2903755  29.2536613  93.6647697  56.2268869
  28.9245716  93.9807539  56.8646972  39.6933089 102.6049990  55.0651105
  38.9762399 102.4310852  54.5998343  40.3439826 102.3702562  54.5326591
  39.6834939 102.5445782  54.9180323  37.6881714  83.5255152  59.3862402
  37.0450032  83.3752798  59.9547540  37.3481121  83.2797497  58.6211506
  37.5426791  83.4667274  59.3565417  42.2781060  91.4814579  58.8092410
  41.6072250  92.0244281  58.6805476  42.9720810  91.9509434  58.5674105
  42.2809928  91.6312850  58.7547938  36.3267794 103.6211291  64.0404169
  36.1033448 102.8630120  64.4088195  35.8377637 103.6509312  63.3184608
  36.2211243 103.5133515  63.9880910  42.4409188  87.9370462  61.7182784
  42.7936798  87.5100185  62.3928582  41.5823989  87.8521306  61.8483860
  42.3658632  87.8615203  61.8377794  31.1392873  90.5677982  59.7765630
  30.4204862  90.9842114  60.0438494  31.5105235  91.1332221  59.2257268
  31.0884804  90.7127263  59.7348437  40.4392453  91.2005831  65.6667626
  40.4190381  91.0189126  66.5202405  40.4871654  92.0717849  65.6427209
  40.4427094  91.3022369  65.7890921  38.3838783  97.7893023  71.5916102
  38.3434638  97.1442700  71.0061258  39.1962101  97.7329640  71.9041514
  38.4981937  97.6851990  71.5513052  34.9746251 103.8411749  61.4941253
  34.5606649 103.1785879  61.1045095  35.6593625 103.9889607  60.9736947
  35.0144622 103.7652407  61.3597750  38.3411545 103.0001834  62.2464870
  37.9427828 103.1104104  61.4785690  37.7262764 103.2083900  62.8291430
  38.1910434 103.0475402  62.2196169  36.9139447  89.6075982  55.1139010
  36.3204286  89.9292978  54.5623577  36.9514725  88.7617077  54.9060116
  36.8313836  89.5300310  55.0021781  43.8733248  83.0588874  62.6467096
  43.3664112  82.3518014  62.5788274  44.6700681  82.7282063  62.7768173
  43.9160487  82.9062025  62.6566091  39.7897263  89.5655486  58.5440760
  39.5610957  89.5888188  57.7019118  40.0495340  88.7412953  58.6635770
  39.7943452  89.4471566  58.4365957  34.0716492  91.4189959  68.1465860
  33.5595395  90.8111142  68.5050891  33.8995988  92.1346552  68.6139836
  33.9706129  91.4353259  68.2682084  28.9182207  89.8627535  70.7968222
  28.7484797  90.5228909  70.2516428  28.4748157  90.0734096  71.5180711
  28.8281540  89.9913517  70.8229851  32.8442026  88.1032033  59.8394955
  33.3199392  88.4649112  59.2045137  32.3430626  88.7588500  60.1195098
  32.8407385  88.2526221  59.7871696  46.0753388  97.5753801  55.6307960
  46.4586993  98.3245157  55.8606057  45.2797501  97.8219620  55.3719950
  46.0147170  97.7223494  55.6265534  37.9485562  89.3414204  70.5868116
  38.5056992  89.1128013  69.9546581  37.6246627  90.1019870  70.3103328
  37.9831972  89.4198041  70.4524613  25.8184271  92.7674400  66.0556712
  25.2710991  92.0975046  66.1737580  26.6076649  92.4004248  66.1200179
  25.8536455  92.6139387  66.0825412  35.6668680  92.4281857  71.5520123
  36.4180007  92.7433534  71.8659677  35.8591256  92.2261028  70.7254044
  35.8060094  92.4449239  71.4763518  34.8868679  90.2473232  53.2068339
  35.2667644  90.2652862  52.4219454  34.1461275  90.6927221  53.0859187
  34.8337517  90.3155007  53.0731908  42.5153970  88.5555424  58.7943918
  42.5148196  88.4004080  59.6528194  42.3110150  89.4018411  58.7385304
  42.4853748  88.6576044  58.9131857  24.5771241  91.9795208  63.2102735
  24.3993002  91.5271817  63.9357650  24.2890263  92.7821369  63.3941212
  24.5084194  92.0317766  63.3446238  40.2394822  93.2352925  62.4480125
  40.7348487  92.5175920  62.4084145  39.4294597  92.9323723  62.3334612
  40.1938715  93.0850572  62.4253851  35.6853433  97.0850739  54.5977129
  34.8764756  96.7617412  54.5510439  36.1928342  96.3783961  54.5305378
  35.6403100  96.9332055  54.5807424  26.3143710  94.5122932  60.3224494
  25.4489230  94.5008622  60.2107265  26.4142526  94.3253155  61.1695633
  26.2017877  94.4828993  60.4313438  42.3046641  95.9856613  65.1357254
  42.7301712  95.4631035  64.5827679  41.9403560  96.5837450  64.6145877
  42.3133243  95.9966840  64.9766263  31.9400720 104.2820830  63.8954599
  32.2547279 105.0957219  63.9032381  32.3494134 103.8971049  64.5636758
  32.0468818 104.3449533  63.9958691  38.8925240  99.6990877  61.4658411
  39.3636418 100.4131140  61.6348396  39.2285419  99.0989627  62.0018281
  39.0120355  99.7162341  61.5690787  40.9802225 101.3092190  73.6450483
  41.0899190 100.5200751  74.0007230  41.3093121 101.2198127  72.8424821
  41.0454630 101.1798043  73.5792874  35.8094735  84.4718348  68.4216506
  35.9422641  83.6749341  68.7497482  36.1939888  84.9984751  69.0014782
  35.8851064  84.4318264  68.5560009  39.5299186  99.4908811  68.2286104
  38.9820132  98.8666695  67.9606169  39.9912215  99.6803083  67.5130183
  39.5166396  99.4267861  68.0836535  38.8827090  81.3948674  65.0197599
  38.0773054  81.2846403  65.3365438  38.7533826  81.4961130  64.1627465
  38.7447223  81.3932344  64.9405640  42.3393051  87.5594166  65.6137296
  41.7556040  88.0603372  65.2014864  42.6597345  87.0523722  64.9801619
  42.3006226  87.5586001  65.4595803  34.8787850  86.4734761  55.8895971
  35.7003544  86.6433073  55.6477666  34.4157501  86.6282022  55.1662269
  34.9319012  86.5216494  55.7467615  33.4683182  84.4677523  66.6694400
  34.0127595  84.1268650  67.2598741  33.5220117  85.3262984  66.8115684
  33.5572301  84.5432782  66.7776273  29.2813741  98.2293939  63.5433208
  29.8858598  98.1889773  62.9147028  29.0741053  99.0765091  63.5737263
  29.3402638  98.3481941  63.4549324  39.0957513 100.4959884  64.7595445
  39.9155886 100.3522850  65.0211740  38.8151590 101.1206083  65.3011883
  39.1754256 100.5670236  64.8783384  24.5165023  97.2128556  63.4132131
  24.4189301  96.4024828  63.7222187  25.2993893  97.1920350  63.0278399
  24.6181159  97.0895646  63.4018994  55.5671163 108.1524736  57.7238321
  55.5365167 109.0069372  57.8956591  56.1652512 107.8520028  58.2824465
  55.6508321 108.2341232  57.8313124  48.7670848 107.2400387  62.4791252
  47.9108743 107.4008885  62.5300369  48.8138502 106.3692451  62.4996313
  48.6469959 107.1351189  62.4897318  43.1511988 116.7763105  58.2428483
  42.3994887 116.3978643  58.0144528  43.5997999 116.8081538  57.4947294
  43.1061654 116.7248712  58.0985986  52.0764564 113.5086912  72.0851708
  52.7831332 113.0138943  72.2138642  52.2652500 113.9495994  71.3554366
  52.2092470 113.5005263  71.9960753  48.6036947 117.1988474  53.6714030
  48.2688316 117.8765396  53.2358253  49.1163818 116.8093785  53.0830902
  48.6302529 117.2413052  53.5200822  48.1441239 119.1502743  59.6125142
  48.5280618 119.7189641  59.0729917  48.0800380 118.4252253  59.1330958
  48.1914666 119.1278206  59.4619005  51.6122669 109.2992431  65.1222903
  52.1578629 109.9777517  65.1816873  51.5539545 109.1579891  64.2624485
  51.6838583 109.3784432  65.0034964  44.7296744 116.7881497  60.5091256
  44.8307107 115.9781851  60.8188384  44.1338489 116.6938443  59.8790934
  44.6569282 116.6546525  60.4617494  53.3887738 110.7277038  55.9956631
  53.2727263 111.4784724  56.4248769  54.1843624 110.4700991  56.2452718
  53.4892327 110.8011885  56.0960723  44.5697483 121.7059086  61.9106112
  45.2134939 122.1472250  62.3002270  44.8953739 120.9012512  61.8236371
  44.7129312 121.6524281  61.9551589  37.9261788 112.8101783  60.1343590
  37.6911972 111.9769436  60.0275858  38.0647429 113.0906449  59.3204790
  37.9117451 112.7285287  59.9985945  40.2251876 104.9787514  63.0327897
  39.6056907 104.3880161  62.8637912  40.1235739 105.5698949  62.3992220
  40.1189551 104.9791596  62.9132887  45.2718063 114.7171061  57.2825974
  45.5933904 115.2576268  56.6787282  45.9190160 114.1467832  57.4148263
  45.4144118 114.7130236  57.2133009  47.3219771 106.7187056  57.3660360
  48.0199936 106.8975183  57.8581824  47.6372104 106.1957395  56.7430750
  47.4715108 106.6680828  57.3462370  39.9521009 108.5239796  65.2771466
  39.8279705 109.1102241  65.9121285  40.6039293 108.0299991  65.5783741
  40.0294658 108.5378600  65.4157396  47.5107707 113.1057501  57.3540152
  47.9501342 112.4974601  57.7994925  47.3612369 112.7264874  56.5825617
  47.5529172 112.9595972  57.3059319  44.9779350 111.7001513  64.5558977
  45.6228352 111.2073956  64.2369926  45.2181127 111.8426299  65.3825056
  45.1089935 111.6478955  64.6308511  47.5165441 114.5456418  64.2065870
  47.7988684 113.7507824  63.9852626  48.2451601 115.0237006  64.2270931
  47.6655005 114.4991015  64.1768885  45.4946635 102.0879452  61.4481635
  45.1649965 102.5390596  60.7785334  44.8191637 102.0095616  61.9954641
  45.3457071 102.1430588  61.4304858  51.1117043 111.4584682  54.3070921
  51.0268338 112.3145649  54.4520490  51.6001426 111.1829006  54.9753080
  51.1705940 111.5442003  54.4273003  52.7023042  98.0764975  59.6931246
  52.3876483  98.7668454  60.1251668  52.1849984  98.0209757  58.9916746
  52.5787513  98.1699864  59.6528195  52.0435476 108.0769476  55.8068656
  51.5146948 108.2929110  56.4665962  52.5660496 108.7705615  55.7269626
  52.0423929 108.2112613  55.8924255  57.4983529 113.6515781  61.1801701
  56.6681232 113.8626424  61.3435117  57.4492782 112.8252835  60.9043984
  57.3690265 113.5605387  61.1639066  43.9335084 111.9732693  54.6076124
  43.3492299 112.4782724  55.0141988  43.5305179 111.7475080  53.8672716
  43.7874388 112.0140941  54.5581149  39.4879113 117.6887454  61.4099796
  39.0046691 118.4137944  61.3859379  40.3002431 117.9863584  61.5209953
  39.5369860 117.8389808  61.4227075  45.5593267 116.4819635  64.0149610
  45.0420208 116.1227050  63.4110918  46.2567658 115.9581809  64.0255676
  45.5858848 116.3517323  63.9279869  49.2156859 116.9314449  69.9765783
  49.3040205 116.7440589  70.8243994  49.6446571 116.2851878  69.5770630
  49.2918961 116.8077457  70.0437535  46.7827319 116.2145609  68.9583445
  46.2198153 115.8018219  69.4823107  47.5448342 116.1398514  69.3776589
  46.8121767 116.1423009  69.0976446  48.3912299 108.2198345  53.0845045
  48.6308302 108.4276329  52.2720388  48.7128140 107.4155854  53.1933989
  48.4749456 108.1312446  52.9805598  43.7002589 100.1491741  56.9304583
  44.4548557 100.5170058  56.6921633  43.5230123 100.5231295  57.6983762
  43.7857067 100.2589929  57.0089471  42.3423310 118.2043630  61.5620076
  43.0443889 117.6895619  61.6192832  42.2620793 118.5317781  62.3666951
  42.4347070 118.1757856  61.6892868  56.9937488 106.2986181  64.9752122
  56.1565909 106.3688368  65.2099716  56.9625718 106.3010676  64.1026424
  56.8655770 106.3096408  64.8811670  43.3902217 108.4419217  70.6900491
  43.5622720 108.3325112  71.5385772  43.9271574 109.0873622  70.4531683
  43.4947221 108.5211219  70.7805587  42.0559653 102.5562060  53.6282696
  41.8735227 102.7733941  52.8023688  42.9185266 102.6701072  53.6841310
  42.1564243 102.6051958  53.5137183  41.6674085 114.3949982  61.0705684
  42.5062985 114.6272915  61.1179445  41.6985855 113.5254293  61.0012719
  41.7955803 114.3006928  61.0670328  42.2926788 114.8150857  65.3718989
  42.8325013 114.6721988  66.0422361  41.6096735 115.2147608  65.7403015
  42.2718942 114.8530528  65.5253411  47.7359373  99.5588470  56.6631719
  48.4645533  99.3804425  56.2169876  47.8254266 100.4006550  56.8738898
  47.8566035  99.6572349  56.6285237  51.7167673 110.4941858  60.5664013
  52.4725188 110.9273372  60.6052922  51.8229998 109.8446627  61.1398649
  51.8437844 110.4619342  60.6562039  54.7547844 114.3215135  61.3166416
  54.3183076 114.3251877  62.0725388  54.4210760 115.0020634  60.8845994
  54.6410464 114.4227591  61.3647249  49.3276918 116.3623468  72.6409567
  50.1117335 116.4754316  73.0065309  49.1273513 115.5364605  72.8368253
  49.4142943 116.2570187  72.7243953  37.6963933 111.0351148  65.5253411
  37.4302349 110.2190265  65.6844401  37.7102498 111.0804303  64.6548926
  37.6588656 110.9208053  65.4206893  54.6745327 101.3628963  63.5595844
  55.3171236 101.4327067  64.1457760  54.9268348 100.6958186  63.0575386
  54.8067459 101.2755311  63.5723124  41.6021680 105.8336232  52.1405169
  40.8879858 105.5474412  52.5527601  42.0865649 106.1732858  52.7811556
  41.5681044 105.8417882  52.2960804  42.4462540 104.5729526  68.1720418
  41.7534337 104.1026506  68.4181150  43.0622867 104.3467831  68.7462125
  42.4347070 104.4696658  68.2929571  49.4847311 118.2733570  66.2876022
  48.6862557 118.0333070  66.5449891  49.9333323 118.3247963  67.0343070
  49.4321923 118.2455961  66.4360947  57.8892191 111.0396055  60.2086054
  58.5508625 110.4786723  60.1081962  57.2483603 110.5448086  60.5338745
  57.8921058 110.8832464  60.2418394  48.7768998 114.3366186  52.5166977
  49.1920147 114.0051210  51.8251473  47.9460928 114.1035089  52.3887114
  48.7157007 114.2537442  52.3957824  38.1057347 111.8209927  62.8065155
  37.9232920 111.7956813  61.9537447  38.8407016 112.2908865  62.8454064
  38.1871411 111.8871290  62.6863073  54.1757021 112.0561437  59.9498042
  54.4112611 112.2006636  59.1224893  54.3246585 112.8203845  60.3429556
  54.2322825 112.1900492  59.8861646  41.1703099 108.5394930  69.3147264
  41.8943071 108.5247961  69.8012158  41.2719235 109.2490285  68.8169232
  41.2921308 108.6419633  69.3126050  56.0047478 110.8963103  57.7867646
  56.3355695 111.4290743  57.1807741  56.5780566 110.9501991  58.4429597
  56.1381157 110.9832672  57.7945428  48.5448048 112.0194015  74.1796211
  47.7521029 112.3337527  74.3648830  48.6596975 112.2345483  73.3416995
  48.4443459 112.0977852  74.0834545  51.2179367 108.7428006  58.4691226
  51.3126222 109.4817300  58.9230852  50.5938211 108.3145481  58.9025791
  51.1388397 108.7889327  58.5999374  49.4731841 111.9214219  69.1181507
  50.0470703 111.2841463  69.2730071  49.3946645 111.9218301  68.2491165
  49.5465076 111.8279330  69.0127918  38.0728257 108.7003428  62.9564221
  38.6501760 108.5639879  63.5956467  37.3742319 108.2439212  63.2109806
  38.0549279 108.6125694  63.0886511  51.4702389 110.5876746  51.7028178
  51.3882551 110.6578933  52.5683165  52.1082109 111.1506490  51.5111919
  51.5522226 110.6815717  51.8018128  44.8295560 110.3537484  61.1702705
  44.5714804 109.5209219  61.1434004  44.8844042 110.5795097  60.3295205
  44.7995338 110.2635255  61.0422841  49.9096610 102.4565934  61.2706797
  49.2052937 101.9675120  61.4290717  49.9581584 102.4688409  60.3995242
  49.8126661 102.3855582  61.1646137  43.8030272 107.9075246  61.6567599
  43.2279863 108.0667415  62.2931560  43.4265948 107.2710655  61.1936050
  43.6633084 107.8373059  61.6822158  47.4703560 106.3798595  66.5159978
  47.0817993 105.9552813  65.8612169  46.8058259 106.6280745  67.0237005
  47.3150488 106.3537317  66.4947846  57.1126830 106.1373600  59.2907808
  56.8563394 105.3253542  59.1005691  57.9556144 106.1451167  59.0637995
  57.1992855 106.0185598  59.2292625  33.5487091 107.5515321  59.6712040
  33.6347343 107.1747189  60.4525570  34.1762888 107.1775767  59.1931998
  33.6543642 107.4400803  59.7157517  51.2929922 100.0773224  64.0283962
  51.6740434  99.3951395  64.4151836  50.4893206  99.7882826  63.8459627
  51.2306384  99.9340273  64.0588018  48.5742499 110.6097200  54.7136785
  49.3883138 110.9012093  54.6019556  48.5101640 109.9557062  54.1395078
  48.6845238 110.5562395  54.6125622  54.7951989 113.2923196  69.1266360
  54.5590626 112.4611261  69.0078421  55.4395218 113.2408803  69.7121205
  54.8546660 113.1620884  69.1952254  44.4450407 114.0818717  59.8409097
  45.0824354 113.8430465  60.3860890  44.8705479 114.2855876  59.1062258
  44.6026573 114.0769728  59.8126254  39.1363049 116.3207054  63.7243401
  39.1767195 116.5921905  62.8963180  39.6957573 116.8448962  64.1401189
  39.2246395 116.4382809  63.6635289  45.0853222 109.3021007  54.1783986
  45.4698375 109.0828714  54.9300531  44.8364842 110.1283953  54.3085063
  45.1055295 109.3919153  54.3085063  45.2521762 102.5827422  73.8946571
  44.9375203 103.3526985  73.6316133  44.9311695 102.0197678  73.3098797
  45.1580681 102.6137691  73.7687920  55.8188410 113.0767645  65.1894655
  55.5134227 113.8095702  65.5507971  55.0994625 112.6705574  64.9087441
  55.6675752 113.1249378  65.2007792  46.8271879 114.5591140  61.5202883
  46.9010887 114.3966312  62.3744733  47.6441385 114.7481330  61.2763365
  46.9588238 114.5627882  61.6100909  61.5190202 109.7160646  64.5162999
  61.4514702 109.7356605  63.6465586  61.5045864 110.5590973  64.7418670
  61.5068958 109.8434380  64.4215476  40.5877636 114.9049003  58.5497327
  39.7615753 115.1510740  58.4231605  40.6489627 114.8261084  59.4159385
  40.4751803 114.9293952  58.6586271  42.8053659 100.9717944  59.5092767
  41.9376085 101.0440543  59.5750376  43.0928864 101.7740023  59.6980742
  42.7193407 101.1012091  59.5467533  51.9286548 101.1195803  67.8404089
  52.6740140 100.9305614  67.4267514  51.5123853 101.6454041  67.2817945
  51.9771522 101.1697949  67.6968662  45.3676465 117.5225883  56.2516357
  45.6574763 117.1314864  55.5275583  46.0979945 117.7042588  56.6921632
  45.5183349 117.4919697  56.2099164  59.3048819 108.4905032  62.7909594
  59.8556741 107.8573101  63.0306686  59.2892934 109.0220425  63.4825098
  59.3834015 108.4753980  62.9288452  45.9571210 112.3243629  67.3369487
  45.4582903 113.0359397  67.4154376  46.7671434 112.6444296  67.2987649
  46.0027317 112.4770478  67.3426056  43.3082380 119.4993266  59.3176506
  43.0882676 119.2090620  60.1103173  43.0876902 118.8408221  58.7894419
  43.2429974 119.3592974  59.3565415  42.2199327 111.5866582  61.5832208
  41.9312576 110.9604053  62.1177935  43.0882675 111.5286869  61.6496888
  42.3059579 111.4854126  61.6723163  53.0077225 106.7301365  61.9014190
  52.6641991 106.0091701  62.2521440  53.1070268 106.5215217  61.0592548
  52.9719268 106.5925569  61.8285870  45.4750336 120.8722656  58.1007199
  46.1274394 120.3399098  58.3298225  44.7775945 120.5191308  58.4875073
  45.4681054 120.7412178  58.1919366  42.4231601 113.2261833  57.5074573
  43.1777569 113.6074872  57.7210036  41.8302213 113.6772977  57.9621270
  42.4468314 113.3490661  57.6057451  53.4690254 113.1927070  57.4438178
  54.0348287 113.8520279  57.3596721  52.8218158 113.5376768  57.9154580
  53.4569011 113.3409011  57.5010934  44.8838268 105.1824673  72.6331785
  44.0738044 105.4882453  72.5221628  45.3612955 105.9030256  72.7484369
  44.8341747 105.3339275  72.6338856  43.7429827 114.3970394  62.8814688
  43.2210581 114.5370686  63.5666553  44.1303848 113.6381059  63.0716806
  43.7233528 114.3055918  63.0115765  40.7321011 104.4476203  56.9509643
  40.4445807 104.0777474  56.2141590  41.4191480 104.9171059  56.6893348
  40.7909909 104.4623173  56.8024719  49.9396832 116.1365854  56.8675257
  49.6983508 115.4033714  56.4602322  50.1198165 116.6852711  56.2141591
  49.9304456 116.1088245  56.7105480  45.1696153 111.4274414  58.2796179
  44.9738936 112.0349148  57.6856482  45.3930499 110.7342358  57.7987853
  45.1730794 111.4151939  58.1212260  43.5674683 108.3129151  58.3977048
  44.2897335 108.4770310  57.9380854  43.0882676 109.0338816  58.2916388
  43.6038414 108.4427381  58.3142662  51.5268191 104.6492950  63.7773733
  50.6879291 104.6754229  63.5411996  51.5972558 105.2963686  64.3579079
  51.4136584 104.7489076  63.8282850  41.2182300 110.7187224  67.5031188
  41.7303397 110.9971477  66.8539947  40.9318642 111.4576518  67.8694001
  41.2517163 110.8689578  67.4621066  49.9737469 101.5478327  58.5101349
  50.6763822 101.3486076  58.0321307  49.7081658 100.7754270  58.8170192
  50.0384101 101.4041293  58.4846790  55.4025714 109.8560937  61.0634975
  55.3159689 110.0116363  61.9169753  54.9476194 110.4999013  60.6894380
  55.3228971 109.9736692  61.1342081  38.3049206 105.2257416  57.7994924
  38.4065342 106.0283577  58.1275900  39.1005093 105.0244752  57.5018005
  38.4377112 105.3143314  57.8030280  44.7366025 102.8113612  67.5632229
  44.5449222 102.8268747  68.4131653  45.5864621 103.0077287  67.5398884
  44.8341747 102.8427964  67.6855524  39.1212938 105.3404594  65.5416046
  38.9798430 104.4888535  65.6660554  39.4053502 105.3833255  64.7178252
  39.1420784 105.2204344  65.4383670  49.2751531 107.1771684  59.6860534
  49.0286245 107.0967435  60.5197323  49.6036654 106.3925152  59.4923062
  49.2872774 107.0497949  59.7808057  53.1699579 113.8855043  63.4747315
  53.0313939 114.5836089  63.9796058  52.3899577 113.7303700  63.1183497
  53.0342806 113.9655210  63.4973589  51.5077664 110.1851419  69.7269697
  51.5025703 109.3131235  69.7312123  52.2138658 110.3839588  69.2539153
  51.6122668 110.0855293  69.6576732  45.2348558 109.9128403  69.0983517
  45.3791934 110.4929611  68.4626627  45.5824206 110.2904699  69.8033372
  45.3076019 110.0549107  69.1082512  47.4068475 109.1118571  66.8808649
  46.6591789 109.3049585  66.4756927  47.5610000 108.2863791  66.6432770
  47.3190903 109.0183682  66.7854055  44.3076313 118.1031174  65.9644544
  44.4565877 117.5434090  65.3117948  45.0876315 118.1823176  66.3477063
  44.4450406 118.0316740  65.9241493  54.6652952 113.2433297  54.2363814
  54.2859761 112.4570435  54.2293104  54.0019198 113.7920154  54.0935459
  54.5111427 113.2078121  54.2144611  46.8329613 118.2745817  67.2429035
  46.7573285 117.6054628  67.7979823  46.7619473 118.9763606  67.7569701
  46.8110220 118.2790725  67.4005883  47.6470252 103.0069122  67.7704052
  48.1042866 103.7393096  67.8976845  47.7226581 102.5835587  68.5291308
  47.7261222 103.0526360  67.9005129  39.8903243 103.2534942  68.8593496
  39.3545433 102.6415300  69.1754263  39.9521008 103.8283077  69.5127163
  39.8198876 103.2481869  69.0028923  52.1197578  96.1858997  61.6397895
  52.2381146  96.6435460  60.9065198  51.9459754  95.3804258  61.3534113
  52.1116749  96.1352769  61.4898829  47.4899860 116.7946816  58.0752641
  48.2549751 116.5256460  57.7535305  47.3877950 116.3096827  58.7922704
  47.5881356 116.6836381  58.1332468  45.5252630 104.9971226  64.6145876
  44.7348705 104.8162686  64.9363212  45.9213253 104.2198178  64.5976171
  45.4669506 104.8558687  64.6598425  50.0118521 113.8259000  50.0552590
  50.7791506 113.8859125  49.6458442  49.5649830 113.2539441  49.5708909
  50.0591948 113.7495576  49.9230300  50.9096316 112.6313656  62.3405322
  50.2341318 112.3998888  62.8418709  50.9188692 112.0234839  61.7147427
  50.8114821 112.5072581  62.3221475  48.0390460 107.4731485  69.0969375
  47.9749602 108.3341441  68.9689512  48.1787648 107.1563478  68.2964927
  48.0505930 107.5531651  68.9597588  52.9113051 115.4878788  54.5715500
  52.9932888 116.2945774  54.2476951  53.3962793 115.5074747  55.2956274
  52.9950209 115.6099451  54.6302399  46.7209554 110.1663624  63.2385578
  46.2971803 110.3668123  62.5024597  46.5454409 109.3192472  63.3509878
  46.6320435 110.0712406  63.1459268  46.2221248 121.6814137  65.7007036
  46.7117178 120.9824926  65.5182700  45.6505480 121.3838007  66.2883093
  46.2105778 121.5340361  65.7608076  42.0091999 110.6615676  58.6713551
  42.1656618 110.5962478  59.5269543  42.3492592 111.4364228  58.4592230
  42.0825234 110.7664874  58.7668145  48.5471144 110.0373559  57.5406914
  49.0886689 109.5343940  58.0045535  48.8617703 109.9838754  56.7296399
  48.6735541 109.9552980  57.4890726  52.4188251 114.2476207  74.6533826
  53.2323117 113.9761355  74.8138959  52.2583218 113.9483746  73.8494022
  52.5158200 114.1631133  74.5579232  46.7157594 115.4290911  54.8246942
  46.7850414 114.5705449  54.9639942  47.4946049 115.6462792  54.4965967
  46.8410444 115.3343775  54.7964099  49.6960413 104.9309864  67.5929214
  49.9102383 104.2920778  67.0392568  49.0794312 105.3755688  67.1637076
  49.6365742 104.9020007  67.4479646  51.1065081 117.8528612  59.0383435
  50.7144873 117.5495327  58.3206302  51.2618153 118.6897702  58.8488389
  51.0718671 117.9312449  58.9039932  38.5826261 107.8450626  58.9874318
  38.9625226 108.2635171  58.3234585  38.0081626 108.4264082  59.2943161
  38.5537586 107.9928485  58.9351059  51.8599501 106.5398929  68.5312522
  51.0476183 106.2324819  68.6125694  52.3189436 106.0597929  69.0955234
  51.8079886 106.4235421  68.6267116  51.2704756 114.4178601  58.9789466
  50.9119411 114.5893244  59.7553498  50.7843467 114.8791806  58.4217464
  51.1463453 114.5117572  59.0114735  49.0875142  98.0409799  62.5816557
  48.2168700  98.0148520  62.5349867  49.3415483  97.8686992  61.7642403
  48.9968702  98.0119943  62.4536694  46.0593121 110.0977766  51.5189700
  46.3485646 110.8742649  51.7933275  46.1464920 109.5866498  52.2204200
  46.1147378 110.1369685  51.6632198  48.9553009 107.9459000  73.3141224
  49.4252640 108.5701117  73.7009098  49.0014889 107.2775976  73.8734439
  49.0320885 107.9393681  73.4541295  46.1124282 100.0516028  64.0390028
  45.5962771  99.3596219  64.1641607  45.5518211 100.7186805  63.9852626
  45.9530796 100.0479285  64.0496094  48.1816516 100.5908988  65.8682880
  47.7948269 100.6158019  66.6496410  47.6949453 100.0250666  65.4157397
  48.0529025 100.5104739  65.9170784  52.4309495 115.3082497  69.9256667
  53.0689216 114.8142692  69.5919123  51.7883587 115.2359897  69.3408894
  52.4303722 115.2241505  69.7899022  54.1566495 107.1571643  64.4922582
  53.7294103 107.0697991  63.7370682  53.5192548 107.2649418  65.0777426
  53.9996103 107.1604303  64.4668024  47.8473658  97.4775973  68.1593140
  48.4766776  98.0136273  67.8814210  48.0159520  97.3853332  69.0106706
  47.9651452  97.5437336  68.2441668  47.6487572 102.2647168  70.4319552
  48.4761002 101.9932317  70.4878166  47.6695418 103.0608010  70.7883370
  47.7740422 102.3426922  70.4934735  52.4863752 116.0002305  66.5662024
  53.2756130 115.6491370  66.6864105  52.6607350 116.8138693  66.3038657
  52.6284034 116.0688162  66.5449892  42.2257062 109.4111031  63.6189812
  41.3845069 109.3114905  63.8268706  42.4347070 110.1806511  63.9704133
  42.1321755 109.5103074  63.7017127  39.7032629 107.0330568  61.4474563
  39.3089327 107.1073580  60.6724673  39.1472746 107.4188514  61.9982925
  39.5635442 107.1012342  61.4142223  51.3397576 100.0111862  61.1278442
  51.5447169  99.9434170  61.9735439  51.0124000 100.8170683  61.0599619
  51.3212824 100.1197802  61.2438097  46.0373727 107.3392430  62.8687410
  45.7336865 106.7848418  63.4697818  45.3353148 107.5184640  62.3815444
  45.8889937 107.2837212  62.8857116  45.0939824 104.6492950  57.4332112
  45.3699559 103.9311862  57.0209679  45.6938494 105.2477870  57.2253218
  45.2233089 104.6313321  57.3412873  44.0992078 114.5542151  67.5759508
  43.9912433 114.5644213  68.4421566  44.3087860 115.3796931  67.3864461
  44.1142189 114.6783226  67.6763599  54.5931264 100.5643626  60.6081207
  53.9805577 101.0514028  60.9934939  54.6895439  99.8887117  61.1518859
  54.5169161 100.5361935  60.7460066  48.5950345 102.3206467  55.7078707
  49.0494091 102.4917028  56.4326551  49.0690390 101.7074578  55.3076482
  48.7318665 102.2557352  55.7552468  42.1165870 111.8054793  65.0381445
  41.5253803 112.4464291  65.0084460  42.8786894 112.2292410  65.0112745
  42.1414131 111.9630632  65.0296592  42.5126493 102.9656791  65.7049463
  42.9727974 103.0395720  66.4424587  42.5582600 103.7638045  65.3549284
  42.5877048 103.0950938  65.7622219  44.1609843 103.6323486  70.2721490
  43.7695408 102.9856833  70.7077268  44.3295705 104.2234921  70.8915745
  44.1280753 103.6237754  70.4284196  58.2356292 111.6360563  66.0358724
  58.2939415 112.0847212  66.7818700  57.6022759 112.0459376  65.5988804
  58.1507587 111.7634297  66.0811272  51.8755386 117.2564105  62.4713470
  51.6775075 117.7454919  61.7769681  51.2543097 117.4605346  63.0497603
  51.7542951 117.3580643  62.4536693  45.9363365 109.0249002  56.8123714
  46.6805410 109.4123278  57.0506664  46.0824061 108.1806427  56.9764202
  46.0673950 108.9579474  56.8717684  47.8542940 100.8199260  61.8455575
  47.0078985 100.9922068  61.7196925  47.8514073 100.0148604  62.1821404
  47.7290090 100.7260289  61.8766702  48.9241241 104.5974475  62.7117633
  48.4501195 104.0716237  63.2222944  49.2959376 104.0503948  62.1432495
  48.9091130 104.4390471  62.7032781  39.3014271 106.5945982  68.0801179
  40.1639884 106.4941691  67.9938509  38.9706054 106.0140691  67.5186751
  39.3799467 106.4937608  67.9846585  55.1877971 109.6576851  64.1224414
  54.9476194 108.8183266  64.1266840  55.6669978 109.7377017  64.8465187
  55.2230155 109.5458250  64.2299216  50.8524740 105.4911029  55.7743387
  50.3247759 105.5739773  55.0849096  51.3120448 106.2328901  55.7708032
  50.8426591 105.6131692  55.6718082  57.1883158 106.4378308  62.0753673
  56.9492928 106.3974142  61.2374458  57.3517059 107.2849460  62.2019394
  57.1773462 106.5570393  61.9707155  53.7929188 110.8228257  68.0058718
  54.5163387 110.3700783  67.8269738  53.5279151 111.1032923  67.2231046
  53.8610462 110.7979226  67.8637433  42.6616057 105.4188431  64.7411597
  42.0369127 105.4306823  64.1337550  42.3261652 105.8948606  65.3902837
  42.5201549 105.4906948  64.7468166  42.8457805 103.7613549  50.7984282
  42.4970610 104.4133274  51.2615832  42.3654251 103.7470662  50.0708153
  42.7228049 103.8556603  50.7595374  39.3741732 113.4788891  66.1815362
  38.8441657 112.7881330  66.2310336  39.6466826 113.4699076  65.3528070
  39.3366455 113.3756022  66.0662778  50.4061823 114.0614593  54.9053044
  51.1296022 114.5272706  54.7617617  49.9662414 114.1288203  54.1550641
  50.4477515 114.1398430  54.7737826  49.5747978 110.9212135  66.1553733
  48.9604971 110.3770186  66.4502368  50.0915263 110.4076372  65.6759549
  49.5603640 110.7648544  66.1277962  48.8144275 111.9916405  63.8898032
  48.3871883 111.3666124  63.4563467  48.8069219 111.7091327  64.7157039
  48.7503416 111.8569186  63.9477859  41.9306802 107.0281578  66.9586466
  42.0900289 106.2724902  67.3638188  41.7499696 107.5772518  67.6127203
  41.9272161 106.9975392  67.1149172  49.8727105  99.1942814  67.5137255
  49.3767666  99.3906488  66.8228822  50.6296167  99.5935482  67.3426057
  49.9113930  99.2820548  67.3857392  47.1429985 102.8685160  64.1040566
  47.1672472 102.3345272  63.4153346  47.3941458 102.3602469  64.7666156
  47.1839903 102.7146064  64.1005210  34.6537574 110.1516655  63.5383710
  34.5481024 110.1063499  62.6735794  33.9037794 110.4970435  63.8197995
  34.5273177 110.1957563  63.4521040  43.4231307 101.5955978  63.4846310
  43.4629678 102.0965185  64.1981018  42.5980972 101.6866372  63.2152233
  43.3070833 101.6837794  63.5496848  45.6060920 111.1616718  71.5866605
  44.7556550 111.2988432  71.7224250  45.7689048 110.4280496  72.0314306
  45.5044783 111.0730819  71.6722204  44.8445670 108.1116488  65.7820209
  44.0137600 108.2790306  65.5755457  44.7897187 107.7352439  66.5669094
  44.7135085 108.0806219  65.8668737  42.6529454 101.6025381  71.4176620
  43.2782157 101.0587514  71.6906052  42.1979933 101.1220298  70.8484410
  42.6777714 101.4514862  71.3738214  43.2181714 106.3872079  56.3110327
  43.3584675 106.8844544  57.0138968  43.7164247 105.6858374  56.4524540
  43.3122795 106.3574058  56.4361906  43.2481936 107.2539190  53.6402904
  43.8827016 107.8499616  53.5752365  43.3307547 106.9542648  54.4548774
  43.3538487 107.2980099  53.7505990  56.2264502 109.7854668  66.5089268
  56.8182343 110.4251919  66.5407466  56.6623497 109.0877705  66.7981335
  56.3782933 109.7773018  66.5570100  44.8260919 103.1853166  53.6148346
  45.1476760 102.7056248  52.9607608  45.0887863 103.9952812  53.4239157
  44.9126945 103.2343064  53.4903838  48.0557892 114.2072040  67.1347162
  47.5482983 114.7607887  67.5787792  47.7584538 114.2680330  66.3165936
  47.9362777 114.2978351  67.0795618  50.2220074 102.5725360  65.9771825
  50.6475146 102.1197886  65.3655351  49.6077067 102.0185431  66.2536612
  50.1948720 102.4239336  65.9276850  39.7534924 109.4507031  56.9092450
  40.2627154 110.0471539  57.2903755  40.2269197 109.1833005  56.2268869
  39.8978300 109.4992847  56.8646972  50.6665672 118.1235298  55.0651105
  49.9494982 117.9496160  54.5998343  51.3172410 117.8887870  54.5326591
  50.6567523 118.0631090  54.9180323  48.6614297  99.0440460  59.3862402
  48.0182615  98.8938106  59.9547540  48.3213704  98.7982805  58.6211506
  48.5159375  98.9852582  59.3565417  53.2513644 106.9999886  58.8092410
  52.5804834 107.5429589  58.6805476  53.9453394 107.4694742  58.5674105
  53.2542511 107.1498158  58.7547938  47.3000377 119.1396598  64.0404169
  47.0766032 118.3815428  64.4088195  46.8110221 119.1694620  63.3184608
  47.1943826 119.0318823  63.9880910  53.4141771 103.4555770  61.7182784
  53.7669381 103.0285493  62.3928582  52.5556573 103.3706614  61.8483860
  53.3391216 103.3800511  61.8377794  42.1125456 106.0863290  59.7765630
  41.3937445 106.5027422  60.0438494  42.4837818 106.6517529  59.2257268
  42.0617388 106.2312571  59.7348437  51.4125037 106.7191139  65.6667626
  51.3922964 106.5374434  66.5202405  51.4604238 107.5903157  65.6427209
  51.4159678 106.8207677  65.7890921  49.3571367 113.3078331  71.5916102
  49.3167222 112.6628008  71.0061258  50.1694685 113.2514948  71.9041514
  49.4714520 113.2037298  71.5513052  45.9478834 119.3597057  61.4941253
  45.5339233 118.6971187  61.1045095  46.6326209 119.5074915  60.9736947
  45.9877206 119.2837715  61.3597750  49.3144128 118.5187142  62.2464870
  48.9160412 118.6289412  61.4785690  48.6995348 118.7269208  62.8291430
  49.1643018 118.5660710  62.2196169  47.8872030 105.1261290  55.1139010
  47.2936870 105.4478286  54.5623577  47.9247308 104.2802385  54.9060116
  47.8046420 105.0485618  55.0021781  54.8465831  98.5774182  62.6467096
  54.3396696  97.8703322  62.5788274  55.6433265  98.2467371  62.7768173
  54.8893070  98.4247333  62.6566091  50.7629847 105.0840794  58.5440760
  50.5343540 105.1073496  57.7019118  51.0227923 104.2598261  58.6635770
  50.7676035 104.9656874  58.4365957  45.0449075 106.9375267  68.1465860
  44.5327979 106.3296450  68.5050891  44.8728572 107.6531860  68.6139836
  44.9438713 106.9538567  68.2682084  39.8914790 105.3812843  70.7968222
  39.7217380 106.0414217  70.2516428  39.4480740 105.5919404  71.5180711
  39.8014124 105.5098825  70.8229851  43.8174610 103.6217340  59.8394955
  44.2931976 103.9834420  59.2045137  43.3163209 104.2773808  60.1195098
  43.8139969 103.7711529  59.7871696  57.0485971 113.0939109  55.6307960
  57.4319577 113.8430465  55.8606057  56.2530084 113.3404928  55.3719950
  56.9879753 113.2408802  55.6265534  48.9218146 104.8599512  70.5868116
  49.4789576 104.6313321  69.9546581  48.5979211 105.6205177  70.3103328
  48.9564556 104.9383349  70.4524613  36.7916855 108.2859708  66.0556712
  36.2443574 107.6160354  66.1737580  37.5809233 107.9189556  66.1200179
  36.8269038 108.1324695  66.0825412  46.6401263 107.9467165  71.5520123
  47.3912590 108.2618842  71.8659677  46.8323840 107.7446336  70.7254044
  46.7792677 107.9634547  71.4763518  45.8601263 105.7658540  53.2068339
  46.2400228 105.7838169  52.4219454  45.1193859 106.2112529  53.0859187
  45.8070100 105.8340315  53.0731908  53.4886553 104.0740731  58.7943918
  53.4880780 103.9189388  59.6528194  53.2842733 104.9203719  58.7385304
  53.4586331 104.1761352  58.9131857  35.5503824 107.4980516  63.2102735
  35.3725585 107.0457125  63.9357650  35.2622846 108.3006677  63.3941212
  35.4816777 107.5503074  63.3446238  51.2127405 108.7538233  62.4480125
  51.7081071 108.0361228  62.4084145  50.4027181 108.4509031  62.3334612
  51.1671299 108.6035880  62.4253851  46.6586017 112.6036047  54.5977129
  45.8497340 112.2802720  54.5510439  47.1660926 111.8969269  54.5305378
  46.6135684 112.4517363  54.5807424  37.2876294 110.0308240  60.3224494
  36.4221814 110.0193930  60.2107265  37.3875110 109.8438463  61.1695633
  37.1750461 110.0014301  60.4313438  53.2779224 111.5041921  65.1357254
  53.7034296 110.9816343  64.5827679  52.9136144 112.1022758  64.6145877
  53.2865827 111.5152148  64.9766263  42.9133304 119.8006138  63.8954599
  43.2279863 120.6142527  63.9032381  43.3226717 119.4156357  64.5636758
  43.0201402 119.8634841  63.9958691  49.8657824 115.2176185  61.4658411
  50.3369002 115.9316448  61.6348396  50.2018002 114.6174935  62.0018281
  49.9852939 115.2347649  61.5690787  51.9534808 116.8277498  73.6450483
  52.0631774 116.0386059  74.0007230  52.2825705 116.7383435  72.8424821
  52.0187214 116.6983351  73.5792874  46.7827319  99.9903656  68.4216506
  46.9155224  99.1934649  68.7497482  47.1672471 100.5170059  69.0014782
  46.8583647  99.9503572  68.5560009  50.5031770 115.0094119  68.2286104
  49.9552716 114.3852003  67.9606169  50.9644799 115.1988391  67.5130183
  50.4898979 114.9453169  68.0836535  49.8559674  96.9133982  65.0197599
  49.0505637  96.8031711  65.3365438  49.7266409  97.0146437  64.1627465
  49.7179807  96.9117652  64.9405640  53.3125634 103.0779474  65.6137296
  52.7288623 103.5788680  65.2014864  53.6329928 102.5709030  64.9801619
  53.2738810 103.0771309  65.4595803  45.8520433 101.9920068  55.8895971
  46.6736128 102.1618381  55.6477666  45.3890084 102.1467329  55.1662269
  45.9051596 102.0401801  55.7467615  44.4415765  99.9862831  66.6694400
  44.9860178  99.6453957  67.2598741  44.4952701 100.8448292  66.8115684
  44.5304885 100.0618090  66.7776273  40.2546324 113.7479247  63.5433208
  40.8591181 113.7075081  62.9147028  40.0473637 114.5950399  63.5737263
  40.3135221 113.8667249  63.4549324  50.0690096 116.0145192  64.7595445
  50.8888470 115.8708158  65.0211740  49.7884174 116.6391391  65.3011883
  50.1486840 116.0855544  64.8783384  35.4897606 112.7313864  63.4132131
  35.3921884 111.9210136  63.7222187  36.2726476 112.7105658  63.0278399
  35.5913743 112.6080954  63.4018994  66.5403747 123.6710044  57.7238321
  66.5097751 124.5254680  57.8956591  67.1385095 123.3705336  58.2824465
  66.6240904 123.7526540  57.8313124  59.7403431 122.7585695  62.4791252
  58.8841327 122.9194193  62.5300369  59.7871085 121.8877759  62.4996313
  59.6202543 122.6536496  62.4897318  63.0497148 129.0272220  72.0851708
  63.7563915 128.5324251  72.2138642  63.2385083 129.4681302  71.3554366
  63.1825054 129.0190571  71.9960753  62.5855252 124.8177739  65.1222903
  63.1311213 125.4962825  65.1816873  62.5272129 124.6765199  64.2624485
  62.6571167 124.8969740  65.0034964  64.3620321 126.2462346  55.9956631
  64.2459847 126.9970032  56.4248769  65.1576208 125.9886299  56.2452718
  64.4624911 126.3197193  56.0960723  51.1984459 120.4972822  63.0327897
  50.5789491 119.9065469  62.8637912  51.0968323 121.0884257  62.3992220
  51.0922135 120.4976904  62.9132887  58.2952355 122.2372364  57.3660360
  58.9932519 122.4160491  57.8581824  58.6104687 121.7142703  56.7430750
  58.4447692 122.1866136  57.3462370  50.9253592 124.0425103  65.2771466
  50.8012289 124.6287549  65.9121285  51.5771877 123.5485299  65.5783741
  51.0027241 124.0563908  65.4157396  56.4679218 117.6064760  61.4481635
  56.1382548 118.0575904  60.7785334  55.7924220 117.5280924  61.9954641
  56.3189655 117.6615895  61.4304858  62.0849627 126.9769990  54.3070921
  62.0000922 127.8330957  54.4520490  62.5734010 126.7014314  54.9753080
  62.1438524 127.0627311  54.4273003  63.6755626 113.5950283  59.6931246
  63.3609067 114.2853762  60.1251668  63.1582568 113.5395065  58.9916746
  63.5520097 113.6885172  59.6528195  63.0168060 123.5954784  55.8068656
  62.4879531 123.8114418  56.4665962  63.5393080 124.2890923  55.7269626
  63.0156513 123.7297921  55.8924255  68.4716113 129.1701089  61.1801701
  67.6413816 129.3811732  61.3435117  68.4225365 128.3438143  60.9043984
  68.3422848 129.0790695  61.1639066  59.3644882 123.7383653  53.0845045
  59.6040886 123.9461637  52.2720388  59.6860723 122.9341162  53.1933989
  59.4482040 123.6497754  52.9805598  54.6735172 115.6677049  56.9304583
  55.4281140 116.0355366  56.6921633  54.4962707 116.0416603  57.6983762
  54.7589651 115.7775237  57.0089471  67.9670071 121.8171489  64.9752122
  67.1298492 121.8873676  65.2099716  67.9358302 121.8195984  64.1026424
  67.8388353 121.8281716  64.8811670  54.3634800 123.9604525  70.6900491
  54.5355304 123.8510419  71.5385772  54.9004158 124.6058930  70.4531683
  54.4679804 124.0396526  70.7805587  53.0292237 118.0747368  53.6282696
  52.8467810 118.2919248  52.8023688  53.8917850 118.1886380  53.6841310
  53.1296826 118.1237266  53.5137183  58.7091956 115.0773778  56.6631719
  59.4378117 114.8989733  56.2169876  58.7986849 115.9191858  56.8738898
  58.8298618 115.1757657  56.6285237  62.6900257 126.0127166  60.5664013
  63.4457772 126.4458680  60.6052922  62.7962581 125.3631935  61.1398649
  62.8170427 125.9804650  60.6562039  65.6477911 116.8814271  63.5595844
  66.2903819 116.9512375  64.1457760  65.9000932 116.2143494  63.0575386
  65.7800043 116.7940619  63.5723124  52.5754264 121.3521540  52.1405169
  51.8612441 121.0659720  52.5527601  53.0598233 121.6918166  52.7811556
  52.5413627 121.3603190  52.2960804  53.4195123 120.0914834  68.1720418
  52.7266920 119.6211814  68.4181150  54.0355451 119.8653139  68.7462125
  53.4079653 119.9881966  68.2929571  68.8624774 126.5581363  60.2086054
  69.5241208 125.9972031  60.1081962  68.2216186 126.0633394  60.5338745
  68.8653642 126.4017772  60.2418394  65.1489605 127.5746745  59.9498042
  65.3845194 127.7191944  59.1224893  65.2979169 128.3389153  60.3429556
  65.2055408 127.7085800  59.8861646  52.1435682 124.0580238  69.3147264
  52.8675655 124.0433269  69.8012158  52.2451819 124.7675593  68.8169232
  52.2653891 124.1604941  69.3126050  66.9780062 126.4148411  57.7867646
  67.3088279 126.9476051  57.1807741  67.5513150 126.4687299  58.4429597
  67.1113741 126.5017980  57.7945428  59.5180632 127.5379323  74.1796211
  58.7253613 127.8522835  74.3648830  59.6329559 127.7530791  73.3416995
  59.4176042 127.6163159  74.0834545  62.1911951 124.2613314  58.4691226
  62.2858805 125.0002608  58.9230852  61.5670794 123.8330789  58.9025791
  62.1120981 124.3074634  58.5999374  60.4464425 127.4399526  69.1181507
  61.0203286 126.8026771  69.2730071  60.3679228 127.4403609  68.2491165
  60.5197659 127.3464638  69.0127918  49.0460841 124.2188736  62.9564221
  49.6234344 124.0825187  63.5956467  48.3474903 123.7624520  63.2109806
  49.0281862 124.1311002  63.0886511  62.4434972 126.1062054  51.7028178
  62.3615135 126.1764241  52.5683165  63.0814693 126.6691798  51.5111919
  62.5254809 126.2001025  51.8018128  55.8028143 125.8722792  61.1702705
  55.5447388 125.0394526  61.1434004  55.8576626 126.0980405  60.3295205
  55.7727921 125.7820563  61.0422841  60.8829193 117.9751242  61.2706797
  60.1785520 117.4860428  61.4290717  60.9314168 117.9873717  60.3995242
  60.7859245 117.9040890  61.1646137  54.7762855 123.4260554  61.6567599
  54.2012447 123.5852722  62.2931560  54.3998532 122.7895963  61.1936050
  54.6365668 123.3558367  61.6822158  58.4436144 121.8983903  66.5159978
  58.0550577 121.4738121  65.8612169  57.7790842 122.1466053  67.0237005
  58.2883072 121.8722624  66.4947846  68.0859413 121.6558908  59.2907808
  67.8295978 120.8438850  59.1005691  68.9288727 121.6636475  59.0637995
  68.1725439 121.5370906  59.2292625  62.2662506 115.5958532  64.0283962
  62.6473017 114.9136703  64.4151836  61.4625790 115.3068134  63.8459627
  62.2038967 115.4525581  64.0588018  59.5475082 126.1282508  54.7136785
  60.3615721 126.4197401  54.6019556  59.4834224 125.4742370  54.1395078
  59.6577821 126.0747703  54.6125622  65.7684572 128.8108504  69.1266360
  65.5323210 127.9796569  69.0078421  66.4127801 128.7594111  69.7121205
  65.8279243 128.6806192  69.1952254  56.0585806 124.8206315  54.1783986
  56.4430958 124.6014022  54.9300531  55.8097426 125.6469261  54.3085063
  56.0787878 124.9104461  54.3085063  56.2254346 118.1012730  73.8946571
  55.9107787 118.8712293  73.6316133  55.9044279 117.5382986  73.3098797
  56.1313265 118.1322999  73.7687920  66.7920993 128.5952953  65.1894655
  66.4866810 129.3281010  65.5507971  66.0727209 128.1890882  64.9087441
  66.6408335 128.6434686  65.2007792  72.4922785 125.2345954  64.5162999
  72.4247285 125.2541913  63.6465586  72.4778448 126.0776281  64.7418670
  72.4801542 125.3619688  64.4215476  53.7786243 116.4903252  59.5092767
  52.9108668 116.5625851  59.5750376  54.0661447 117.2925331  59.6980742
  53.6925991 116.6197399  59.5467533  62.9019132 116.6381111  67.8404089
  63.6472724 116.4490922  67.4267514  62.4856436 117.1639349  67.2817945
  62.9504106 116.6883257  67.6968662  70.2781403 124.0090340  62.7909594
  70.8289324 123.3758409  63.0306686  70.2625518 124.5405733  63.4825098
  70.3566599 123.9939288  62.9288452  63.9809809 122.2486673  61.9014190
  63.6374575 121.5277009  62.2521440  64.0802851 122.0400525  61.0592548
  63.9451852 122.1110877  61.8285870  64.4422838 128.7112377  57.4438178
  65.0080871 129.3705587  57.3596721  63.7950741 129.0562076  57.9154580
  64.4301594 128.8594319  57.5010934  55.8570851 120.7009981  72.6331785
  55.0470627 121.0067761  72.5221628  56.3345538 121.4215564  72.7484369
  55.8074330 120.8524583  72.6338856  51.7053595 119.9661511  56.9509643
  51.4178391 119.5962782  56.2141590  52.3924063 120.4356366  56.6893348
  51.7642492 119.9808481  56.8024719  54.5407267 123.8314459  58.3977048
  55.2629919 123.9955617  57.9380854  54.0615259 124.5524124  58.2916388
  54.5770997 123.9612689  58.3142662  62.5000774 120.1678258  63.7773733
  61.6611875 120.1939537  63.5411996  62.5705141 120.8148994  64.3579079
  62.3869168 120.2674384  63.8282850  60.9470052 117.0663635  58.5101349
  61.6496405 116.8671383  58.0321307  60.6814241 116.2939578  58.8170192
  61.0116685 116.9226601  58.4846790  66.3758298 125.3746245  61.0634975
  66.2892273 125.5301671  61.9169753  65.9208778 126.0184320  60.6894380
  66.2961555 125.4922000  61.1342081  49.2781790 120.7442724  57.7994924
  49.3797926 121.5468885  58.1275900  50.0737676 120.5430060  57.5018005
  49.4109695 120.8328622  57.8030280  55.7098609 118.3298920  67.5632229
  55.5181806 118.3454055  68.4131653  56.5597205 118.5262595  67.5398884
  55.8074331 118.3613272  67.6855524  50.0945522 120.8589902  65.5416046
  49.9531014 120.0073842  65.6660554  50.3786085 120.9018562  64.7178252
  50.1153368 120.7389652  65.4383670  60.2484114 122.6956992  59.6860534
  60.0018828 122.6152743  60.5197323  60.5769237 121.9110460  59.4923062
  60.2605358 122.5683257  59.7808057  62.4810248 125.7036727  69.7269697
  62.4758287 124.8316543  69.7312123  63.1871242 125.9024896  69.2539153
  62.5855252 125.6040601  69.6576732  56.2081141 125.4313711  69.0983517
  56.3524517 126.0114919  68.4626627  56.5556790 125.8090007  69.8033372
  56.2808603 125.5734415  69.1082512  58.3801059 124.6303879  66.8808649
  57.6324373 124.8234893  66.4756927  58.5342584 123.8049099  66.6432770
  58.2923486 124.5368990  66.7854055  65.6385536 128.7618605  54.2363814
  65.2592344 127.9755743  54.2293104  64.9751781 129.3105462  54.0935459
  65.4844011 128.7263429  54.2144611  58.6202836 118.5254430  67.7704052
  59.0775450 119.2578404  67.8976845  58.6959165 118.1020895  68.5291308
  58.6993806 118.5711668  67.9005129  50.8635827 118.7720249  68.8593496
  50.3278016 118.1600608  69.1754263  50.9253592 119.3468385  69.5127163
  50.7931460 118.7667177  69.0028923  63.0930162 111.7044305  61.6397895
  63.2113730 112.1620768  60.9065198  62.9192337 110.8989566  61.3534113
  63.0849333 111.6538077  61.4898829  56.4985214 120.5156534  64.6145876
  55.7081288 120.3347994  64.9363212  56.8945836 119.7383486  64.5976171
  56.4402090 120.3743995  64.6598425  61.8828900 128.1498964  62.3405322
  61.2073902 127.9184196  62.8418709  61.8921276 127.5420147  61.7147427
  61.7847405 128.0257889  62.3221475  59.0123044 122.9916793  69.0969375
  58.9482185 123.8526749  68.9689512  59.1520232 122.6748786  68.2964927
  59.0238514 123.0716959  68.9597588  57.6942138 125.6848932  63.2385578
  57.2704387 125.8853431  62.5024597  57.5186993 124.8377780  63.3509878
  57.6053018 125.5897714  63.1459268  59.5203727 125.5558867  57.5406914
  60.0619273 125.0529248  58.0045535  59.8350286 125.5024062  56.7296399
  59.6468124 125.4738288  57.4890726  60.6692997 120.4495172  67.5929214
  60.8834966 119.8106086  67.0392568  60.0526896 120.8940995  67.1637076
  60.6098326 120.4205315  67.4479646  49.5558844 123.3635934  58.9874318
  49.9357809 123.7820479  58.3234585  48.9814209 123.9449390  59.2943161
  49.5270169 123.5113793  58.9351059  62.8332085 122.0584237  68.5312522
  62.0208767 121.7510127  68.6125694  63.2922019 121.5783237  69.0955234
  62.7812470 121.9420729  68.6267116  60.0607725 113.5595107  62.5816557
  59.1901283 113.5333828  62.5349867  60.3148067 113.3872299  61.7642403
  59.9701286 113.5305251  62.4536694  57.0325705 125.6163074  51.5189700
  57.3218230 126.3927957  51.7933275  57.1197504 125.1051806  52.2204200
  57.0879961 125.6554993  51.6632198  59.9285592 123.4644308  73.3141224
  60.3985223 124.0886425  73.7009098  59.9747472 122.7961284  73.8734439
  60.0053468 123.4578989  73.4541295  57.0856866 115.5701336  64.0390028
  56.5695355 114.8781527  64.1641607  56.5250795 116.2372113  63.9852626
  56.9263379 115.5664593  64.0496094  59.1549099 116.1094296  65.8682880
  58.7680853 116.1343327  66.6496410  58.6682037 115.5435974  65.4157397
  59.0261608 116.0290047  65.9170784  65.1299079 122.6756951  64.4922582
  64.7026687 122.5883299  63.7370682  64.4925132 122.7834726  65.0777426
  64.9728686 122.6789611  64.4668024  58.8206241 112.9961281  68.1593140
  59.4499359 113.5321581  67.8814210  58.9892104 112.9038640  69.0106706
  58.9384036 113.0622643  68.2441668  58.6220156 117.7832476  70.4319552
  59.4493585 117.5117625  70.4878166  58.6428002 118.5793318  70.7883370
  58.7473006 117.8612230  70.4934735  53.1989646 124.9296339  63.6189812
  52.3577652 124.8300213  63.8268706  53.4079654 125.6991819  63.9704133
  53.1054338 125.0288382  63.7017127  50.6765213 122.5515876  61.4474563
  50.2821911 122.6258888  60.6724673  50.1205330 122.9373822  61.9982925
  50.5368025 122.6197650  61.4142223  62.3130160 115.5297170  61.1278442
  62.5179753 115.4619478  61.9735439  61.9856584 116.3355991  61.0599619
  62.2945407 115.6383110  61.2438097  57.0106311 122.8577738  62.8687410
  56.7069448 122.3033726  63.4697818  56.3085731 123.0369948  62.3815444
  56.8622521 122.8022520  62.8857116  56.0672408 120.1678258  57.4332112
  56.3432142 119.4497170  57.0209679  56.6671077 120.7663178  57.2253218
  56.1965672 120.1498628  57.3412873  65.5663847 116.0828934  60.6081207
  64.9538161 116.5699336  60.9934939  65.6628022 115.4072425  61.1518859
  65.4901745 116.0547243  60.7460066  59.5682928 117.8391775  55.7078707
  60.0226675 118.0102336  56.4326551  60.0422974 117.2259886  55.3076482
  59.7051248 117.7742660  55.7552468  53.4859076 118.4842099  65.7049463
  53.9460558 118.5581028  66.4424587  53.5315183 119.2823353  65.3549284
  53.5609632 118.6136246  65.7622219  55.1342426 119.1508794  70.2721490
  54.7427991 118.5042141  70.7077268  55.3028289 119.7420229  70.8915745
  55.1013337 119.1423062  70.4284196  69.2088875 127.1545871  66.0358724
  69.2671999 127.6032519  66.7818700  68.5755343 127.5644684  65.5988804
  69.1240170 127.2819605  66.0811272  56.9095948 124.5434309  56.8123714
  57.6537993 124.9308586  57.0506664  57.0556644 123.6991735  56.9764202
  57.0406533 124.4764782  56.8717684  58.8275524 116.3384568  61.8455575
  57.9811569 116.5107376  61.7196925  58.8246656 115.5333912  62.1821404
  58.7022674 116.2445597  61.8766702  59.8973824 120.1159783  62.7117633
  59.4233778 119.5901545  63.2222944  60.2691960 119.5689256  62.1432495
  59.8823713 119.9575779  62.7032781  50.2746854 122.1131289  68.0801179
  51.1372467 122.0126999  67.9938509  49.9438637 121.5325999  67.5186751
  50.3532051 122.0122916  67.9846585  66.1610555 125.1762158  64.1224414
  65.9208778 124.3368574  64.1266840  66.6402562 125.2562325  64.8465187
  66.1962738 125.0643558  64.2299216  61.8257324 121.0096337  55.7743387
  61.2980342 121.0925081  55.0849096  62.2853032 121.7514209  55.7708032
  61.8159174 121.1317000  55.6718082  68.1615742 121.9563616  62.0753673
  67.9225512 121.9159450  61.2374458  68.3249643 122.8034768  62.2019394
  68.1506045 122.0755701  61.9707155  64.7661772 126.3413565  68.0058718
  65.4895971 125.8886091  67.8269738  64.5011734 126.6218231  67.2231046
  64.8343045 126.3164533  67.8637433  53.6348640 120.9373738  64.7411597
  53.0101710 120.9492130  64.1337550  53.2994235 121.4133914  65.3902837
  53.4934132 121.0092255  64.7468166  53.8190389 119.2798857  50.7984282
  53.4703193 119.9318582  51.2615832  53.3386835 119.2655970  50.0708153
  53.6960633 119.3741911  50.7595374  60.5480561 126.4397443  66.1553733
  59.9337554 125.8955493  66.4502368  61.0647846 125.9261680  65.6759549
  60.5336224 126.2833852  66.1277962  59.7876859 127.5101713  63.8898032
  59.3604467 126.8851432  63.4563467  59.7801803 127.2276635  64.7157039
  59.7236000 127.3754494  63.9477859  52.9039386 122.5466886  66.9586466
  53.0632872 121.7910210  67.3638188  52.7232279 123.0957826  67.6127203
  52.9004745 122.5160700  67.1149172  60.8459689 114.7128122  67.5137255
  60.3500250 114.9091796  66.8228822  61.6028751 115.1120790  67.3426057
  60.8846513 114.8005856  67.3857392  58.1162568 118.3870468  64.1040566
  58.1405055 117.8530580  63.4153346  58.3674042 117.8787777  64.7666156
  58.1572487 118.2331372  64.1005210  54.3963890 117.1141286  63.4846310
  54.4362262 117.6150493  64.1981018  53.5713555 117.2051680  63.2152233
  54.2803416 117.2023102  63.5496848  56.5793503 126.6802026  71.5866605
  55.7289134 126.8173740  71.7224250  56.7421631 125.9465804  72.0314306
  56.4777367 126.5916127  71.6722204  55.8178254 123.6301796  65.7820209
  54.9870184 123.7975614  65.5755457  55.7629771 123.2537747  66.5669094
  55.6867669 123.5991527  65.8668737  53.6262037 117.1210689  71.4176620
  54.2514740 116.5772822  71.6906052  53.1712517 116.6405606  70.8484410
  53.6510298 116.9700170  71.3738214  54.1914298 121.9057387  56.3110327
  54.3317259 122.4029852  57.0138968  54.6896830 121.2043682  56.4524540
  54.2855379 121.8759366  56.4361906  54.2214520 122.7724498  53.6402904
  54.8559600 123.3684923  53.5752365  54.3040131 122.4727956  54.4548774
  54.3271071 122.8165407  53.7505990  67.1997086 125.3039976  66.5089268
  67.7914926 125.9437226  66.5407466  67.6356080 124.6063012  66.7981335
  67.3515517 125.2958326  66.5570100  55.7993503 118.7038474  53.6148346
  56.1209344 118.2241556  52.9607608  56.0620447 119.5138120  53.4239157
  55.8859528 118.7528372  53.4903838  61.1952658 118.0910668  65.9771825
  61.6207729 117.6383194  65.3655351  60.5809651 117.5370738  66.2536612
  61.1681303 117.9424644  65.9276850  59.6346881 114.5625768  59.3862402
  58.9915199 114.4123414  59.9547540  59.2946288 114.3168113  58.6211506
  59.4891958 114.5037890  59.3565417  64.2246227 122.5185194  58.8092410
  63.5537417 123.0614897  58.6805476  64.9185977 122.9880050  58.5674105
  64.2275095 122.6683466  58.7547938  64.3874355 118.9741078  61.7182784
  64.7401965 118.5470801  62.3928582  63.5289156 118.8891922  61.8483860
  64.3123799 118.8985819  61.8377794  53.0858040 121.6048598  59.7765630
  52.3670029 122.0212730  60.0438494  53.4570402 122.1702836  59.2257268
  53.0349971 121.7497879  59.7348437  62.3857620 122.2376447  65.6667626
  62.3655548 122.0559742  66.5202405  62.4336821 123.1088465  65.6427209
  62.3892261 122.3392985  65.7890921  58.8604614 120.6446598  55.1139010
  58.2669453 120.9663594  54.5623577  58.8979892 119.7987693  54.9060116
  58.7779003 120.5670926  55.0021781  65.8198415 114.0959490  62.6467096
  65.3129279 113.3888629  62.5788274  66.6165848 113.7652679  62.7768173
  65.8625654 113.9432641  62.6566091  61.7362431 120.6026102  58.5440760
  61.5076124 120.6258804  57.7019118  61.9960507 119.7783569  58.6635770
  61.7408619 120.4842182  58.4365957  56.0181659 122.4560575  68.1465860
  55.5060562 121.8481758  68.5050891  55.8461155 123.1717168  68.6139836
  55.9171296 122.4723874  68.2682084  50.8647374 120.8998150  70.7968222
  50.6949964 121.5599525  70.2516428  50.4213324 121.1104712  71.5180711
  50.7746707 121.0284133  70.8229851  54.7907193 119.1402648  59.8394955
  55.2664559 119.5019728  59.2045137  54.2895793 119.7959116  60.1195098
  54.7872552 119.2896837  59.7871696  68.0218555 128.6124416  55.6307960
  68.4052160 129.3615773  55.8606057  67.2262668 128.8590236  55.3719950
  67.9612337 128.7594110  55.6265534  59.8950729 120.3784820  70.5868116
  60.4522160 120.1498629  69.9546581  59.5711794 121.1390485  70.3103328
  59.9297140 120.4568656  70.4524613  47.7649438 123.8045016  66.0556712
  47.2176158 123.1345662  66.1737580  48.5541816 123.4374864  66.1200179
  47.8001622 123.6510002  66.0825412  57.6133847 123.4652473  71.5520123
  58.3645174 123.7804150  71.8659677  57.8056423 123.2631644  70.7254044
  57.7525261 123.4819855  71.4763518  56.8333846 121.2843848  53.2068339
  57.2132811 121.3023477  52.4219454  56.0926442 121.7297837  53.0859187
  56.7802684 121.3525623  53.0731908  64.4619137 119.5926039  58.7943918
  64.4613363 119.4374696  59.6528194  64.2575317 120.4389026  58.7385304
  64.4318915 119.6946660  58.9131857  62.1859989 124.2723541  62.4480125
  62.6813654 123.5546536  62.4084145  61.3759765 123.9694339  62.3334612
  62.1403882 124.1221187  62.4253851  64.2511808 127.0227229  65.1357254
  64.6766879 126.5001651  64.5827679  63.8868728 127.6208066  64.6145877
  64.2598410 127.0337456  64.9766263  57.7559902 115.5088964  68.4216506
  57.8887808 114.7119957  68.7497482  58.1405055 116.0355367  69.0014782
  57.8316231 115.4688880  68.5560009  60.8292257 112.4319290  65.0197599
  60.0238221 112.3217019  65.3365438  60.6998993 112.5331745  64.1627465
  60.6912390 112.4302960  64.9405640  64.2858218 118.5964782  65.6137296
  63.7021207 119.0973988  65.2014864  64.6062512 118.0894338  64.9801619
  64.2471393 118.5956617  65.4595803  56.8253017 117.5105376  55.8895971
  57.6468711 117.6803689  55.6477666  56.3622668 117.6652637  55.1662269
  56.8784179 117.5587109  55.7467615  55.4148349 115.5048139  66.6694400
  55.9592762 115.1639265  67.2598741  55.4685285 116.3633600  66.8115684
  55.5037468 115.5803398  66.7776273  74.6488210 129.1135591  59.6931246
  74.3341651 129.8039070  60.1251668  74.1315151 129.0580373  58.9916746
  74.5252680 129.2070480  59.6528195  69.6824540 130.5959086  56.6631719
  70.4110700 130.4175041  56.2169876  69.7719433 131.4377166  56.8738898
  69.8031202 130.6942965  56.6285237  76.6210494 132.3999579  63.5595844
  77.2636403 132.4697683  64.1457760  76.8733515 131.7328802  63.0575386
  76.7532627 132.3125927  63.5723124  73.2395089 131.1143840  64.0283962
  73.6205601 130.4322011  64.4151836  72.4358373 130.8253442  63.8459627
  73.1771551 130.9710889  64.0588018  73.8751715 132.1566419  67.8404089
  74.6205307 131.9676230  67.4267514  73.4589020 132.6824657  67.2817945
  73.9236690 132.2068565  67.6968662  71.9202636 132.5848943  58.5101349
  72.6228989 132.3856691  58.0321307  71.6546825 131.8124885  58.8170192
  71.9849268 132.4411909  58.4846790  74.0662745 127.2229613  61.6397895
  74.1846313 127.6806076  60.9065198  73.8924921 126.4174874  61.3534113
  74.0581916 127.1723385  61.4898829  71.0340309 129.0780415  62.5816557
  70.1633867 129.0519136  62.5349867  71.2880650 128.9057607  61.7642403
  70.9433869 129.0490559  62.4536694  70.1281683 131.6279604  65.8682880
  69.7413436 131.6528635  66.6496410  69.6414620 131.0621282  65.4157397
  69.9994192 131.5475355  65.9170784  69.7938825 128.5146589  68.1593140
  70.4231943 129.0506889  67.8814210  69.9624687 128.4223948  69.0106706
  69.9116619 128.5807951  68.2441668  73.2862743 131.0482478  61.1278442
  73.4912337 130.9804786  61.9735439  72.9589167 131.8541299  61.0599619
  73.2677991 131.1568418  61.2438097  76.5396431 131.6014242  60.6081207
  75.9270744 132.0884644  60.9934939  76.6360606 130.9257733  61.1518859
  76.4634329 131.5732551  60.7460066  71.8192272 130.2313430  67.5137255
  71.3232833 130.4277104  66.8228822  72.5761334 130.6306098  67.3426057
  71.8579097 130.3191164  67.3857392  70.6079464 130.0811075  59.3862402
  69.9647782 129.9308722  59.9547540  70.2678871 129.8353421  58.6211506
  70.4624542 130.0223198  59.3565417  76.7930998 129.6144798  62.6467096
  76.2861863 128.9073937  62.5788274  77.5898432 129.2837987  62.7768173
  76.8358238 129.4617949  62.6566091  68.7292486 131.0274271  68.4216506
  68.8620391 130.2305265  68.7497482  69.1137638 131.5540674  69.0014782
  68.8048815 130.9874188  68.5560009  71.8024841 127.9504598  65.0197599
  70.9970805 127.8402327  65.3365438  71.6731576 128.0517053  64.1627465
  71.6644974 127.9488268  64.9405640  11.3691653  23.0161635  44.6578368
  11.3385657  23.8706272  44.8296638  11.9673001  22.7156928  45.2164512
  11.4528811  23.0978132  44.7653170   4.5691338  22.1037286  49.4131299
   3.7129233  22.2645784  49.4640415   4.6158991  21.2329350  49.4336360
   4.4490449  21.9988088  49.4237365   7.8785054  28.3723812  59.0191755
   8.5851821  27.8775842  59.1478689   8.0672989  28.8132893  58.2894413
   8.0112960  28.3642162  58.9300800   4.4057437  32.0625373  40.6054077
   4.0708806  32.7402295  40.1698299   4.9184308  31.6730685  40.0170949
   4.4323018  32.1049952  40.4540869   3.9461728  34.0139642  46.5465189
   4.3301108  34.5826541  46.0069964   3.8820870  33.2889153  46.0671005
   3.9935156  33.9915106  46.3959051   7.4143159  24.1629330  52.0562950
   7.9599119  24.8414417  52.1156920   7.3560035  24.0216791  51.1964532
   7.4859073  24.2421332  51.9375011   9.1908227  25.5913937  42.9296678
   9.0747753  26.3421623  43.3588816   9.9864114  25.3337890  43.1792765
   9.2912817  25.6648784  43.0300770   1.0738553  29.5807960  44.2166020
   1.3954394  30.1213167  43.6127329   1.7210649  29.0104732  44.3488310
   1.2164608  29.5767135  44.1473056   3.1240261  21.5823955  44.3000407
   3.8220425  21.7612083  44.7921870   3.4392593  21.0594294  43.6770797
   3.2735598  21.5317727  44.2802417   3.3128196  27.9694400  44.2880199
   3.7521832  27.3611501  44.7334971   3.1632859  27.5901773  43.5165664
   3.3549662  27.8232871  44.2399366   0.7799839  26.5638412  51.4899024
   1.4248842  26.0710855  51.1709973   1.0201616  26.7063199  52.3165102
   0.9110424  26.5115854  51.5648557   3.3185931  29.4093318  51.1405917
   3.6009173  28.6144724  50.9192673   4.0472091  29.8873905  51.1610978
   3.4675494  29.3627915  51.1108932   6.9137533  26.3221581  41.2410968
   6.8288828  27.1782548  41.3860537   7.4021916  26.0465905  41.9093127
   6.9726430  26.4078903  41.3613049   7.8455966  22.9406376  42.7408703
   7.3167437  23.1566009  43.4006009   8.3680986  23.6342514  42.6609672
   7.8444419  23.0749512  42.8264302  13.3004019  28.5152680  48.1141747
  12.4701722  28.7263324  48.2775164  13.2513271  27.6889735  47.8384031
  13.1710754  28.4242286  48.0979113   1.3613756  31.3456534  50.9489657
   0.8440698  30.9863949  50.3450965   2.0588148  30.8218709  50.9595723
   1.3879338  31.2154222  50.8619916   5.0177348  31.7951348  56.9105830
   5.1060694  31.6077489  57.7584040   5.4467061  31.1488778  56.5110677
   5.0939451  31.6714356  56.9777581   2.5847808  31.0782508  55.8923492
   2.0218643  30.6655118  56.4163153   3.3468832  31.0035414  56.3116635
   2.6142257  31.0059909  56.0316493   4.1932788  23.0835244  40.0185092
   4.4328792  23.2913228  39.2060435   4.5148629  22.2792753  40.1274036
   4.2769946  22.9949346  39.9145645  12.7957977  21.1623081  51.9092169
  11.9586398  21.2325268  52.1439763  12.7646208  21.1647576  51.0366471
  12.6676260  21.1733308  51.8151717   7.5188163  25.3578757  47.5004060
   8.2745678  25.7910272  47.5392969   7.6250487  24.7083527  48.0738696
   7.6458334  25.3256241  47.5902086  10.5568334  29.1852034  48.2506463
  10.1203566  29.1888777  49.0065435  10.2231250  29.8657533  47.8186041
  10.4430954  29.2864490  48.2987296   5.1297408  31.2260367  59.5749614
   5.9137824  31.3391215  59.9405356   4.9294002  30.4001504  59.7708299
   5.2163433  31.1207087  59.6584000  10.4765817  16.2265862  50.4935891
  11.1191725  16.2963967  51.0797806  10.7288838  15.5595085  49.9915433
  10.6087949  16.1392211  50.5063170   5.2867801  33.1370469  53.2216069
   4.4883047  32.8969969  53.4789938   5.7353813  33.1884862  53.9683117
   5.2342412  33.1092861  53.3700993  13.6912680  25.9032954  47.1426100
  14.3529114  25.3423623  47.0422009  13.0504092  25.4084985  47.4678792
  13.6941548  25.7469363  47.1758441   4.5789488  29.2003086  39.4507024
   4.9940637  28.8688110  38.7591519   3.7481418  28.9671988  39.3227160
   4.5177497  29.1174342  39.3297871   9.9777511  26.9198337  46.8838089
  10.2133100  27.0643536  46.0564940  10.1267075  27.6840745  47.2769603
  10.0343314  27.0537391  46.8201693  11.8067968  25.7600003  44.7207693
  12.1376185  26.2927643  44.1147788  12.3801056  25.8138890  45.3769644
  11.9401647  25.8469572  44.7285475   4.3468538  26.8830914  61.1136257
   3.5541519  27.1974426  61.2988877   4.4617465  27.0982383  60.2757042
   4.2463948  26.9614751  61.0174592   7.0199857  23.6064905  45.4031273
   7.1146711  24.3454199  45.8570899   6.3958700  23.1782381  45.8365838
   6.9408887  23.6526226  45.5339421   5.2752331  26.7851118  56.0521554
   5.8491192  26.1478362  56.2070118   5.1967134  26.7855200  55.1831212
   5.3485566  26.6916229  55.9467965   7.2722878  25.4513645  38.6368225
   7.1903041  25.5215832  39.5023212   7.9102599  26.0143389  38.4451966
   7.3542716  25.5452616  38.7358175   5.7117099  17.3202834  48.2046844
   5.0073426  16.8312019  48.3630763   5.7602074  17.3325308  47.3335289
   5.6147151  17.2492482  48.0986184   3.2724050  21.2435495  53.4500025
   2.8838483  20.8189713  52.7952216   2.6078748  21.4917645  53.9577051
   3.1170978  21.2174216  53.4287893  12.9147319  21.0010500  46.2247855
  12.6583884  20.1890441  46.0345738  13.7576633  21.0088067  45.9978042
  13.0013345  20.8822497  46.1632672   4.3762988  25.4734099  41.6476832
   5.1903627  25.7648992  41.5359603   4.3122130  24.8193962  41.0735125
   4.4865727  25.4199294  41.5465669  10.5972478  28.1560096  56.0606407
  10.3611116  27.3248160  55.9418468  11.2415707  28.1045703  56.6461252
  10.6567149  28.0257784  56.1292301   0.8873712  24.1657907  41.1124033
   1.2718864  23.9465613  41.8640578   0.6385332  24.9920852  41.2425110
   0.9075784  24.2556053  41.2425110  11.6208899  27.9404544  52.1234702
  11.3154716  28.6732601  52.4848017  10.9015115  27.5342474  51.8427488
  11.4696241  27.9886277  52.1347839   2.6292369  29.4228040  48.4542930
   2.7031377  29.2603211  49.3084780   3.4461875  29.6118229  48.2103412
   2.7608727  29.4264782  48.5440956  17.3210691  24.5797545  51.4503046
  17.2535192  24.5993504  50.5805633  17.3066354  25.4227872  51.6758717
  17.3089448  24.7071280  51.3555523   7.7307038  15.9832703  54.7744135
   8.4760630  15.7942513  54.3607561   7.3144342  16.5090941  54.2157992
   7.7792012  16.0334848  54.6308709   1.1696954  32.3862783  43.1856403
   1.4595253  31.9951764  42.4615630   1.9000435  32.5679488  43.6261679
   1.3203838  32.3556596  43.1439210  15.1069309  23.3541931  49.7249640
  15.6577230  22.7210000  49.9646733  15.0913424  23.8857324  50.4165145
  15.1854505  23.3390879  49.8628499   1.7591699  27.1880529  54.2709534
   1.2603393  27.8996296  54.3494422   2.5691924  27.5081195  54.2327696
   1.8047806  27.3407377  54.2766102   8.8097715  21.5938265  48.8354237
   8.4662481  20.8728600  49.1861486   8.9090757  21.3852116  47.9932595
   8.7739758  21.4562468  48.7625917   9.2710744  28.0563969  44.3778225
   9.8368777  28.7157179  44.2936768   8.6238647  28.4013667  44.8494627
   9.2589500  28.2045910  44.4350981   5.7417322  31.0002753  43.8015304
   5.5003998  30.2670614  43.3942369   5.9218655  31.5489610  43.1481637
   5.7324946  30.9725144  43.6445527   0.9716643  26.2911313  45.2136226
   0.7759425  26.8986048  44.6196529   1.1950988  25.5979257  44.7327900
   0.9751284  26.2788838  45.0552307   7.3288680  19.5129850  50.7113780
   6.4899781  19.5391129  50.4752043   7.3993048  20.1600585  51.2919126
   7.2157074  19.6125976  50.7622896   5.7757959  16.4115227  45.4441396
   6.4784311  16.2122975  44.9661354   5.5102147  15.6391169  45.7510239
   5.8404591  16.2678193  45.4186837  11.2046204  24.7197836  47.9975021
  11.1180179  24.8753263  48.8509800  10.7496684  25.3635912  47.6234426
  11.1249461  24.8373592  48.0682128   5.0772020  22.0408584  46.6200581
   4.8306734  21.9604334  47.4537370   5.4057143  21.2562051  46.4263108
   5.0893264  21.9134849  46.7148104   8.9720069  28.7491943  50.4087362
   8.8334428  29.4472989  50.9136104   8.1920067  28.5940599  50.0523544
   8.8363296  28.8292110  50.4313636   7.3098154  25.0488318  56.6609744
   7.3046193  24.1768135  56.6652170   8.0159148  25.2476487  56.1879199
   7.4143158  24.9492192  56.5916779   1.0369047  24.7765302  56.0323564
   1.1812423  25.3566510  55.3966674   1.3844696  25.1541599  56.7373419
   1.1096509  24.9186006  56.0422559   3.2088965  23.9755471  53.8148696
   2.4612279  24.1686485  53.4096974   3.3630490  23.1500690  53.5772817
   3.1211392  23.8820582  53.7194101  10.4673442  28.1070197  41.1703861
  10.0880251  27.3207335  41.1633151   9.8039687  28.6557054  41.0275506
  10.3131917  28.0715021  41.1484658   2.6350103  33.1382717  54.1769082
   2.5593774  32.4691527  54.7319870   2.5639962  33.8400505  54.6909748
   2.6130710  33.1427624  54.3345930   3.4490742  17.8706021  54.7044099
   3.9063356  18.6029996  54.8316891   3.5247071  17.4472487  55.4631355
   3.5281712  17.9163259  54.8345176   3.2920350  31.6583716  45.0092688
   4.0570241  31.3893359  44.6875352   3.1898440  31.1733726  45.7262750
   3.3901845  31.5473280  45.0672515   5.8139011  28.6895899  36.9892637
   6.5811996  28.7496024  36.5798489   5.3670319  28.1176341  36.5048955
   5.8612438  28.6132475  36.8570347   6.7116806  27.4950555  49.2745369
   6.0361808  27.2635788  49.7758756   6.7209182  26.8871738  48.6487474
   6.6135311  27.3709481  49.2561521   3.8410950  22.3368384  56.0309422
   3.7770091  23.1978341  55.9029559   3.9808138  22.0200378  55.2304973
   3.8526420  22.4168551  55.8937635   8.7133541  30.3515688  41.5055547
   8.7953378  31.1582674  41.1816998   9.1983283  30.3711647  42.2296321
   8.7970698  30.4736350  41.5642446   2.5230044  25.0300524  50.1725625
   2.0992293  25.2305023  49.4364643   2.3474899  24.1829372  50.2849925
   2.4340925  24.9349305  50.0799315   2.0241737  36.5451037  52.6347082
   2.5137668  35.8461826  52.4522747   1.4525970  36.2474907  53.2223140
   2.0126267  36.3977260  52.6948123   4.3491633  24.9010459  44.4746961
   4.8907179  24.3980840  44.9385581   4.6638193  24.8475653  43.6636446
   4.4756031  24.8189880  44.4230773   8.2208741  29.1113106  61.5873873
   9.0343606  28.8398255  61.7479006   8.0603707  28.8120646  60.7834069
   8.3178689  29.0268032  61.4919279   2.5178083  30.2927810  41.7586989
   2.5870903  29.4342349  41.8979989   3.2966538  30.5099691  41.4306013
   2.6430933  30.1980674  41.7304146   5.4980903  19.7946763  54.5269261
   5.7122872  19.1557677  53.9732615   4.8814802  20.2392587  54.0977123
   5.4386232  19.7656907  54.3819692   6.9085571  32.7165511  45.9723482
   6.5165362  32.4132227  45.2546348   7.0638643  33.5534601  45.7828436
   6.8739161  32.7949348  45.8379979   7.6619991  21.4035828  55.4652568
   6.8496673  21.0961719  55.5465741   8.1209925  20.9234828  56.0295281
   7.6100376  21.2872321  55.5607163   7.0725246  29.2815500  45.9129513
   6.7139900  29.4530143  46.6893545   6.5863956  29.7428706  45.3557511
   6.9483942  29.3754471  45.9454782   1.8613611  24.9614666  38.4529747
   2.1506136  25.7379548  38.7273321   1.9485410  24.4503397  39.1544246
   1.9167867  25.0006584  38.5972245   4.7573498  22.8095900  60.2481271
   5.2273130  23.4338016  60.6349145   4.8035379  22.1412875  60.8074485
   4.8341374  22.8030580  60.3881342   8.2329985  30.1719396  56.8596714
   8.8709705  29.6779592  56.5259170   7.5904076  30.0996797  56.2748940
   8.2324211  30.0878405  56.7239069   9.9586985  22.0208542  51.4262629
   9.5314593  21.9334891  50.6710729   9.3213038  22.1286318  52.0117473
   9.8016592  22.0241202  51.4008071   3.4508062  17.1284067  57.3659599
   4.2781491  16.8569216  57.4218213   3.4715908  17.9244909  57.7223417
   3.5760912  17.2063822  57.4274781   8.2884241  30.8639205  53.5002070
   9.0776620  30.5128269  53.6204152   8.4627839  31.6775593  53.2378704
   8.4304523  30.9325062  53.4789938   7.1418066  14.8748761  48.0618489
   7.3467659  14.8071069  48.9075486   6.8144490  15.6807582  47.9939666
   7.1233314  14.9834702  48.1778144   1.8394217  22.2029329  49.8027457
   1.5357354  21.6485318  50.4037864   1.1373638  22.3821539  49.3155491
   1.6910427  22.1474112  49.8197162   0.8960314  19.5129849  44.3672159
   1.1720048  18.7948762  43.9549726   1.4958983  20.1114769  44.1593265
   1.0253578  19.4950220  44.2752920  10.3951753  15.4280526  47.5421254
   9.7826067  15.9150928  47.9274986  10.4915928  14.7524016  48.0858905
  10.3189651  15.3998834  47.6800112   4.3970834  17.1843367  42.6418754
   4.8514581  17.3553927  43.3666598   4.8710880  16.5711477  42.2416529
   4.5339154  17.1194252  42.6892515  14.0376781  26.4997462  52.9698770
  14.0959905  26.9484111  53.7158747  13.4043249  26.9096275  52.5328850
  13.9528076  26.6271197  53.0151319   7.6775876  32.1201004  49.4053517
   7.4795565  32.6091819  48.7109728   7.0563587  32.3242246  49.9837650
   7.5563440  32.2217542  49.3876740   1.7383854  23.8885901  43.7463761
   2.4825899  24.2760177  43.9846711   1.8844551  23.0443326  43.9104249
   1.8694439  23.8216374  43.8057731   4.7261730  19.4611374  49.6457680
   4.2521684  18.9353136  50.1562991   5.0979866  18.9140847  49.0772542
   4.7111619  19.3027371  49.6372827  10.9898461  24.5213750  51.0564461
  10.7496684  23.6820165  51.0606887  11.4690468  24.6013917  51.7805234
  11.0250644  24.4095150  51.1639263   6.6545230  20.3547929  42.7083434
   6.1268248  20.4376673  42.0189143   7.1140938  21.0965800  42.7048079
   6.6447080  20.4768591  42.6058129  12.9903648  21.3015207  49.0093720
  12.7513418  21.2611041  48.1714504  13.1537549  22.1486359  49.1359441
  12.9793951  21.4207292  48.9047202   9.5949678  25.6865156  54.9398765
  10.3183877  25.2337683  54.7609785   9.3299640  25.9669822  54.1571093
   9.6630951  25.6616125  54.7977480   6.2082312  28.9251492  41.8393091
   6.9316511  29.3909605  41.6957664   5.7682903  28.9925102  41.0890688
   6.2498005  29.0035329  41.7077872   5.3768467  25.7849035  53.0893780
   4.7625461  25.2407085  53.3842415   5.8935752  25.2713271  52.6099596
   5.3624130  25.6285444  53.0618008   4.6164765  26.8553305  50.8238079
   4.1892373  26.2303023  50.3903514   4.6089709  26.5728227  51.6497086
   4.5523906  26.7206085  50.8817906   2.9450474  17.7322059  51.0380613
   2.9692961  17.1982172  50.3493393   3.1961948  17.2239368  51.7006203
   2.9860393  17.5782963  51.0345257  12.0284992  24.6491567  53.4429315
  12.6202832  25.2888818  53.4747513  12.4643986  23.9514604  53.7321381
  12.1803423  24.6409918  53.4910147   3.8578382  29.0708940  54.0687209
   3.3503473  29.6244787  54.5127839   3.5605028  29.1317230  53.2505983
   3.7383267  29.1615251  54.0135665   6.0240564  17.4362259  52.9111872
   6.4495636  16.9834786  52.2995398   5.4097557  16.8822330  53.1876659
   5.9969209  17.2876236  52.8616897   6.4686162  32.9872197  41.9991152
   5.7515472  32.8133060  41.5338389   7.1192900  32.7524770  41.4666638
   6.4588013  32.9267990  41.8520370   9.0534133  21.8636786  45.7432457
   8.3825323  22.4066488  45.6145523   9.7473884  22.3331641  45.5014152
   9.0563001  22.0135057  45.6887985   3.1020867  34.0033498  50.9744215
   2.8786521  33.2452327  51.3428242   2.6130710  34.0331519  50.2524655
   2.9964316  33.8955722  50.9220956   9.2162261  18.3192670  48.6522830
   9.5689871  17.8922392  49.3268629   8.3577062  18.2343513  48.7823907
   9.1411705  18.2437410  48.7717841   7.2145527  21.5828038  52.6007673
   7.1943454  21.4011333  53.4542451   7.2624727  22.4540057  52.5767256
   7.2180168  21.6844576  52.7230967   5.1591856  28.1715230  58.5256149
   5.1187711  27.5264907  57.9401305   5.9715175  28.1151848  58.8381561
   5.2735010  28.0674197  58.4853098   1.7499324  34.2233956  48.4281300
   1.3359723  33.5608086  48.0385142   2.4346698  34.3711815  47.9076994
   1.7897696  34.1474614  48.2937797   5.1164618  33.3824041  49.1804917
   4.7180901  33.4926312  48.4125737   4.5015838  33.5906108  49.7631476
   4.9663507  33.4297609  49.1536216   3.6892520  19.9898189  42.0479056
   3.0957359  20.3115186  41.4963623   3.7267798  19.1439285  41.8400162
   3.6066909  19.9122517  41.9361828  10.6486321  13.4411081  49.5807143
  10.1417185  12.7340221  49.5128320  11.4453755  13.1104270  49.7108219
  10.6913560  13.2884233  49.5906138   6.5650337  19.9477694  45.4780807
   6.3364030  19.9710395  44.6359165   6.8248413  19.1235161  45.5975817
   6.5696525  19.8293774  45.3706004  12.8506461  27.9576008  42.5648007
  13.2340067  28.7067364  42.7946104  12.0550574  28.2041828  42.3059996
  12.7900243  28.1045702  42.5605581   4.7238635  19.7236411  57.5208162
   5.2810066  19.4950221  56.8886628   4.3999700  20.4842077  57.2443375
   4.7585046  19.8020248  57.3864659   2.4421753  22.8104065  58.4860169
   3.1933080  23.1255741  58.7999724   2.6344329  22.6083236  57.6594091
   2.5813167  22.8271446  58.4103565   1.6621752  20.6295440  40.1408386
   2.0420717  20.6475069  39.3559501   0.9214348  21.0749429  40.0199234
   1.6090590  20.6977214  40.0071954   9.2907043  18.9377631  45.7283965
   9.2901269  18.7826287  46.5868241   9.0863223  19.7840618  45.6725350
   9.2606821  19.0398252  45.8471904   7.0147895  23.6175133  49.3820172
   7.5101560  22.8998128  49.3424192   6.2047671  23.3145930  49.2674659
   6.9691788  23.4672779  49.3593898   2.4606506  27.4672946  41.5317176
   1.6517829  27.1439620  41.4850486   2.9681415  26.7606168  41.4645425
   2.4156173  27.3154262  41.5147471   9.0799714  26.3678820  52.0697301
   9.5054785  25.8453242  51.5167726   8.7156634  26.9659658  51.5485923
   9.0886316  26.3789047  51.9106310   5.6678313  30.0813084  48.3998458
   6.1389491  30.7953347  48.5688443   6.0038492  29.4811835  48.9358328
   5.7873428  30.0984549  48.5030834   7.7555298  31.6914398  60.5790530
   7.8652263  30.9022958  60.9347277   8.0846194  31.6020334  59.7764868
   7.8207704  31.5620251  60.5132921   6.3052260  29.8731019  55.1626151
   5.7573206  29.2488902  54.8946216   6.7665288  30.0625291  54.4470230
   6.2919469  29.8090069  55.0176582   9.1146124  17.9416373  52.5477343
   8.5309113  18.4425580  52.1354910   9.4350418  17.4345929  51.9141666
   9.0759299  17.9408208  52.3935850   5.8710586  30.8782091  51.6935492
   6.6908960  30.7345057  51.9551787   5.5904664  31.5028290  52.2351930
   5.9507329  30.9492443  51.8123431  22.3424236  38.5346943  44.6578368
  22.3118241  39.3891580  44.8296638  22.9405585  38.2342236  45.2164512
  22.4261394  38.6163440  44.7653170  15.5423921  37.6222594  49.4131299
  14.6861817  37.7831092  49.4640415  15.5891575  36.7514658  49.4336360
  15.4223033  37.5173396  49.4237365   9.9265061  47.1585312  45.1768530
   9.1747960  46.7800850  44.9484575  10.3751072  47.1903746  44.4287340
   9.8814728  47.1070919  45.0326032  18.8517638  43.8909120  59.0191755
  19.5584405  43.3961150  59.1478689  19.0405573  44.3318201  58.2894413
  18.9845543  43.8827470  58.9300800  15.3790021  47.5810681  40.6054077
  15.0441389  48.2587603  40.1698299  15.8916891  47.1915993  40.0170949
  15.4055602  47.6235260  40.4540869  14.9194312  49.5324950  46.5465189
  15.3033691  50.1011849  46.0069964  14.8553453  48.8074460  46.0671005
  14.9667739  49.5100414  46.3959051  18.3875742  39.6814638  52.0562950
  18.9331702  40.3599725  52.1156920  18.3292618  39.5402099  51.1964532
  18.4591656  39.7606640  51.9375011  11.5049817  47.1703704  47.4431303
  11.6060180  46.3604058  47.7528430  10.9091562  47.0760650  46.8130981
  11.4322356  47.0368732  47.3957541  20.1640811  41.1099245  42.9296678
  20.0480337  41.8606931  43.3588816  20.9596697  40.8523198  43.1792765
  20.2645400  41.1834092  43.0300770  11.3450557  52.0881293  48.8446159
  11.9888012  52.5294457  49.2342317  11.6706812  51.2834719  48.7576417
  11.4882385  52.0346488  48.8891636   4.7014861  43.1923991  47.0683636
   4.4665046  42.3591643  46.9615905   4.8400502  43.4728656  46.2544837
   4.6870524  43.1107494  46.9325991   7.0004949  35.3609721  49.9667944
   6.3809980  34.7702368  49.7977959   6.8988812  35.9521156  49.3332267
   6.8942624  35.3613804  49.8472934  12.0471136  45.0993268  44.2166020
  12.3686977  45.6398475  43.6127329  12.6943233  44.5290039  44.3488310
  12.1897191  45.0952443  44.1473056  14.0972844  37.1009263  44.3000407
  14.7953009  37.2797391  44.7921870  14.4125177  36.5779602  43.6770797
  14.2468182  37.0503035  44.2802417   6.7274082  38.9062003  52.2111513
   6.6032779  39.4924448  52.8461332   7.3792366  38.4122199  52.5123788
   6.8047731  38.9200807  52.3497442  14.2860780  43.4879708  44.2880199
  14.7254415  42.8796809  44.7334971  14.1365443  43.1087081  43.5165664
  14.3282245  43.3418179  44.2399366  11.7532423  42.0823720  51.4899024
  12.3981425  41.5896163  51.1709973  11.9934200  42.2248506  52.3165102
  11.8843008  42.0301162  51.5648557  14.2918514  44.9278626  51.1405917
  14.5741757  44.1330031  50.9192673  15.0204674  45.4059213  51.1610978
  14.4408078  44.8813223  51.1108932  12.2699708  32.4701660  48.3821682
  11.9403038  32.9212803  47.7125381  11.5944710  32.3917823  48.9294688
  12.1210144  32.5252795  48.3644905  17.8870116  41.8406889  41.2410968
  17.8021411  42.6967856  41.3860537  18.3754500  41.5651213  41.9093127
  17.9459014  41.9264211  41.3613049  19.4776116  28.4587183  46.6271292
  19.1629557  29.1490661  47.0591715  18.9603057  28.4031965  45.9256793
  19.3540586  28.5522071  46.5868242  18.8188550  38.4591684  42.7408703
  18.2900021  38.6751317  43.4006009  19.3413569  39.1527822  42.6609672
  18.8177002  38.5934820  42.8264302  24.2736602  44.0337988  48.1141747
  23.4434306  44.2448632  48.2775164  24.2245855  43.2075043  47.8384031
  24.1443338  43.9427594  48.0979113  10.7088157  42.3554900  41.5416171
  10.1245373  42.8604932  41.9482035  10.3058252  42.1297287  40.8012763
  10.5627461  42.3963149  41.4921196   6.2632186  48.0709661  48.3439843
   5.7799764  48.7960151  48.3199426   7.0755504  48.3685791  48.4550000
   6.3122934  48.2212015  48.3567122  12.3346340  46.8641842  50.9489657
  11.8173282  46.5049257  50.3450965  13.0320731  46.3404017  50.9595723
  12.3611921  46.7339530  50.8619916  15.9909932  47.3136656  56.9105830
  16.0793278  47.1262797  57.7584040  16.4199645  46.6674086  56.5110677
  16.0672034  47.1899664  56.9777581  13.5580392  46.5967816  55.8923492
  12.9951227  46.1840426  56.4163153  14.3201415  46.5220722  56.3116635
  13.5874840  46.5245217  56.0316493  15.1665372  38.6020552  40.0185092
  15.4061375  38.8098536  39.2060435  15.4881213  37.7978061  40.1274036
  15.2502530  38.5134654  39.9145645  10.4755662  30.5313948  43.8644630
  11.2301630  30.8992265  43.6261680  10.2983197  30.9053502  44.6323809
  10.5610140  30.6412136  43.9429518   9.1176383  48.5865837  48.4960122
   9.8196962  48.0717826  48.5532879   9.0373866  48.9139989  49.3006997
   9.2100144  48.5580064  48.6232915  23.7690561  36.6808389  51.9092169
  22.9318982  36.7510576  52.1439763  23.7378792  36.6832883  51.0366471
  23.6408843  36.6918616  51.8151717  10.1655290  38.8241424  57.6240537
  10.3375793  38.7147319  58.4725819  10.7024647  39.4695830  57.3871730
  10.2700294  38.9033426  57.7145634   8.8312727  32.9384267  40.5622743
   8.6488300  33.1556148  39.7363735   9.6938340  33.0523280  40.6181357
   8.9317316  32.9874165  40.4477230   8.4427159  44.7772189  48.0045730
   9.2816058  45.0095122  48.0519492   8.4738928  43.9076501  47.9352766
   8.5708876  44.6829136  48.0010375   9.0679862  45.1973065  52.3059036
   9.6078087  45.0544196  52.9762408   8.3849808  45.5969815  52.6743062
   9.0472016  45.2352735  52.4593458  14.5112446  29.9410678  43.5971766
  15.2398606  29.7626633  43.1509923  14.6007339  30.7828758  43.8078944
  14.6319108  30.0394556  43.5625284  18.4920747  40.8764065  47.5004060
  19.2478262  41.3095580  47.5392969  18.5983071  40.2268835  48.0738696
  18.6190917  40.8441549  47.5902086  21.5300918  44.7037342  48.2506463
  21.0936150  44.7074085  49.0065435  21.1963833  45.3842841  47.8186041
  21.4163538  44.8049798  48.2987296  16.1029991  46.7445675  59.5749614
  16.8870408  46.8576523  59.9405356  15.9026586  45.9186812  59.7708299
  16.1896017  46.6392395  59.6584000   4.4717007  41.4173355  52.4593457
   4.2055422  40.6012472  52.6184448   4.4855571  41.4626511  51.5888973
   4.4341729  41.3030260  52.3546939  21.4498401  31.7451170  50.4935891
  22.0924309  31.8149275  51.0797806  21.7021421  31.0780393  49.9915433
  21.5820533  31.6577519  50.5063170   8.3774754  36.2158440  39.0745216
   7.6632931  35.9296619  39.4867648   8.8618722  36.5555066  39.7151603
   8.3434117  36.2240089  39.2300850   9.2215613  34.9551734  55.1060465
   8.5287410  34.4848713  55.3521197   9.8375940  34.7290038  55.6802172
   9.2100143  34.8518865  55.2269618  16.2600385  48.6555777  53.2216069
  15.4615630  48.4155277  53.4789938  16.7086396  48.7070170  53.9683117
  16.2074996  48.6278168  53.3700993  24.6645264  41.4218262  47.1426100
  25.3261698  40.8608931  47.0422009  24.0236676  40.9270293  47.4678792
  24.6674131  41.2654671  47.1758441  15.5522072  44.7188394  39.4507024
  15.9673220  44.3873418  38.7591519  14.7214001  44.4857296  39.3227160
  15.4910080  44.6359650  39.3297871   4.8810420  42.2032135  49.7405202
   4.6985994  42.1779021  48.8877494   5.6160089  42.6731073  49.7794110
   4.9624484  42.2693497  49.6203120  20.9510095  42.4383645  46.8838089
  21.1865684  42.5828844  46.0564940  21.0999658  43.2026053  47.2769603
  21.0075898  42.5722699  46.8201693   7.9456172  38.9217138  56.2487310
   8.6696144  38.9070168  56.7352205   8.0472309  39.6312493  55.7509279
   8.0674381  39.0241841  56.2466097  22.7800551  41.2785311  44.7207693
  23.1108768  41.8112951  44.1147788  23.3533639  41.3324198  45.3769644
  22.9134230  41.3654879  44.7285475  15.3201121  42.4016222  61.1136257
  14.5274102  42.7159734  61.2988877  15.4350049  42.6167691  60.2757042
  15.2196532  42.4800059  61.0174592  17.9932440  39.1250213  45.4031273
  18.0879295  39.8639507  45.8570899  17.3691284  38.6967689  45.8365838
  17.9141471  39.1711534  45.5339421  16.2484914  42.3036426  56.0521554
  16.8223776  41.6663670  56.2070118  16.1699718  42.3040508  55.1831212
  16.3218149  42.2101537  55.9467965   4.8481331  39.0825635  49.8904268
   5.4254833  38.9462086  50.5296514   4.1495392  38.6261420  50.1449853
   4.8302352  38.9947902  50.0226558  18.2455462  40.9698953  38.6368225
  18.1635624  41.0401140  39.5023212  18.8835182  41.5328697  38.4451966
  18.3275299  41.0637924  38.7358175  11.6048633  40.7359691  48.1042752
  11.3467877  39.9031426  48.0774051  11.6597116  40.9617304  47.2635252
  11.5748411  40.6457462  47.9762888  16.6849683  32.8388142  48.2046844
  15.9806010  32.3497327  48.3630763  16.7334657  32.8510616  47.3335289
  16.5879735  32.7677790  48.0986184  10.5783345  38.2897454  48.5907646
  10.0032936  38.4489622  49.2271607  10.2019021  37.6532863  48.1276097
  10.4386157  38.2195266  48.6162205  14.2456634  36.7620803  53.4500025
  13.8571066  36.3375021  52.7952216  13.5811332  37.0102952  53.9577051
  14.0903561  36.7359524  53.4287893  23.8879903  36.5195807  46.2247855
  23.6316468  35.7075749  46.0345738  24.7309217  36.5273375  45.9978042
  23.9745928  36.4007805  46.1632672  18.0682995  30.4595432  50.9624009
  18.4493507  29.7773603  51.3491883  17.2646279  30.1705034  50.7799673
  18.0059457  30.3162480  50.9928065  15.3495572  40.9919407  41.6476832
  16.1636211  41.2834300  41.5359603  15.2854713  40.3379270  41.0735125
  15.4598311  40.9384602  41.5465669  21.5705062  43.6745404  56.0606407
  21.3343699  42.8433468  55.9418468  22.2148291  43.6231011  56.6461252
  21.6299733  43.5443091  56.1292301  11.2203480  44.4640925  46.7749144
  11.8577427  44.2252672  47.3200937  11.6458552  44.6678084  46.0402304
  11.3779646  44.4591935  46.7466301   5.9116123  46.7029261  50.6583448
   5.9520268  46.9744112  49.8303227   6.4710647  47.2271169  51.0741235
   5.9999468  46.8205016  50.5975336  11.8606295  39.6843215  41.1124033
  12.2451448  39.4650921  41.8640578  11.6117916  40.5106160  41.2425110
  11.8808368  39.7741361  41.2425110  12.0274836  32.9649630  60.8286617
  11.7128277  33.7349193  60.5656180  11.7064768  32.4019886  60.2438844
  11.9333755  32.9959899  60.7027967  22.5941483  43.4589852  52.1234702
  22.2887300  44.1917909  52.4848017  21.8747698  43.0527782  51.8427488
  22.4428825  43.5071585  52.1347839  13.6024952  44.9413347  48.4542930
  13.6763960  44.7788519  49.3084780  14.4194458  45.1303537  48.2103412
  13.7341311  44.9450090  48.5440956  28.2943275  40.0982853  51.4503046
  28.2267775  40.1178812  50.5805633  28.2798937  40.9413180  51.6758717
  28.2822031  40.2256588  51.3555523   7.3630709  45.2871210  45.4837374
   6.5368826  45.5332947  45.3571652   7.4242700  45.2083291  46.3499432
   7.2504876  45.3116159  45.5926318   9.5806733  31.3540151  46.4432814
   8.7129158  31.4262751  46.5090423   9.8681937  32.1562230  46.6320789
   9.4946481  31.4834298  46.4807580  18.7039621  31.5018011  54.7744135
  19.4493213  31.3127821  54.3607561  18.2876926  32.0276249  54.2157992
  18.7524596  31.5520156  54.6308709  12.1429538  47.9048091  43.1856403
  12.4327836  47.5137072  42.4615630  12.8733019  48.0864795  43.6261679
  12.2936422  47.8741904  43.1439210  26.0801892  38.8727239  49.7249640
  26.6309814  38.2395308  49.9646733  26.0646008  39.4042632  50.4165145
  26.1587089  38.8576187  49.8628499  12.7324283  42.7065836  54.2709534
  12.2335977  43.4181604  54.3494422  13.5424507  43.0266503  54.2327696
  12.7780390  42.8592685  54.2766102  10.0835453  49.8815473  46.2516553
   9.8635749  49.5912828  47.0443220   9.8629975  49.2230428  45.7234465
  10.0183048  49.7415181  46.2905462   8.9952401  41.9688789  48.5172255
   8.7065649  41.3426261  49.0517982   9.8635749  41.9109077  48.5836935
   9.0812653  41.8676334  48.6063209  19.7830298  37.1123573  48.8354237
  19.4395064  36.3913908  49.1861486  19.8823341  36.9037424  47.9932595
  19.7472341  36.9747776  48.7625917  12.2503409  51.2544863  45.0347246
  12.9027467  50.7221305  45.2638272  11.5529018  50.9013515  45.4215120
  12.2434127  51.1234386  45.1259413   9.1984674  43.6084041  44.4414620
   9.9530642  43.9897080  44.6550082   8.6055287  44.0595184  44.8961316
   9.2221388  43.7312868  44.5397498  20.2443327  43.5749277  44.3778225
  20.8101360  44.2342487  44.2936768  19.5971231  43.9198975  44.8494627
  20.2322084  43.7231218  44.4350981  11.6591341  35.5646881  59.5671832
  10.8491117  35.8704661  59.4561674  12.1366028  36.2852463  59.6824416
  11.6094820  35.7161482  59.5678903  10.5182901  44.7792602  49.8154735
   9.9963654  44.9192894  50.5006600  10.9056921  44.0203266  50.0056853
  10.4986602  44.6878126  49.9455812   7.5074085  34.8298411  43.8849690
   7.2198880  34.4599681  43.1481637   8.1944553  35.2993266  43.6233395
   7.5662982  34.8445380  43.7364766  16.7149906  46.5188061  43.8015304
  16.4736582  45.7855922  43.3942369  16.8951238  47.0674918  43.1481637
  16.7057530  46.4910452  43.6445527  11.9449226  41.8096621  45.2136226
  11.7492009  42.4171355  44.6196529  12.1683572  41.1164565  44.7327900
  11.9483867  41.7974146  45.0552307  10.3427756  38.6951359  45.3317095
  11.0650408  38.8592517  44.8720901   9.8635749  39.4161024  45.2256434
  10.3791487  38.8249588  45.2482709  18.3021264  35.0315158  50.7113780
  17.4632364  35.0576436  50.4752043  18.3725631  35.6785893  51.2919126
  18.1889657  35.1311283  50.7622896   7.9935373  41.1009431  54.4371234
   8.5056470  41.3793684  53.7879994   7.7071716  41.8398725  54.8034048
   8.0270236  41.2511785  54.3961113  16.7490542  31.9300535  45.4441396
  17.4516895  31.7308283  44.9661354  16.4834731  31.1576477  45.7510239
  16.8137174  31.7863501  45.4186837  22.1778788  40.2383144  47.9975021
  22.0912762  40.3938570  48.8509800  21.7229268  40.8821220  47.6234426
  22.0982044  40.3558899  48.0682128   5.0802279  35.6079623  44.7334971
   5.1818416  36.4105784  45.0615946   5.8758166  35.4066959  44.4358052
   5.2130185  35.6965522  44.7370326  11.5119098  33.1935820  54.4972276
  11.3202295  33.2090954  55.3471700  12.3617694  33.3899494  54.4738931
  11.6094820  33.2250171  54.6195571   5.8966011  35.7226801  52.4756093
   5.7551503  34.8710742  52.6000601   6.1806575  35.7655462  51.6518299
   5.9173857  35.6026551  52.3723717  16.0504604  37.5593891  46.6200581
  15.8039318  37.4789642  47.4537370  16.3789727  36.7747359  46.4263108
  16.0625847  37.4320157  46.7148104  19.9452653  44.2677251  50.4087362
  19.8067012  44.9658297  50.9136104  19.1652650  44.1125907  50.0523544
  19.8095879  44.3477417  50.4313636  18.2830738  40.5673626  56.6609744
  18.2778776  39.6953443  56.6652170  18.9891732  40.7661795  56.1879199
  18.3875742  40.4677500  56.5916779  12.0101631  40.2950610  56.0323564
  12.1545007  40.8751818  55.3966674  12.3577280  40.6726907  56.7373419
  12.0829092  40.4371314  56.0422559  14.1821548  39.4940778  53.8148696
  13.4344862  39.6871793  53.4096974  14.3363074  38.6685998  53.5772817
  14.0943976  39.4005890  53.7194101  11.0829386  48.4853382  52.8984591
  11.2318950  47.9256298  52.2457995  11.8629388  48.5645384  53.2817110
  11.2203480  48.4138947  52.8581540  21.4406025  43.6255505  41.1703861
  21.0612834  42.8392643  41.1633151  20.7772271  44.1742362  41.0275506
  21.2864500  43.5900329  41.1484658  13.6082687  48.6568025  54.1769082
  13.5326358  47.9876835  54.7319870  13.5372546  49.3585813  54.6909748
  13.5863294  48.6612932  54.3345930  14.4223325  33.3891329  54.7044099
  14.8795939  34.1215303  54.8316891  14.4979654  32.9657794  55.4631355
  14.5014295  33.4348567  54.8345176   6.6656317  33.6357149  55.7933543
   6.1298506  33.0237507  56.1094310   6.7274081  34.2105285  56.4467210
   6.5951949  33.6304077  55.9368970  18.8950651  26.5681204  48.5737942
  19.0134219  27.0257668  47.8405245  18.7212827  25.7626466  48.2874160
  18.8869822  26.5174976  48.4238876  14.2652934  47.1769024  45.0092688
  15.0302825  46.9078667  44.6875352  14.1631024  46.6919034  45.7262750
  14.3634429  47.0658588  45.0672515  12.3005703  35.3793433  51.5485923
  11.5101778  35.1984893  51.8703259  12.6966326  34.6020386  51.5316218
  12.2422580  35.2380894  51.5938472  16.7871594  44.2081207  36.9892637
  17.5544579  44.2681332  36.5798489  16.3402903  43.6361649  36.5048955
  16.8345021  44.1317783  36.8570347  17.6849390  43.0135863  49.2745369
  17.0094391  42.7821095  49.7758756  17.6941766  42.4057046  48.6487474
  17.5867894  42.8894788  49.2561521  14.8143534  37.8553692  56.0309422
  14.7502675  38.7163649  55.9029559  14.9540721  37.5385685  55.2304973
  14.8259004  37.9353859  55.8937635  19.6866124  45.8700996  41.5055547
  19.7685962  46.6767982  41.1816998  20.1715866  45.8896955  42.2296321
  19.7703282  45.9921658  41.5642446  13.4962627  40.5485832  50.1725625
  13.0724877  40.7490331  49.4364643  13.3207483  39.7014680  50.2849925
  13.4073508  40.4534613  50.0799315  12.9974321  52.0636345  52.6347082
  13.4870251  51.3647134  52.4522747  12.4258553  51.7660215  53.2223140
  12.9858851  51.9162568  52.6948123   8.7845072  41.0437883  45.6053598
   8.9409692  40.9784686  46.4609590   9.1245666  41.8186436  45.3932277
   8.8578307  41.1487081  45.7008192  15.3224217  40.4195767  44.4746961
  15.8639763  39.9166148  44.9385581  15.6370776  40.3660961  43.6636446
  15.4488614  40.3375187  44.4230773  19.1941324  44.6298414  61.5873873
  20.0076190  44.3583563  61.7479006  19.0336291  44.3305954  60.7834069
  19.2911273  44.5453340  61.4919279  13.4910667  45.8113118  41.7586989
  13.5603487  44.9527657  41.8979989  14.2699122  46.0284999  41.4306013
  13.6163517  45.7165982  41.7304146  16.4713486  35.3132071  54.5269261
  16.6855456  34.6742985  53.9732615  15.8547386  35.7577895  54.0977123
  16.4118816  35.2842215  54.3819692  17.8818154  48.2350819  45.9723482
  17.4897946  47.9317535  45.2546348  18.0371227  49.0719909  45.7828436
  17.8471744  48.3134656  45.8379979   5.3579334  38.2272833  45.9214365
   5.7378299  38.6457378  45.2574632   4.7834699  38.8086289  46.2283208
   5.3290659  38.3750692  45.8691106  18.6352574  36.9221136  55.4652568
  17.8229256  36.6147027  55.5465741  19.0942509  36.4420136  56.0295281
  18.5832959  36.8057629  55.5607163  18.0457829  44.8000808  45.9129513
  17.6872484  44.9715451  46.6893545  17.5596540  45.2614014  45.3557511
  17.9216526  44.8939779  45.9454782  15.8628215  28.4232007  49.5156604
  14.9921773  28.3970728  49.4689914  16.1168556  28.2509199  48.6982450
  15.7721775  28.3942150  49.3876741  12.8346195  40.4799974  38.4529747
  13.1238719  41.2564856  38.7273321  12.9217993  39.9688705  39.1544246
  12.8900451  40.5191892  38.5972245  15.7306082  38.3281208  60.2481271
  16.2005713  38.9523324  60.6349145  15.7767962  37.6598183  60.8074485
  15.8073958  38.3215888  60.3881342  12.8877356  30.4338235  50.9730074
  12.3715844  29.7418427  51.0981653  12.3271284  31.1009012  50.9192673
  12.7283869  30.4301493  50.9836140  14.9569589  30.9731195  52.8022927
  14.5701342  30.9980227  53.5836457  14.4702526  30.4072874  52.3497444
  14.8282098  30.8926946  52.8510831  19.2062568  45.6904704  56.8596714
  19.8442289  45.1964900  56.5259170  18.5636660  45.6182105  56.2748940
  19.2056795  45.6063713  56.7239069  20.9319569  37.5393850  51.4262629
  20.5047177  37.4520199  50.6710729  20.2945622  37.6471626  52.0117473
  20.7749176  37.5426510  51.4008071  14.6226731  27.8598181  55.0933187
  15.2519849  28.3958481  54.8154257  14.7912593  27.7675540  55.9446753
  14.7404525  27.9259543  55.1781715  14.4240646  32.6469375  57.3659599
  15.2514075  32.3754524  57.4218213  14.4448492  33.4430217  57.7223417
  14.5493496  32.7249130  57.4274781  19.2616825  46.3824512  53.5002070
  20.0509203  46.0313577  53.6204152  19.4360423  47.1960901  53.2378704
  19.4037107  46.4510370  53.4789938   9.0010135  39.7933238  50.5529859
   8.1598142  39.6937112  50.7608753   9.2100143  40.5628718  50.9044180
   8.9074828  39.8925282  50.6357174   6.4785702  37.4152775  48.3814610
   6.0842400  37.4895787  47.6064719   5.9225819  37.8010722  48.9322972
   6.3388515  37.4834550  48.3482270  18.1150649  30.3934069  48.0618489
  18.3200243  30.3256377  48.9075486  17.7877073  31.1992890  47.9939666
  18.0965897  30.5020010  48.1778144  12.8126800  37.7214637  49.8027457
  12.5089938  37.1670626  50.4037864  12.1106221  37.9006847  49.3155491
  12.6643010  37.6659420  49.8197162  11.8692897  35.0315157  44.3672159
  12.1452632  34.3134070  43.9549726  12.4691567  35.6300077  44.1593265
  11.9986162  35.0135528  44.2752920  10.8745151  44.9364358  54.5099554
  10.7665506  44.9466420  55.3761613  11.0840933  45.7619139  54.3204508
  10.8895262  45.0605433  54.6103646  21.3684337  30.9465833  47.5421254
  20.7558651  31.4336236  47.9274986  21.4648512  30.2709324  48.0858905
  21.2922235  30.9184142  47.6800112  15.3703418  32.7028675  42.6418754
  15.8247164  32.8739235  43.3666598  15.8443464  32.0896785  42.2416529
  15.5071738  32.6379560  42.6892515   8.8918943  42.1877001  51.9721492
   8.3006877  42.8286499  51.9424507   9.6539967  42.6114618  51.9452792
   8.9167204  42.3452839  51.9636639   9.2879566  33.3478998  52.6389510
   9.7481048  33.4217928  53.3764633   9.3335673  34.1460252  52.2889331
   9.3630121  33.4773145  52.6962266  10.9362916  34.0145693  57.2061537
  10.5448481  33.3679040  57.6417315  11.1048779  34.6057128  57.8255792
  10.9033826  34.0059961  57.3624243  25.0109365  42.0182770  52.9698770
  25.0692489  42.4669419  53.7158747  24.3775832  42.4281583  52.5328850
  24.9260660  42.1456505  53.0151319  18.6508460  47.6386312  49.4053517
  18.4528148  48.1277127  48.7109728  18.0296171  47.8427554  49.9837650
  18.5296024  47.7402850  49.3876740  12.7116438  39.4071209  43.7463761
  13.4558483  39.7945485  43.9846711  12.8577134  38.5628634  43.9104249
  12.8427023  39.3401682  43.8057731  14.6296013  31.2021468  48.7795622
  13.7832058  31.3744276  48.6536972  14.6267146  30.3970812  49.1161451
  14.5043163  31.1082497  48.8106749  15.6994314  34.9796682  49.6457680
  15.2254268  34.4538444  50.1562991  16.0712450  34.4326155  49.0772542
  15.6844203  34.8212679  49.6372827   6.0767344  36.9768189  55.0141226
   6.9392957  36.8763898  54.9278556   5.7459127  36.3962898  54.4526798
   6.1552540  36.8759816  54.9186632  21.9631044  40.0399058  51.0564461
  21.7229267  39.2005473  51.0606887  22.4423052  40.1199225  51.7805234
  21.9983228  39.9280458  51.1639263  17.6277813  35.8733237  42.7083434
  17.1000832  35.9561981  42.0189143  18.0873522  36.6151108  42.7048079
  17.6179664  35.9953899  42.6058129  23.9636231  36.8200515  49.0093720
  23.7246001  36.7796349  48.1714504  24.1270133  37.6671667  49.1359441
  23.9526535  36.9392600  48.9047202  20.5682262  41.2050464  54.9398765
  21.2916460  40.7522991  54.7609785  20.3032224  41.4855130  54.1571093
  20.6363535  41.1801433  54.7977480   9.4369130  35.8010638  51.6751644
   8.8122200  35.8129030  51.0677597   9.1014725  36.2770813  52.3242884
   9.2954622  35.8729155  51.6808213   9.6210879  34.1435756  37.7324329
   9.2723683  34.7955482  38.1955878   9.1407324  34.1292869  37.0048200
   9.4981123  34.2378810  37.6935420   6.1494805  43.8611098  53.1155408
   5.6194730  43.1703537  53.1650383   6.4219899  43.8521283  52.2868117
   6.1119528  43.7578230  53.0002824  17.1814896  44.4436800  41.8393091
  17.9049095  44.9094913  41.6957664  16.7415487  44.5110410  41.0890688
  17.2230588  44.5220637  41.7077872  16.3501051  41.3034343  53.0893780
  15.7358044  40.7592393  53.3842415  16.8668336  40.7898579  52.6099596
  16.3356713  41.1470752  53.0618008  15.5897348  42.3738613  50.8238079
  15.1624956  41.7488331  50.3903514  15.5822293  42.0913535  51.6497086
  15.5256489  42.2391393  50.8817906   8.7059875  37.4103786  53.8926513
   8.8653362  36.6547110  54.2978235   8.5252769  37.9594725  54.5467250
   8.7025234  37.3797600  54.0489219  16.6480178  29.5765021  54.4477302
  16.1520740  29.7728696  53.7568869  17.4049240  29.9757690  54.2766104
  16.6867003  29.6642755  54.3197439  13.9183058  33.2507367  51.0380613
  13.9425545  32.7167480  50.3493393  14.1694531  32.7424676  51.7006203
  13.9592977  33.0968271  51.0345257   1.4290648  40.5338862  50.4723757
   1.3234097  40.4885707  49.6075841   0.6790868  40.8792643  50.7538042
   1.3026251  40.5779770  50.3861086  10.1984380  31.9778185  50.4186357
  10.2382752  32.4787392  51.1321064   9.3734045  32.0688579  50.1492280
  10.0823906  32.0660002  50.4836895  12.3813993  41.5438925  58.5206651
  11.5309624  41.6810640  58.6564296  12.5442121  40.8102704  58.9654353
  12.2797857  41.4553027  58.6062251  11.6198743  38.4938695  52.7160256
  10.7890673  38.6612513  52.5095504  11.5650261  38.1174646  53.5009141
  11.4888158  38.4628427  52.8008784   9.4282527  31.9847588  58.3516667
  10.0535230  31.4409721  58.6246099   8.9733007  31.5042506  57.7824457
   9.4530787  31.8337070  58.3078260   9.9934787  36.7694287  43.2450374
  10.1337748  37.2666751  43.9479015  10.4917320  36.0680581  43.3864587
  10.0875868  36.7396266  43.3701953  10.0235010  37.6361398  40.5742950
  10.6580089  38.2321823  40.5092412  10.1060621  37.3364855  41.3888821
  10.1291561  37.6802306  40.6846037  23.0017575  40.1676875  53.4429315
  23.5935416  40.8074126  53.4747513  23.4376570  39.4699912  53.7321381
  23.1536007  40.1595226  53.4910147  11.6013993  33.5675373  40.5488392
  11.9229834  33.0878456  39.8947655  11.8640936  34.3775019  40.3579204
  11.6880018  33.6165271  40.4243885  14.8310965  44.5894248  54.0687209
  14.3236056  45.1430094  54.5127839  14.5337612  44.6502537  53.2505983
  14.7115850  44.6800559  54.0135665  16.9973148  32.9547567  52.9111872
  17.4228219  32.5020094  52.2995398  16.3830141  32.4007638  53.1876659
  16.9701793  32.8061543  52.8616897   6.5287998  39.8329239  43.8432496
   7.0380227  40.4293746  44.2243802   7.0022270  39.5655212  43.1608916
   6.6731373  39.8815054  43.7987019  17.4418746  48.5057505  41.9991152
  16.7248055  48.3318368  41.5338389  18.0925483  48.2710078  41.4666638
  17.4320596  48.4453298  41.8520370  15.4367370  29.4262667  46.3202449
  14.7935688  29.2760313  46.8887587  15.0966777  29.1805012  45.5551553
  15.2912448  29.3674789  46.2905464  20.0266717  37.3822094  45.7432457
  19.3557907  37.9251796  45.6145523  20.7206467  37.8516949  45.5014152
  20.0295584  37.5320365  45.6887985  14.0753451  49.5218806  50.9744215
  13.8519105  48.7637635  51.3428242  13.5863294  49.5516827  50.2524655
  13.9696900  49.4141030  50.9220956  20.1894844  33.8377977  48.6522830
  20.5422454  33.4107700  49.3268629  19.3309646  33.7528821  48.7823907
  20.1144289  33.7622718  48.7717841   8.8878529  36.4685497  46.7105677
   8.1690518  36.8849630  46.9778540   9.2590892  37.0339736  46.1597315
   8.8370461  36.6134779  46.6688484  18.1878110  37.1013346  52.6007673
  18.1676037  36.9196641  53.4542451  18.2357311  37.9725365  52.5767256
  18.1912751  37.2029884  52.7230967  16.1324440  43.6900538  58.5256149
  16.0920295  43.0450215  57.9401305  16.9447758  43.6337155  58.8381561
  16.2467594  43.5859505  58.4853098  12.7231908  49.7419264  48.4281300
  12.3092306  49.0793394  48.0385142  13.4079282  49.8897123  47.9076994
  12.7630279  49.6659922  48.2937797  16.0897202  48.9009349  49.1804917
  15.6913485  49.0111620  48.4125737  15.4748421  49.1091416  49.7631476
  15.9396091  48.9482917  49.1536216  14.6625104  35.5083497  42.0479056
  14.0689943  35.8300494  41.4963623  14.7000381  34.6624592  41.8400162
  14.5799493  35.4307825  41.9361828  21.6218904  28.9596389  49.5807143
  21.1149769  28.2525529  49.5128320  22.4186338  28.6289578  49.7108219
  21.6646144  28.8069541  49.5906138  17.5382920  35.4663002  45.4780807
  17.3096613  35.4895703  44.6359165  17.7980996  34.6420469  45.5975817
  17.5429108  35.3479082  45.3706004  11.8202149  37.3197475  55.0805907
  11.3081052  36.7118658  55.4390938  11.6481645  38.0354067  55.5479883
  11.7191786  37.3360774  55.2022130   6.6667863  35.7635050  57.7308269
   6.4970454  36.4236425  57.1856475   6.2233813  35.9741611  58.4520758
   6.5767197  35.8921032  57.7569898  10.5927683  34.0039548  46.7735002
  11.0685049  34.3656628  46.1385183  10.0916282  34.6596015  47.0535145
  10.5893042  34.1533737  46.7211743  23.8239044  43.4761316  42.5648007
  24.2072650  44.2252672  42.7946104  23.0283158  43.7227136  42.3059996
  23.7632827  43.6231010  42.5605581  15.6971219  35.2421719  57.5208162
  16.2542649  35.0135529  56.8886628  15.3732284  36.0027385  57.2443375
  15.7317629  35.3205556  57.3864659   3.5669928  38.6681915  52.9896758
   3.0196647  37.9982561  53.1077627   4.3562306  38.3011763  53.0540226
   3.6022112  38.5146902  53.0165459  13.4154336  38.3289373  58.4860169
  14.1665663  38.6441049  58.7999724  13.6076913  38.1268543  57.6594091
  13.5545750  38.3456754  58.4103565  12.6354336  36.1480748  40.1408386
  13.0153301  36.1660377  39.3559501  11.8946932  36.5934736  40.0199234
  12.5823174  36.2162522  40.0071954  20.2639626  34.4562939  45.7283965
  20.2633853  34.3011595  46.5868241  20.0595807  35.3025926  45.6725350
  20.2339404  34.5583560  45.8471904   2.3256897  37.8802723  50.1442781
   2.1478659  37.4279332  50.8697697   2.0375920  38.6828885  50.3281259
   2.2569851  37.9325281  50.2786284  17.9880479  39.1360441  49.3820172
  18.4834144  38.4183436  49.3424192  17.1780254  38.8331238  49.2674659
  17.9424372  38.9858087  49.3593898  13.4339090  42.9858254  41.5317176
  12.6250413  42.6624927  41.4850486  13.9413999  42.2791476  41.4645425
  13.3888757  42.8339570  41.5147471   4.0629367  40.4130447  47.2564541
   3.1974887  40.4016137  47.1447312   4.1628183  40.2260670  48.1035680
   3.9503534  40.3836508  47.3653485  20.0532297  41.8864128  52.0697301
  20.4787369  41.3638550  51.5167726  19.6889217  42.4844966  51.5485923
  20.0618900  41.8974355  51.9106310   9.6886377  50.1828346  50.8294646
  10.0032936  50.9964734  50.8372428  10.0979791  49.7978564  51.4976805
   9.7954475  50.2457048  50.9298738  16.6410897  45.5998392  48.3998458
  17.1122075  46.3138655  48.5688443  16.9771075  44.9997143  48.9358328
  16.7606012  45.6169857  48.5030834  18.7287881  47.2099706  60.5790530
  18.8384847  46.4208266  60.9347277  19.0578778  47.1205642  59.7764868
  18.7940287  47.0805559  60.5132921  13.5580392  30.3725863  55.3556553
  13.6908297  29.5756856  55.6837528  13.9425545  30.8992266  55.9354828
  13.6336721  30.3325780  55.4900056  17.2784843  45.3916327  55.1626151
  16.7305789  44.7674210  54.8946216  17.7397872  45.5810599  54.4470230
  17.2652053  45.3275377  55.0176582  16.6312747  27.2956189  51.9537646
  15.8258711  27.1853919  52.2705484  16.5019482  27.3968645  51.0967512
  16.4932880  27.2939859  51.8745686  20.0878707  33.4601681  52.5477343
  19.5041696  33.9610888  52.1354910  20.4083002  32.9531237  51.9141666
  20.0491883  33.4593516  52.3935850  12.6273507  32.3742276  42.8236018
  13.4489201  32.5440589  42.5817713  12.1643158  32.5289537  42.1002315
  12.6804669  32.4224009  42.6807662  11.2168839  30.3685038  53.6034447
  11.7613252  30.0276165  54.1938788  11.2705774  31.2270500  53.7455731
  11.3057958  30.4440297  53.7116320   7.0299397  44.1301454  50.4773254
   7.6344255  44.0897288  49.8487075   6.8226710  44.9772606  50.5077310
   7.0888295  44.2489457  50.3889371  16.8443169  46.3967399  51.6935492
  17.6641543  46.2530365  51.9551787  16.5637247  47.0213598  52.2351930
  16.9239913  46.4677751  51.8123431   2.2650680  43.1136072  50.3472178
   2.1674958  42.3032343  50.6562234   3.0479549  43.0927865  49.9618446
   2.3666816  42.9903162  50.3359041  33.3156820  54.0532251  44.6578368
  33.2850824  54.9076888  44.8296638  33.9138169  53.7527544  45.2164512
  33.3993978  54.1348748  44.7653170  26.5156505  53.1407902  49.4131299
  25.6594400  53.3016400  49.4640415  26.5624158  52.2699966  49.4336360
  26.3955616  53.0358704  49.4237365  20.8997644  62.6770620  45.1768530
  20.1480544  62.2986158  44.9484575  21.3483656  62.7089053  44.4287340
  20.8547311  62.6256227  45.0326032  29.8250221  59.4094428  59.0191755
  30.5316988  58.9146458  59.1478689  30.0138157  59.8503509  58.2894413
  29.9578127  59.4012778  58.9300800  26.3522604  63.0995989  40.6054077
  26.0173973  63.7772911  40.1698299  26.8649475  62.7101301  40.0170949
  26.3788185  63.1420568  40.4540869  25.8926896  65.0510258  46.5465189
  26.2766275  65.6197157  46.0069964  25.8286037  64.3259768  46.0671005
  25.9400323  65.0285721  46.3959051  29.3608326  55.1999946  52.0562950
  29.9064286  55.8785033  52.1156920  29.3025202  55.0587407  51.1964532
  29.4324240  55.2791948  51.9375011  22.4782401  62.6889012  47.4431303
  22.5792763  61.8789366  47.7528430  21.8824146  62.5945958  46.8130981
  22.4054939  62.5554040  47.3957541  31.1373394  56.6284553  42.9296678
  31.0212920  57.3792239  43.3588816  31.9329281  56.3708506  43.1792765
  31.2377984  56.7019400  43.0300770  22.3183140  67.6066601  48.8446159
  22.9620596  68.0479765  49.2342317  22.6439396  66.8020027  48.7576417
  22.4614969  67.5531796  48.8891636  15.6747445  58.7109299  47.0683636
  15.4397629  57.8776951  46.9615905  15.8133086  58.9913964  46.2544837
  15.6603107  58.6292802  46.9325991  17.9737532  50.8795029  49.9667944
  17.3542564  50.2887676  49.7977959  17.8721396  51.4706464  49.3332267
  17.8675208  50.8799112  49.8472934  23.0203720  60.6178576  44.2166020
  23.3419561  61.1583783  43.6127329  23.6675816  60.0475347  44.3488310
  23.1629775  60.6137751  44.1473056  25.0705428  52.6194571  44.3000407
  25.7685593  52.7982698  44.7921870  25.3857760  52.0964910  43.6770797
  25.2200765  52.5688343  44.2802417  17.7006665  54.4247311  52.2111513
  17.5765362  55.0109756  52.8461332  18.3524950  53.9307507  52.5123788
  17.7780315  54.4386115  52.3497442  25.2593363  59.0065016  44.2880199
  25.6986999  58.3982116  44.7334971  25.1098026  58.6272389  43.5165664
  25.3014829  58.8603487  44.2399366  22.7265006  57.6009028  51.4899024
  23.3714009  57.1081471  51.1709973  22.9666783  57.7433814  52.3165102
  22.8575591  57.5486470  51.5648557  25.2651098  60.4463934  51.1405917
  25.5474341  59.6515339  50.9192673  25.9937258  60.9244521  51.1610978
  25.4140661  60.3998531  51.1108932  23.2432292  47.9886968  48.3821682
  22.9135622  48.4398111  47.7125381  22.5677293  47.9103131  48.9294688
  23.0942728  48.0438103  48.3644905  28.8602700  57.3592197  41.2410968
  28.7753995  58.2153164  41.3860537  29.3487083  57.0836521  41.9093127
  28.9191597  57.4449519  41.3613049  30.4508699  43.9772490  46.6271292
  30.1362140  44.6675969  47.0591715  29.9335641  43.9217273  45.9256793
  30.3273170  44.0707379  46.5868242  29.7921133  53.9776991  42.7408703
  29.2632605  54.1936625  43.4006009  30.3146153  54.6713130  42.6609672
  29.7909586  54.1120128  42.8264302  35.2469186  59.5523296  48.1141747
  34.4166889  59.7633940  48.2775164  35.1978438  58.7260350  47.8384031
  35.1175921  59.4612902  48.0979113  21.6820741  57.8740208  41.5416171
  21.0977956  58.3790240  41.9482035  21.2790836  57.6482595  40.8012763
  21.5360045  57.9148457  41.4921196  17.2364770  63.5894969  48.3439843
  16.7532348  64.3145459  48.3199426  18.0488088  63.8871099  48.4550000
  17.2855517  63.7397323  48.3567122  23.3078924  62.3827150  50.9489657
  22.7905865  62.0234565  50.3450965  24.0053315  61.8589324  50.9595723
  23.3344505  62.2524838  50.8619916  26.9642516  62.8321964  56.9105830
  27.0525861  62.6448105  57.7584040  27.3932228  62.1859394  56.5110677
  27.0404618  62.7084972  56.9777581  24.5312975  62.1153124  55.8923492
  23.9683810  61.7025734  56.4163153  25.2933999  62.0406030  56.3116635
  24.5607424  62.0430525  56.0316493  26.1397955  54.1205860  40.0185092
  26.3793959  54.3283844  39.2060435  26.4613796  53.3163369  40.1274036
  26.2235113  54.0319962  39.9145645  21.4488246  46.0499256  43.8644630
  22.2034214  46.4177573  43.6261680  21.2715780  46.4238810  44.6323809
  21.5342724  46.1597444  43.9429518  20.0908967  64.1051145  48.4960122
  20.7929546  63.5903134  48.5532879  20.0106450  64.4325297  49.3006997
  20.1832727  64.0765371  48.6232915  34.7423144  52.1993697  51.9092169
  33.9051565  52.2695884  52.1439763  34.7111375  52.2018191  51.0366471
  34.6141427  52.2103924  51.8151717  21.1387873  54.3426732  57.6240537
  21.3108377  54.2332627  58.4725819  21.6757231  54.9881138  57.3871730
  21.2432877  54.4218734  57.7145634  19.8045310  48.4569575  40.5622743
  19.6220883  48.6741456  39.7363735  20.6670923  48.5708588  40.6181357
  19.9049900  48.5059473  40.4477230  19.4159742  60.2957497  48.0045730
  20.2548642  60.5280430  48.0519492  19.4471511  59.4261809  47.9352766
  19.5441460  60.2014444  48.0010375  20.0412445  60.7158372  52.3059036
  20.5810670  60.5729503  52.9762408  19.3582391  61.1155123  52.6743062
  20.0204599  60.7538043  52.4593458  25.4845029  45.4595986  43.5971766
  26.2131190  45.2811941  43.1509923  25.5739922  46.3014065  43.8078944
  25.6051691  45.5579864  43.5625284  29.4653330  56.3949373  47.5004060
  30.2210845  56.8280887  47.5392969  29.5715655  55.7454143  48.0738696
  29.5923501  56.3626857  47.5902086  32.5033501  60.2222650  48.2506463
  32.0668733  60.2259393  49.0065435  32.1696417  60.9028149  47.8186041
  32.3896121  60.3235106  48.2987296  27.0762575  62.2630983  59.5749614
  27.8602991  62.3761831  59.9405356  26.8759169  61.4372120  59.7708299
  27.1628600  62.1577703  59.6584000  15.4449590  56.9358663  52.4593457
  15.1788006  56.1197780  52.6184448  15.4588154  56.9811819  51.5888973
  15.4074313  56.8215568  52.3546939  32.4230984  47.2636478  50.4935891
  33.0656893  47.3334583  51.0797806  32.6754005  46.5965701  49.9915433
  32.5553116  47.1762827  50.5063170  19.3507337  51.7343748  39.0745216
  18.6365514  51.4481927  39.4867648  19.8351306  52.0740373  39.7151603
  19.3166701  51.7425397  39.2300850  20.1948197  50.4737042  55.1060465
  19.5019993  50.0034021  55.3521197  20.8108524  50.2475346  55.6802172
  20.1832727  50.3704173  55.2269618  27.2332968  64.1741085  53.2216069
  26.4348214  63.9340585  53.4789938  27.6818980  64.2255478  53.9683117
  27.1807579  64.1463476  53.3700993  35.6377847  56.9403570  47.1426100
  36.2994282  56.3794239  47.0422009  34.9969259  56.4455601  47.4678792
  35.6406715  56.7839979  47.1758441  26.5254655  60.2373702  39.4507024
  26.9405804  59.9058725  38.7591519  25.6946585  60.0042604  39.3227160
  26.4642664  60.1544958  39.3297871  15.8543004  57.7217443  49.7405202
  15.6718577  57.6964329  48.8877494  16.5892673  58.1916380  49.7794110
  15.9357068  57.7878805  49.6203120  31.9242678  57.9568953  46.8838089
  32.1598267  58.1014152  46.0564940  32.0732242  58.7211361  47.2769603
  31.9808481  58.0908007  46.8201693  18.9188756  54.4402446  56.2487310
  19.6428728  54.4255476  56.7352205  19.0204892  55.1497801  55.7509279
  19.0406965  54.5427149  56.2466097  33.7533135  56.7970619  44.7207693
  34.0841352  57.3298259  44.1147788  34.3266223  56.8509506  45.3769644
  33.8866814  56.8840187  44.7285475  26.2933705  57.9201530  61.1136257
  25.5006686  58.2345042  61.2988877  26.4082632  58.1352999  60.2757042
  26.1929116  57.9985367  61.0174592  28.9665024  54.6435521  45.4031273
  29.0611878  55.3824815  45.8570899  28.3423868  54.2152997  45.8365838
  28.8874054  54.6896842  45.5339421  27.2217498  57.8221734  56.0521554
  27.7956359  57.1848978  56.2070118  27.1432302  57.8225816  55.1831212
  27.2950733  57.7286845  55.9467965  15.8213914  54.6010943  49.8904268
  16.3987417  54.4647394  50.5296514  15.1227976  54.1446727  50.1449853
  15.8034936  54.5133210  50.0226558  29.2188045  56.4884261  38.6368225
  29.1368208  56.5586448  39.5023212  29.8567766  57.0514005  38.4451966
  29.3007883  56.5823232  38.7358175  22.5781216  56.2544999  48.1042752
  22.3200461  55.4216734  48.0774051  22.6329699  56.4802612  47.2635252
  22.5480994  56.1642770  47.9762888  27.6582267  48.3573450  48.2046844
  26.9538593  47.8682635  48.3630763  27.7067241  48.3695924  47.3335289
  27.5612318  48.2863098  48.0986184  21.5515929  53.8082761  48.5907646
  20.9765520  53.9674930  49.2271607  21.1751605  53.1718171  48.1276097
  21.4118741  53.7380574  48.6162205  25.2189217  52.2806111  53.4500025
  24.8303650  51.8560328  52.7952216  24.5543916  52.5288260  53.9577051
  25.0636145  52.2544832  53.4287893  34.8612486  52.0381115  46.2247855
  34.6049051  51.2261057  46.0345738  35.7041800  52.0458683  45.9978042
  34.9478512  51.9193113  46.1632672  11.2972747  53.4522836  46.6052087
  11.3832999  53.0754705  47.3865617  11.9248545  53.0783282  46.1272045
  11.4029298  53.3408318  46.6497564  29.0415579  45.9780740  50.9624009
  29.4226091  45.2958911  51.3491883  28.2378863  45.6890342  50.7799673
  28.9792041  45.8347788  50.9928065  26.3228156  56.5104715  41.6476832
  27.1368794  56.8019608  41.5359603  26.2587297  55.8564578  41.0735125
  26.4330895  56.4569910  41.5465669  32.5437646  59.1930711  56.0606407
  32.3076283  58.3618776  55.9418468  33.1880875  59.1416319  56.6461252
  32.6032316  59.0628399  56.1292301  22.1936064  59.9826233  46.7749144
  22.8310011  59.7437980  47.3200937  22.6191135  60.1863392  46.0402304
  22.3512230  59.9777243  46.7466301  16.8848706  62.2214569  50.6583448
  16.9252851  62.4929420  49.8303227  17.4443230  62.7456477  51.0741235
  16.9732052  62.3390324  50.5975336  22.8338879  55.2028523  41.1124033
  23.2184032  54.9836229  41.8640578  22.5850499  56.0291468  41.2425110
  22.8540951  55.2926669  41.2425110  23.0007419  48.4834938  60.8286617
  22.6860860  49.2534500  60.5656180  22.6797352  47.9205194  60.2438844
  22.9066338  48.5145206  60.7027967  33.5674066  58.9775160  52.1234702
  33.2619883  59.7103217  52.4848017  32.8480282  58.5713090  51.8427488
  33.4161409  59.0256893  52.1347839  24.5757536  60.4598655  48.4542930
  24.6496544  60.2973827  49.3084780  25.3927042  60.6488845  48.2103412
  24.7073894  60.4635398  48.5440956  39.2675858  55.6168161  51.4503046
  39.2000359  55.6364120  50.5805633  39.2531521  56.4598488  51.6758717
  39.2554615  55.7441896  51.3555523  18.3363292  60.8056518  45.4837374
  17.5101410  61.0518255  45.3571652  18.3975284  60.7268599  46.3499432
  18.2237459  60.8301467  45.5926318  20.5539316  46.8725459  46.4432814
  19.6861742  46.9448059  46.5090423  20.8414520  47.6747538  46.6320789
  20.4679064  47.0019606  46.4807580  29.6772205  47.0203319  54.7744135
  30.4225797  46.8313129  54.3607561  29.2609510  47.5461557  54.2157992
  29.7257179  47.0705464  54.6308709  23.1162121  63.4233398  43.1856403
  23.4060420  63.0322380  42.4615630  23.8465602  63.6050103  43.6261679
  23.2669006  63.3927212  43.1439210  37.0534476  54.3912547  49.7249640
  37.6042397  53.7580616  49.9646733  37.0378591  54.9227940  50.4165145
  37.1319672  54.3761495  49.8628499  23.7056867  58.2251144  54.2709534
  23.2068560  58.9366912  54.3494422  24.5157091  58.5451811  54.2327696
  23.7512973  58.3777993  54.2766102  21.0568037  65.4000781  46.2516553
  20.8368332  65.1098136  47.0443220  20.8362559  64.7415736  45.7234465
  20.9915631  65.2600489  46.2905462  19.9684984  57.4874097  48.5172255
  19.6798233  56.8611569  49.0517982  20.8368332  57.4294385  48.5836935
  20.0545236  57.3861642  48.6063209  30.7562882  52.6308881  48.8354237
  30.4127648  51.9099216  49.1861486  30.8555925  52.4222732  47.9932595
  30.7204925  52.4933084  48.7625917  23.2235993  66.7730171  45.0347246
  23.8760051  66.2406613  45.2638272  22.5261601  66.4198823  45.4215120
  23.2166711  66.6419694  45.1259413  20.1717258  59.1269348  44.4414620
  20.9263226  59.5082388  44.6550082  19.5787870  59.5780492  44.8961316
  20.1953971  59.2498176  44.5397498  31.2175911  59.0934585  44.3778225
  31.7833944  59.7527795  44.2936768  30.5703815  59.4384283  44.8494627
  31.2054668  59.2416526  44.4350981  22.6323925  51.0832189  59.5671832
  21.8223700  51.3889968  59.4561674  23.1098611  51.8037771  59.6824416
  22.5827403  51.2346790  59.5678903  21.4915484  60.2977910  49.8154735
  20.9696238  60.4378201  50.5006600  21.8789504  59.5388574  50.0056853
  21.4719185  60.2063434  49.9455812  18.4806668  50.3483719  43.8849690
  18.1931464  49.9784989  43.1481637  19.1677136  50.8178574  43.6233395
  18.5395566  50.3630688  43.7364766  27.6882489  62.0373369  43.8015304
  27.4469165  61.3041230  43.3942369  27.8683822  62.5860226  43.1481637
  27.6790113  62.0095760  43.6445527  22.9181810  57.3281929  45.2136226
  22.7224592  57.9356663  44.6196529  23.1416155  56.6349873  44.7327900
  22.9216451  57.3159454  45.0552307  21.3160340  54.2136667  45.3317095
  22.0382992  54.3777825  44.8720901  20.8368333  54.9346332  45.2256434
  21.3524070  54.3434896  45.2482709  29.2753847  50.5500466  50.7113780
  28.4364948  50.5761744  50.4752043  29.3458215  51.1971201  51.2919126
  29.1622241  50.6496591  50.7622896  18.9667957  56.6194739  54.4371234
  19.4789053  56.8978992  53.7879994  18.6804299  57.3584033  54.8034048
  19.0002820  56.7697093  54.3961113  27.7223126  47.4485843  45.4441396
  28.4249478  47.2493591  44.9661354  27.4567314  46.6761785  45.7510239
  27.7869758  47.3048809  45.4186837  33.1511371  55.7568452  47.9975021
  33.0645346  55.9123878  48.8509800  32.6961851  56.4006528  47.6234426
  33.0714628  55.8744207  48.0682128  16.0534863  51.1264931  44.7334971
  16.1550999  51.9291092  45.0615946  16.8490750  50.9252267  44.4358052
  16.1862768  51.2150830  44.7370326  22.4851682  48.7121128  54.4972276
  22.2934879  48.7276262  55.3471700  23.3350278  48.9084802  54.4738931
  22.5827404  48.7435479  54.6195571  16.8698595  51.2412109  52.4756093
  16.7284087  50.3896050  52.6000601  17.1539158  51.2840770  51.6518299
  16.8906441  51.1211859  52.3723717  27.0237187  53.0779199  46.6200581
  26.7771902  52.9974950  47.4537370  27.3522310  52.2932667  46.4263108
  27.0358431  52.9505465  46.7148104  30.9185236  59.7862559  50.4087362
  30.7799595  60.4843605  50.9136104  30.1385234  59.6311215  50.0523544
  30.7828463  59.8662725  50.4313636  29.2563321  56.0858934  56.6609744
  29.2511360  55.2138751  56.6652170  29.9624315  56.2847103  56.1879199
  29.3608325  55.9862808  56.5916779  22.9834215  55.8135918  56.0323564
  23.1277590  56.3937126  55.3966674  23.3309863  56.1912215  56.7373419
  23.0561676  55.9556622  56.0422559  25.1554132  55.0126086  53.8148696
  24.4077446  55.2057101  53.4096974  25.3095657  54.1871306  53.5772817
  25.0676560  54.9191198  53.7194101  22.0561970  64.0038690  52.8984591
  22.2051533  63.4441606  52.2457995  22.8361972  64.0830692  53.2817110
  22.1936063  63.9324255  52.8581540  32.4138609  59.1440813  41.1703861
  32.0345418  58.3577950  41.1633151  31.7504854  59.6927670  41.0275506
  32.2597084  59.1085637  41.1484658  24.5815270  64.1753333  54.1769082
  24.5058941  63.5062143  54.7319870  24.5105129  64.8771121  54.6909748
  24.5595877  64.1798240  54.3345930  25.3955909  48.9076637  54.7044099
  25.8528523  49.6400611  54.8316891  25.4712238  48.4843102  55.4631355
  25.4746879  48.9533875  54.8345176  17.6388900  49.1542457  55.7933543
  17.1031090  48.5422815  56.1094310  17.7006665  49.7290593  56.4467210
  17.5684533  49.1489385  55.9368970  29.8683235  42.0866512  48.5737942
  29.9866803  42.5442976  47.8405245  29.6945411  41.2811774  48.2874160
  29.8602406  42.0360284  48.4238876  25.2385517  62.6954332  45.0092688
  26.0035408  62.4263975  44.6875352  25.1363607  62.2104342  45.7262750
  25.3367013  62.5843896  45.0672515  23.2738287  50.8978741  51.5485923
  22.4834362  50.7170201  51.8703259  23.6698910  50.1205694  51.5316218
  23.2155163  50.7566202  51.5938472  27.7604178  59.7266515  36.9892637
  28.5277163  59.7866640  36.5798489  27.3135487  59.1546957  36.5048955
  27.8077605  59.6503091  36.8570347  28.6581973  58.5321171  49.2745369
  27.9826975  58.3006403  49.7758756  28.6674349  57.9242354  48.6487474
  28.5600478  58.4080096  49.2561521  25.7876117  53.3739000  56.0309422
  25.7235258  54.2348957  55.9029559  25.9273305  53.0570993  55.2304973
  25.7991587  53.4539167  55.8937635  30.6598708  61.3886304  41.5055547
  30.7418545  62.1953290  41.1816998  31.1448450  61.4082263  42.2296321
  30.7435866  61.5106966  41.5642446  24.4695211  56.0671139  50.1725625
  24.0457460  56.2675639  49.4364643  24.2940066  55.2199987  50.2849925
  24.3806092  55.9719921  50.0799315  23.9706905  67.5821652  52.6347082
  24.4602835  66.8832442  52.4522747  23.3991137  67.2845522  53.2223140
  23.9591434  67.4347876  52.6948123  19.7577656  56.5623191  45.6053598
  19.9142275  56.4969994  46.4609590  20.0978249  57.3371743  45.3932277
  19.8310891  56.6672389  45.7008192  26.2956801  55.9381074  44.4746961
  26.8372346  55.4351456  44.9385581  26.6103360  55.8846269  43.6636446
  26.4221198  55.8560495  44.4230773  30.1673908  60.1483722  61.5873873
  30.9808773  59.8768871  61.7479006  30.0068874  59.8491262  60.7834069
  30.2643857  60.0638648  61.4919279  24.4643250  61.3298426  41.7586989
  24.5336071  60.4712964  41.8979989  25.2431705  61.5470307  41.4306013
  24.5896100  61.2351290  41.7304146  27.4446070  50.8317379  54.5269261
  27.6588040  50.1928293  53.9732615  26.8279969  51.2763203  54.0977123
  27.3851399  50.8027523  54.3819692  28.8550738  63.7536127  45.9723482
  28.4630530  63.4502842  45.2546348  29.0103810  64.5905217  45.7828436
  28.8204328  63.8319964  45.8379979  16.3311918  53.7458141  45.9214365
  16.7110882  54.1642686  45.2574632  15.7567282  54.3271597  46.2283208
  16.3023242  53.8936000  45.8691106  29.6085158  52.4406444  55.4652568
  28.7961840  52.1332335  55.5465741  30.0675093  51.9605444  56.0295281
  29.5565543  52.3242937  55.5607163  29.0190413  60.3186116  45.9129513
  28.6605067  60.4900759  46.6893545  28.5329123  60.7799322  45.3557511
  28.8949110  60.4125087  45.9454782  26.8360799  43.9417315  49.5156604
  25.9654357  43.9156036  49.4689914  27.0901140  43.7694507  48.6982450
  26.7454359  43.9127458  49.3876741  23.8078778  55.9985282  38.4529747
  24.0971303  56.7750164  38.7273321  23.8950577  55.4874013  39.1544246
  23.8633034  56.0377200  38.5972245  26.7038666  53.8466516  60.2481271
  27.1738297  54.4708632  60.6349145  26.7500546  53.1783491  60.8074485
  26.7806541  53.8401196  60.3881342  23.8609939  45.9523543  50.9730074
  23.3448428  45.2603735  51.0981653  23.3003868  46.6194320  50.9192673
  23.7016452  45.9486801  50.9836140  25.9302173  46.4916503  52.8022927
  25.5433926  46.5165535  53.5836457  25.4435110  45.9258182  52.3497444
  25.8014682  46.4112254  52.8510831  30.1795152  61.2090012  56.8596714
  30.8174873  60.7150208  56.5259170  29.5369244  61.1367413  56.2748940
  30.1789379  61.1249021  56.7239069  31.9052152  53.0579158  51.4262629
  31.4779760  52.9705507  50.6710729  31.2678205  53.1656934  52.0117473
  31.7481759  53.0611818  51.4008071  25.5959314  43.3783489  55.0933187
  26.2252432  43.9143789  54.8154257  25.7645177  43.2860848  55.9446753
  25.7137109  43.4444851  55.1781715  25.3973229  48.1654683  57.3659599
  26.2246659  47.8939832  57.4218213  25.4181075  48.9615525  57.7223417
  25.5226079  48.2434438  57.4274781  30.2349409  61.9009820  53.5002070
  31.0241787  61.5498885  53.6204152  30.4093006  62.7146209  53.2378704
  30.3769690  61.9695678  53.4789938  19.9742719  55.3118546  50.5529859
  19.1330726  55.2122420  50.7608753  20.1832727  56.0814026  50.9044180
  19.8807412  55.4110589  50.6357174  17.4518286  52.9338083  48.3814610
  17.0574984  53.0081095  47.6064719  16.8958403  53.3196029  48.9322972
  17.3121098  53.0019858  48.3482270  29.0883233  45.9119377  48.0618489
  29.2932826  45.8441685  48.9075486  28.7609657  46.7178198  47.9939666
  29.0698481  46.0205318  48.1778144  23.7859384  53.2399945  49.8027457
  23.4822521  52.6855934  50.4037864  23.0838805  53.4192155  49.3155491
  23.6375594  53.1844728  49.8197162  22.8425481  50.5500465  44.3672159
  23.1185215  49.8319378  43.9549726  23.4424150  51.1485385  44.1593265
  22.9718746  50.5320836  44.2752920  21.8477735  60.4549666  54.5099554
  21.7398090  60.4651728  55.3761613  22.0573516  61.2804446  54.3204508
  21.8627846  60.5790741  54.6103646  32.3416921  46.4651141  47.5421254
  31.7291234  46.9521544  47.9274986  32.4381095  45.7894632  48.0858905
  32.2654818  46.4369450  47.6800112  26.3436002  48.2213983  42.6418754
  26.7979748  48.3924543  43.3666598  26.8176047  47.6082093  42.2416529
  26.4804322  48.1564868  42.6892515  19.8651527  57.7062308  51.9721492
  19.2739460  58.3471807  51.9424507  20.6272550  58.1299926  51.9452792
  19.8899788  57.8638147  51.9636639  20.2612150  48.8664306  52.6389510
  20.7213631  48.9403236  53.3764633  20.3068256  49.6645560  52.2889331
  20.3362705  48.9958453  52.6962266  21.9095499  49.5331001  57.2061537
  21.5181065  48.8864348  57.6417315  22.0781362  50.1242436  57.8255792
  21.8766410  49.5245269  57.3624243  35.9841948  57.5368078  52.9698770
  36.0425072  57.9854727  53.7158747  35.3508416  57.9466891  52.5328850
  35.8993244  57.6641813  53.0151319  29.6241043  63.1571620  49.4053517
  29.4260732  63.6462435  48.7109728  29.0028754  63.3612862  49.9837650
  29.5028608  63.2588158  49.3876740  23.6849022  54.9256517  43.7463761
  24.4291066  55.3130793  43.9846711  23.8309718  54.0813942  43.9104249
  23.8159607  54.8586990  43.8057731  25.6028597  46.7206776  48.7795622
  24.7564642  46.8929584  48.6536972  25.5999729  45.9156119  49.1161451
  25.4775747  46.6267805  48.8106749  26.6726897  50.4981990  49.6457680
  26.1986852  49.9723752  50.1562991  27.0445033  49.9511463  49.0772542
  26.6576786  50.3397987  49.6372827  17.0499928  52.4953497  55.0141226
  17.9125541  52.3949206  54.9278556  16.7191711  51.9148206  54.4526798
  17.1285124  52.3945124  54.9186632  32.9363628  55.5584366  51.0564461
  32.6961851  54.7190781  51.0606887  33.4155635  55.6384533  51.7805234
  32.9715812  55.4465766  51.1639263  28.6010397  51.3918545  42.7083434
  28.0733416  51.4747289  42.0189143  29.0606105  52.1336416  42.7048079
  28.5912247  51.5139207  42.6058129  34.9368815  52.3385823  49.0093720
  34.6978585  52.2981657  48.1714504  35.1002716  53.1856975  49.1359441
  34.9259118  52.4577908  48.9047202  31.5414845  56.7235772  54.9398765
  32.2649044  56.2708299  54.7609785  31.2764807  57.0040438  54.1571093
  31.6096118  56.6986741  54.7977480  20.4101713  51.3195946  51.6751644
  19.7854784  51.3314338  51.0677597  20.0747308  51.7956121  52.3242884
  20.2687205  51.3914463  51.6808213  20.5943462  49.6621064  37.7324329
  20.2456267  50.3140790  38.1955878  20.1139908  49.6478177  37.0048200
  20.4713706  49.7564118  37.6935420  17.1227389  59.3796406  53.1155408
  16.5927314  58.6888845  53.1650383  17.3952482  59.3706591  52.2868117
  17.0852111  59.2763538  53.0002824  28.1547480  59.9622108  41.8393091
  28.8781678  60.4280221  41.6957664  27.7148071  60.0295718  41.0890688
  28.1963172  60.0405945  41.7077872  27.3233635  56.8219651  53.0893780
  26.7090628  56.2777701  53.3842415  27.8400920  56.3083887  52.6099596
  27.3089297  56.6656060  53.0618008  26.5629932  57.8923921  50.8238079
  26.1357540  57.2673639  50.3903514  26.5554876  57.6098842  51.6497086
  26.4989073  57.7576701  50.8817906  19.6792459  52.9289094  53.8926513
  19.8385946  52.1732418  54.2978235  19.4985352  53.4780033  54.5467250
  19.6757818  52.8982907  54.0489219  27.6212762  45.0950329  54.4477302
  27.1253323  45.2914003  53.7568869  28.3781824  45.4942997  54.2766104
  27.6599587  45.1828063  54.3197439  24.8915641  48.7692675  51.0380613
  24.9158129  48.2352787  50.3493393  25.1427115  48.2609984  51.7006203
  24.9325560  48.6153579  51.0345257  12.4023231  56.0524170  50.4723757
  12.2966680  56.0071014  49.6075841  11.6523451  56.3977951  50.7538042
  12.2758834  56.0965078  50.3861086  21.1716964  47.4963493  50.4186357
  21.2115335  47.9972700  51.1321064  20.3466628  47.5873887  50.1492280
  21.0556490  47.5845310  50.4836895  23.3546577  57.0624233  58.5206651
  22.5042207  57.1995948  58.6564296  23.5174704  56.3288012  58.9654353
  23.2530440  56.9738335  58.6062251  22.5931327  54.0124003  52.7160256
  21.7623257  54.1797821  52.5095504  22.5382844  53.6359954  53.5009141
  22.4620742  53.9813734  52.8008784  20.4015110  47.5032896  58.3516667
  21.0267814  46.9595029  58.6246099  19.9465590  47.0227814  57.7824457
  20.4263371  47.3522377  58.3078260  20.9667371  52.2879595  43.2450374
  21.1070332  52.7852059  43.9479015  21.4649904  51.5865889  43.3864587
  21.0608452  52.2581574  43.3701953  20.9967593  53.1546706  40.5742950
  21.6312673  53.7507131  40.5092412  21.0793204  52.8550163  41.3888821
  21.1024144  53.1987614  40.6846037  33.9750159  55.6862183  53.4429315
  34.5667999  56.3259434  53.4747513  34.4109154  54.9885220  53.7321381
  34.1268590  55.6780533  53.4910147  22.5746576  49.0860681  40.5488392
  22.8962417  48.6063764  39.8947655  22.8373520  49.8960327  40.3579204
  22.6612602  49.1350579  40.4243885  25.8043549  60.1079556  54.0687209
  25.2968640  60.6615402  54.5127839  25.5070195  60.1687845  53.2505983
  25.6848434  60.1985867  54.0135665  27.9705731  48.4732875  52.9111872
  28.3960803  48.0205402  52.2995398  27.3562724  47.9192946  53.1876659
  27.9434377  48.3246851  52.8616897  17.5020581  55.3514547  43.8432496
  18.0112811  55.9479054  44.2243802  17.9754853  55.0840520  43.1608916
  17.6463957  55.4000362  43.7987019  28.4151329  64.0242813  41.9991152
  27.6980639  63.8503675  41.5338389  29.0658067  63.7895386  41.4666638
  28.4053180  63.9638606  41.8520370  26.4099954  44.9447975  46.3202449
  25.7668272  44.7945621  46.8887587  26.0699361  44.6990320  45.5551553
  26.2645031  44.8860097  46.2905464  30.9999300  52.9007402  45.7432457
  30.3290490  53.4437104  45.6145523  31.6939051  53.3702257  45.5014152
  31.0028168  53.0505673  45.6887985  25.0486034  65.0404114  50.9744215
  24.8251689  64.2822943  51.3428242  24.5595877  65.0702135  50.2524655
  24.9429483  64.9326338  50.9220956  31.1627428  49.3563285  48.6522830
  31.5155038  48.9293008  49.3268629  30.3042229  49.2714129  48.7823907
  31.0876873  49.2808026  48.7717841  19.8611113  51.9870805  46.7105677
  19.1423102  52.4034938  46.9778540  20.2323475  52.5525044  46.1597315
  19.8103045  52.1320087  46.6688484  29.1610694  52.6198654  52.6007673
  29.1408621  52.4381949  53.4542451  29.2089894  53.4910673  52.5767256
  29.1645335  52.7215192  52.7230967  27.1057024  59.2085846  58.5256149
  27.0652878  58.5635523  57.9401305  27.9180342  59.1522463  58.8381561
  27.2200177  59.1044813  58.4853098  23.6964491  65.2604572  48.4281300
  23.2824890  64.5978702  48.0385142  24.3811865  65.4082431  47.9076994
  23.7362863  65.1845230  48.2937797  27.0629785  64.4194657  49.1804917
  26.6646068  64.5296927  48.4125737  26.4481005  64.6276723  49.7631476
  26.9128675  64.4668225  49.1536216  25.6357687  51.0268805  42.0479056
  25.0422527  51.3485801  41.4963623  25.6732965  50.1809900  41.8400162
  25.5532076  50.9493133  41.9361828  32.5951488  44.4781697  49.5807143
  32.0882353  43.7710837  49.5128320  33.3918922  44.1474886  49.7108219
  32.6378727  44.3254849  49.5906138  28.5115504  50.9848309  45.4780807
  28.2829197  51.0081011  44.6359165  28.7713580  50.1605777  45.5975817
  28.5161692  50.8664389  45.3706004  22.7934732  52.8382783  55.0805907
  22.2813635  52.2303965  55.4390938  22.6214228  53.5539375  55.5479883
  22.6924369  52.8546082  55.2022130  17.6400447  51.2820358  57.7308269
  17.4703037  51.9421733  57.1856475  17.1966397  51.4926919  58.4520758
  17.5499781  51.4106340  57.7569898  21.5660266  49.5224856  46.7735002
  22.0417633  49.8841936  46.1385183  21.0648866  50.1781323  47.0535145
  21.5625625  49.6719045  46.7211743  34.7971628  58.9946624  42.5648007
  35.1805234  59.7437980  42.7946104  34.0015741  59.2412444  42.3059996
  34.7365410  59.1416318  42.5605581  26.6703803  50.7607027  57.5208162
  27.2275233  50.5320837  56.8886628  26.3464868  51.5212693  57.2443375
  26.7050213  50.8390864  57.3864659  14.5402512  54.1867223  52.9896758
  13.9929231  53.5167869  53.1077627  15.3294890  53.8197071  53.0540226
  14.5754695  54.0332210  53.0165459  24.3886920  53.8474680  58.4860169
  25.1398247  54.1626357  58.7999724  24.5809496  53.6453851  57.6594091
  24.5278334  53.8642062  58.4103565  23.6086919  51.6666056  40.1408386
  23.9885884  51.6845685  39.3559501  22.8679516  52.1120044  40.0199234
  23.5555757  51.7347830  40.0071954  31.2372210  49.9748247  45.7283965
  31.2366436  49.8196903  46.5868241  31.0328390  50.8211234  45.6725350
  31.2071988  50.0768868  45.8471904  13.2989481  53.3988031  50.1442781
  13.1211242  52.9464640  50.8697697  13.0108503  54.2014193  50.3281259
  13.2302434  53.4510589  50.2786284  28.9613062  54.6545749  49.3820172
  29.4566727  53.9368744  49.3424192  28.1512838  54.3516546  49.2674659
  28.9156955  54.5043395  49.3593898  24.4071674  58.5043562  41.5317176
  23.5982996  58.1810235  41.4850486  24.9146582  57.7976784  41.4645425
  24.3621340  58.3524878  41.5147471  15.0361951  55.9315755  47.2564541
  14.1707470  55.9201445  47.1447312  15.1360767  55.7445978  48.1035680
  14.9236118  55.9021816  47.3653485  31.0264881  57.4049436  52.0697301
  31.4519952  56.8823858  51.5167726  30.6621801  58.0030274  51.5485923
  31.0351484  57.4159663  51.9106310  20.6618961  65.7013654  50.8294646
  20.9765520  66.5150042  50.8372428  21.0712374  65.3163872  51.4976805
  20.7687059  65.7642356  50.9298738  27.6143480  61.1183700  48.3998458
  28.0854659  61.8323963  48.5688443  27.9503659  60.5182451  48.9358328
  27.7338595  61.1355165  48.5030834  29.7020465  62.7285014  60.5790530
  29.8117430  61.9393574  60.9347277  30.0311362  62.6390950  59.7764868
  29.7672871  62.5990867  60.5132921  24.5312975  45.8911171  55.3556553
  24.6640881  45.0942164  55.6837528  24.9158128  46.4177574  55.9354828
  24.6069304  45.8511088  55.4900056  28.2517427  60.9101635  55.1626151
  27.7038373  60.2859518  54.8946216  28.7130455  61.0995907  54.4470230
  28.2384636  60.8460685  55.0176582  27.6045331  42.8141497  51.9537646
  26.7991294  42.7039227  52.2705484  27.4752066  42.9153953  51.0967512
  27.4665463  42.8125167  51.8745686  31.0611291  48.9786989  52.5477343
  30.4774280  49.4796195  52.1354910  31.3815585  48.4716545  51.9141666
  31.0224466  48.9778824  52.3935850  23.6006090  47.8927584  42.8236018
  24.4221785  48.0625897  42.5817713  23.1375741  48.0474845  42.1002315
  23.6537252  47.9409317  42.6807662  22.1901422  45.8870346  53.6034447
  22.7345835  45.5461473  54.1938788  22.2438358  46.7455808  53.7455731
  22.2790542  45.9625605  53.7116320  18.0031981  59.6486762  50.4773254
  18.6076838  59.6082596  49.8487075  17.7959293  60.4957914  50.5077310
  18.0620878  59.7674765  50.3889371  27.8175753  61.9152707  51.6935492
  28.6374127  61.7715673  51.9551787  27.5369831  62.5398906  52.2351930
  27.8972496  61.9863059  51.8123431  13.2383263  58.6321380  50.3472178
  13.1407541  57.8217651  50.6562234  14.0212133  58.6113173  49.9618446
  13.3399400  58.5088470  50.3359041  44.2889403  69.5717559  44.6578368
  44.2583408  70.4262196  44.8296638  44.8870752  69.2712851  45.2164512
  44.3726561  69.6534055  44.7653170  37.4889088  68.6593210  49.4131299
  36.6326984  68.8201708  49.4640415  37.5356742  67.7885274  49.4336360
  37.3688200  68.5544012  49.4237365  40.7982805  74.9279736  59.0191755
  41.5049572  74.4331766  59.1478689  40.9870740  75.3688817  58.2894413
  40.9310710  74.9198086  58.9300800  37.3255188  78.6181297  40.6054077
  36.9906556  79.2958219  40.1698299  37.8382058  78.2286609  40.0170949
  37.3520769  78.6605875  40.4540869  42.1105978  72.1469861  42.9296678
  41.9945504  72.8977547  43.3588816  42.9061865  71.8893814  43.1792765
  42.2110567  72.2204708  43.0300770  26.6480028  74.2294606  47.0683636
  26.4130213  73.3962259  46.9615905  26.7865669  74.5099272  46.2544837
  26.6335691  74.1478110  46.9325991  28.9470116  66.3980337  49.9667944
  28.3275147  65.8072984  49.7977959  28.8453979  66.9891772  49.3332267
  28.8407791  66.3984420  49.8472934  33.9936303  76.1363884  44.2166020
  34.3152145  76.6769091  43.6127329  34.6408400  75.5660655  44.3488310
  34.1362359  76.1323059  44.1473056  36.0438011  68.1379879  44.3000407
  36.7418176  68.3168006  44.7921870  36.3590344  67.6150218  43.6770797
  36.1933349  68.0873651  44.2802417  28.6739249  69.9432619  52.2111513
  28.5497946  70.5295064  52.8461332  29.3257533  69.4492815  52.5123788
  28.7512898  69.9571423  52.3497442  36.2325947  74.5250324  44.2880199
  36.6719582  73.9167424  44.7334971  36.0830610  74.1457697  43.5165664
  36.2747413  74.3788795  44.2399366  33.6997590  73.1194336  51.4899024
  34.3446592  72.6266779  51.1709973  33.9399367  73.2619122  52.3165102
  33.8308175  73.0671778  51.5648557  34.2164875  63.5072276  48.3821682
  33.8868205  63.9583419  47.7125381  33.5409877  63.4288439  48.9294688
  34.0675311  63.5623411  48.3644905  39.8335283  72.8777505  41.2410968
  39.7486579  73.7338472  41.3860537  40.3219667  72.6021829  41.9093127
  39.8924181  72.9634827  41.3613049  41.4241283  59.4957798  46.6271292
  41.1094724  60.1861277  47.0591715  40.9068225  59.4402581  45.9256793
  41.3005753  59.5892687  46.5868242  40.7653717  69.4962299  42.7408703
  40.2365188  69.7121933  43.4006009  41.2878737  70.1898438  42.6609672
  40.7642170  69.6305436  42.8264302  46.2201770  75.0708604  48.1141747
  45.3899473  75.2819247  48.2775164  46.1711022  74.2445658  47.8384031
  46.0908505  74.9798210  48.0979113  32.6553324  73.3925516  41.5416171
  32.0710540  73.8975548  41.9482035  32.2523420  73.1667903  40.8012763
  32.5092628  73.4333764  41.4921196  28.2097353  79.1080277  48.3439843
  27.7264931  79.8330767  48.3199426  29.0220671  79.4056407  48.4550000
  28.2588101  79.2582631  48.3567122  37.9375099  78.3507272  56.9105830
  38.0258445  78.1633412  57.7584040  38.3664812  77.7044702  56.5110677
  38.0137201  78.2270280  56.9777581  35.5045559  77.6338432  55.8923492
  34.9416394  77.2211042  56.4163153  36.2666582  77.5591338  56.3116635
  35.5340008  77.5615833  56.0316493  37.1130539  69.6391168  40.0185092
  37.3526543  69.8469152  39.2060435  37.4346380  68.8348677  40.1274036
  37.1967697  69.5505269  39.9145645  32.4220829  61.5684564  43.8644630
  33.1766797  61.9362881  43.6261680  32.2448364  61.9424118  44.6323809
  32.5075308  61.6782752  43.9429518  32.1120457  69.8612040  57.6240537
  32.2840961  69.7517935  58.4725819  32.6489814  70.5066446  57.3871730
  32.2165461  69.9404042  57.7145634  30.7777894  63.9754883  40.5622743
  30.5953467  64.1926764  39.7363735  31.6403507  64.0893896  40.6181357
  30.8782483  64.0244781  40.4477230  36.4577613  60.9781294  43.5971766
  37.1863773  60.7997249  43.1509923  36.5472506  61.8199373  43.8078944
  36.5784275  61.0765172  43.5625284  40.4385914  71.9134681  47.5004060
  41.1943429  72.3466195  47.5392969  40.5448238  71.2639451  48.0738696
  40.5656084  71.8812165  47.5902086  43.4766085  75.7407958  48.2506463
  43.0401317  75.7444701  49.0065435  43.1429000  76.4213457  47.8186041
  43.3628705  75.8420414  48.2987296  38.0495158  77.7816291  59.5749614
  38.8335575  77.8947139  59.9405356  37.8491753  76.9557428  59.7708299
  38.1361184  77.6763010  59.6584000  26.4182174  72.4543971  52.4593457
  26.1520589  71.6383088  52.6184448  26.4320738  72.4997127  51.5888973
  26.3806896  72.3400876  52.3546939  43.3963568  62.7821786  50.4935891
  44.0389476  62.8519891  51.0797806  43.6486588  62.1151009  49.9915433
  43.5285700  62.6948135  50.5063170  30.3239921  67.2529056  39.0745216
  29.6098098  66.9667235  39.4867648  30.8083890  67.5925681  39.7151603
  30.2899284  67.2610705  39.2300850  31.1680780  65.9922349  55.1060465
  30.4752577  65.5219329  55.3521197  31.7841108  65.7660654  55.6802172
  31.1565310  65.8889481  55.2269618  46.6110431  72.4588878  47.1426100
  47.2726865  71.8979547  47.0422009  45.9701843  71.9640909  47.4678792
  46.6139299  72.3025287  47.1758441  37.4987239  75.7559010  39.4507024
  37.9138387  75.4244033  38.7591519  36.6679168  75.5227912  39.3227160
  37.4375247  75.6730266  39.3297871  26.8275588  73.2402751  49.7405202
  26.6451161  73.2149637  48.8877494  27.5625256  73.7101688  49.7794110
  26.9089651  73.3064113  49.6203120  42.8975262  73.4754261  46.8838089
  43.1330851  73.6199459  46.0564940  43.0464825  74.2396669  47.2769603
  42.9541065  73.6093315  46.8201693  29.8921339  69.9587753  56.2487310
  30.6161312  69.9440784  56.7352205  29.9937476  70.6683109  55.7509279
  30.0139548  70.0612457  56.2466097  44.7265718  72.3155926  44.7207693
  45.0573936  72.8483567  44.1147788  45.2998807  72.3694814  45.3769644
  44.8599398  72.4025495  44.7285475  37.2666289  73.4386838  61.1136257
  36.4739269  73.7530350  61.2988877  37.3815216  73.6538306  60.2757042
  37.1661699  73.5170675  61.0174592  39.9397608  70.1620829  45.4031273
  40.0344462  70.9010123  45.8570899  39.3156451  69.7338305  45.8365838
  39.8606638  70.2082150  45.5339421  38.1950081  73.3407042  56.0521554
  38.7688943  72.7034286  56.2070118  38.1164885  73.3411124  55.1831212
  38.2683316  73.2472153  55.9467965  26.7946498  70.1196251  49.8904268
  27.3720000  69.9832702  50.5296514  26.0960560  69.6632035  50.1449853
  26.7767519  70.0318517  50.0226558  40.1920629  72.0069569  38.6368225
  40.1100791  72.0771756  39.5023212  40.8300349  72.5699313  38.4451966
  40.2740466  72.1008540  38.7358175  33.5513800  71.7730307  48.1042752
  33.2933044  70.9402042  48.0774051  33.6062283  71.9987920  47.2635252
  33.5213578  71.6828078  47.9762888  38.6314850  63.8758758  48.2046844
  37.9271177  63.3867943  48.3630763  38.6799825  63.8881232  47.3335289
  38.5344902  63.8048406  48.0986184  32.5248512  69.3268069  48.5907646
  31.9498103  69.4860238  49.2271607  32.1484188  68.6903479  48.1276097
  32.3851325  69.2565882  48.6162205  36.1921801  67.7991419  53.4500025
  35.8036234  67.3745636  52.7952216  35.5276499  68.0473568  53.9577051
  36.0368729  67.7730140  53.4287893  45.8345070  67.5566423  46.2247855
  45.5781635  66.7446365  46.0345738  46.6774384  67.5643991  45.9978042
  45.9211095  67.4378421  46.1632672  22.2705331  68.9708144  46.6052087
  22.3565583  68.5940012  47.3865617  22.8981129  68.5968590  46.1272045
  22.3761882  68.8593626  46.6497564  40.0148162  61.4966047  50.9624009
  40.3958674  60.8144219  51.3491883  39.2111447  61.2075650  50.7799673
  39.9524624  61.3533096  50.9928065  37.2960739  72.0290023  41.6476832
  38.1101378  72.3204916  41.5359603  37.2319880  71.3749886  41.0735125
  37.4063478  71.9755218  41.5465669  27.8581290  77.7399877  50.6583448
  27.8985435  78.0114728  49.8303227  28.4175814  78.2641785  51.0741235
  27.9464636  77.8575632  50.5975336  33.8071462  70.7213830  41.1124033
  34.1916615  70.5021537  41.8640578  33.5583083  71.5476776  41.2425110
  33.8273535  70.8111977  41.2425110  33.9740003  64.0020246  60.8286617
  33.6593444  64.7719808  60.5656180  33.6529935  63.4390502  60.2438844
  33.8798922  64.0330514  60.7027967  50.2408442  71.1353469  51.4503046
  50.1732942  71.1549428  50.5805633  50.2264104  71.9783796  51.6758717
  50.2287198  71.2627204  51.3555523  29.3095876  76.3241826  45.4837374
  28.4833994  76.5703563  45.3571652  29.3707867  76.2453907  46.3499432
  29.1970043  76.3486775  45.5926318  31.5271900  62.3910767  46.4432814
  30.6594325  62.4633367  46.5090423  31.8147104  63.1932846  46.6320789
  31.4411648  62.5204914  46.4807580  40.6504788  62.5388627  54.7744135
  41.3958380  62.3498437  54.3607561  40.2342093  63.0646864  54.2157992
  40.6989763  62.5890772  54.6308709  48.0267059  69.9097855  49.7249640
  48.5774981  69.2765924  49.9646733  48.0111175  70.4413248  50.4165145
  48.1052256  69.8946803  49.8628499  34.6789450  73.7436452  54.2709534
  34.1801144  74.4552220  54.3494422  35.4889674  74.0637119  54.2327696
  34.7245557  73.8963301  54.2766102  30.9417568  73.0059405  48.5172255
  30.6530816  72.3796877  49.0517982  31.8100916  72.9479693  48.5836935
  31.0277820  72.9046950  48.6063209  41.7295466  68.1494189  48.8354237
  41.3860231  67.4284524  49.1861486  41.8288508  67.9408040  47.9932595
  41.6937508  68.0118392  48.7625917  31.1449841  74.6454656  44.4414620
  31.8995809  75.0267695  44.6550082  30.5520454  75.0965800  44.8961316
  31.1686555  74.7683484  44.5397498  42.1908495  74.6119893  44.3778225
  42.7566527  75.2713103  44.2936768  41.5436398  74.9569591  44.8494627
  42.1787251  74.7601834  44.4350981  33.6056508  66.6017497  59.5671832
  32.7956284  66.9075276  59.4561674  34.0831195  67.3223079  59.6824416
  33.5559987  66.7532098  59.5678903  29.4539252  65.8669026  43.8849690
  29.1664048  65.4970297  43.1481637  30.1409720  66.3363882  43.6233395
  29.5128149  65.8815996  43.7364766  38.6615073  77.5558677  43.8015304
  38.4201749  76.8226538  43.3942369  38.8416406  78.1045534  43.1481637
  38.6522697  77.5281068  43.6445527  33.8914393  72.8467237  45.2136226
  33.6957176  73.4541971  44.6196529  34.1148739  72.1535181  44.7327900
  33.8949034  72.8344762  45.0552307  32.2892923  69.7321975  45.3317095
  33.0115575  69.8963133  44.8720901  31.8100916  70.4531639  45.2256434
  32.3256654  69.8620204  45.2482709  40.2486431  66.0685773  50.7113780
  39.4097532  66.0947052  50.4752043  40.3190798  66.7156509  51.2919126
  40.1354824  66.1681899  50.7622896  29.9400540  72.1380047  54.4371234
  30.4521637  72.4164300  53.7879994  29.6536883  72.8769341  54.8034048
  29.9735403  72.2882401  54.3961113  38.6955709  62.9671150  45.4441396
  39.3982062  62.7678899  44.9661354  38.4299898  62.1947093  45.7510239
  38.7602342  62.8234117  45.4186837  44.1243955  71.2753760  47.9975021
  44.0377929  71.4309186  48.8509800  43.6694435  71.9191836  47.6234426
  44.0447211  71.3929515  48.0682128  27.0267446  66.6450239  44.7334971
  27.1283583  67.4476400  45.0615946  27.8223333  66.4437575  44.4358052
  27.1595352  66.7336138  44.7370326  33.4584265  64.2306436  54.4972276
  33.2667463  64.2461570  55.3471700  34.3082861  64.4270110  54.4738931
  33.5559987  64.2620787  54.6195571  27.8431178  66.7597417  52.4756093
  27.7016670  65.9081358  52.6000601  28.1271742  66.8026078  51.6518299
  27.8639025  66.6397167  52.3723717  37.9969771  68.5964507  46.6200581
  37.7504485  68.5160258  47.4537370  38.3254894  67.8117975  46.4263108
  38.0091014  68.4690773  46.7148104  33.9566798  71.3321226  56.0323564
  34.1010174  71.9122434  55.3966674  34.3042447  71.7097523  56.7373419
  34.0294259  71.4741930  56.0422559  36.1286715  70.5311394  53.8148696
  35.3810030  70.7242409  53.4096974  36.2828241  69.7056614  53.5772817
  36.0409143  70.4376506  53.7194101  43.3871193  74.6626120  41.1703861
  43.0078001  73.8763258  41.1633151  42.7237438  75.2112977  41.0275506
  43.2329667  74.6270944  41.1484658  35.5547854  79.6938641  54.1769082
  35.4791525  79.0247451  54.7319870  35.4837713  80.3956429  54.6909748
  35.5328461  79.6983548  54.3345930  36.3688493  64.4261945  54.7044099
  36.8261107  65.1585919  54.8316891  36.4444821  64.0028410  55.4631355
  36.4479462  64.4719183  54.8345176  28.6121484  64.6727765  55.7933543
  28.0763673  64.0608123  56.1094310  28.6739248  65.2475901  56.4467210
  28.5417116  64.6674692  55.9368970  40.8415818  57.6051820  48.5737942
  40.9599387  58.0628284  47.8405245  40.6677994  56.7997081  48.2874160
  40.8334989  57.5545592  48.4238876  34.2470870  66.4164049  51.5485923
  33.4566945  66.2355509  51.8703259  34.6431493  65.6391002  51.5316218
  34.1887747  66.2751510  51.5938472  38.7336761  75.2451823  36.9892637
  39.5009746  75.3051948  36.5798489  38.2868070  74.6732265  36.5048955
  38.7810188  75.1688399  36.8570347  36.7608701  68.8924308  56.0309422
  36.6967842  69.7534265  55.9029559  36.9005888  68.5756301  55.2304973
  36.7724171  68.9724475  55.8937635  41.6331291  76.9071611  41.5055547
  41.7151129  77.7138598  41.1816998  42.1181034  76.9267571  42.2296321
  41.7168449  77.0292274  41.5642446  35.4427795  71.5856447  50.1725625
  35.0190044  71.7860946  49.4364643  35.2672650  70.7385295  50.2849925
  35.3538675  71.4905229  50.0799315  34.9439488  83.1006960  52.6347082
  35.4335418  82.4017750  52.4522747  34.3723720  82.8030830  53.2223140
  34.9324018  82.9533184  52.6948123  30.7310240  72.0808499  45.6053598
  30.8874859  72.0155302  46.4609590  31.0710833  72.8557051  45.3932277
  30.8043474  72.1857697  45.7008192  37.2689384  71.4566382  44.4746961
  37.8104930  70.9536764  44.9385581  37.5835943  71.4031577  43.6636446
  37.3953781  71.3745803  44.4230773  41.1406492  75.6669030  61.5873873
  41.9541357  75.3954179  61.7479006  40.9801458  75.3676570  60.7834069
  41.2376440  75.5823956  61.4919279  35.4375834  76.8483734  41.7586989
  35.5068654  75.9898272  41.8979989  36.2164289  77.0655615  41.4306013
  35.5628684  76.7536598  41.7304146  38.4178654  66.3502687  54.5269261
  38.6320623  65.7113601  53.9732615  37.8012553  66.7948511  54.0977123
  38.3583983  66.3212831  54.3819692  27.3044501  69.2643449  45.9214365
  27.6843466  69.6827994  45.2574632  26.7299866  69.8456905  46.2283208
  27.2755826  69.4121308  45.8691106  40.5817742  67.9591752  55.4652568
  39.7694423  67.6517642  55.5465741  41.0407676  67.4790752  56.0295281
  40.5298126  67.8428244  55.5607163  39.9922996  75.8371424  45.9129513
  39.6337651  76.0086067  46.6893545  39.5061707  76.2984630  45.3557511
  39.8681693  75.9310395  45.9454782  37.8093382  59.4602623  49.5156604
  36.9386940  59.4341344  49.4689914  38.0633723  59.2879815  48.6982450
  37.7186942  59.4312766  49.3876741  34.7811362  71.5170589  38.4529747
  35.0703886  72.2935472  38.7273321  34.8683161  71.0059321  39.1544246
  34.8365618  71.5562508  38.5972245  37.6771249  69.3651824  60.2481271
  38.1470880  69.9893940  60.6349145  37.7233129  68.6968799  60.8074485
  37.7539125  69.3586504  60.3881342  34.8342523  61.4708851  50.9730074
  34.3181011  60.7789042  51.0981653  34.2736452  62.1379628  50.9192673
  34.6749036  61.4672109  50.9836140  36.9034756  62.0101811  52.8022927
  36.5166509  62.0350843  53.5836457  36.4167693  61.4443490  52.3497444
  36.7747265  61.9297562  52.8510831  36.5691898  58.8968797  55.0933187
  37.1985016  59.4329097  54.8154257  36.7377761  58.8046155  55.9446753
  36.6869692  58.9630159  55.1781715  36.3705813  63.6839991  57.3659599
  37.1979242  63.4125140  57.4218213  36.3913659  64.4800833  57.7223417
  36.4958663  63.7619746  57.4274781  30.9475303  70.8303854  50.5529859
  30.1063309  70.7307728  50.7608753  31.1565311  71.5999334  50.9044180
  30.8539995  70.9295897  50.6357174  28.4250870  68.4523391  48.3814610
  28.0307567  68.5266403  47.6064719  27.8690986  68.8381337  48.9322972
  28.2853682  68.5205166  48.3482270  40.0615816  61.4304685  48.0618489
  40.2665410  61.3626993  48.9075486  39.7342240  62.2363506  47.9939666
  40.0431064  61.5390625  48.1778144  34.7591967  68.7585253  49.8027457
  34.4555105  68.2041242  50.4037864  34.0571388  68.9377463  49.3155491
  34.6108177  68.7030036  49.8197162  33.8158065  66.0685773  44.3672159
  34.0917799  65.3504686  43.9549726  34.4156734  66.6670693  44.1593265
  33.9451329  66.0506144  44.2752920  32.8210319  75.9734974  54.5099554
  32.7130673  75.9837036  55.3761613  33.0306100  76.7989754  54.3204508
  32.8360430  76.0976049  54.6103646  43.3149504  61.9836449  47.5421254
  42.7023818  62.4706851  47.9274986  43.4113679  61.3079940  48.0858905
  43.2387402  61.9554758  47.6800112  37.3168585  63.7399290  42.6418754
  37.7712332  63.9109851  43.3666598  37.7908631  63.1267401  42.2416529
  37.4536905  63.6750176  42.6892515  30.8384111  73.2247616  51.9721492
  30.2472044  73.8657115  51.9424507  31.6005134  73.6485234  51.9452792
  30.8632371  73.3823455  51.9636639  31.2344733  64.3849614  52.6389510
  31.6946215  64.4588544  53.3764633  31.2800840  65.1830868  52.2889331
  31.3095289  64.5143761  52.6962266  32.8828083  65.0516309  57.2061537
  32.4913648  64.4049656  57.6417315  33.0513946  65.6427744  57.8255792
  32.8498993  65.0430577  57.3624243  34.6581605  70.4441825  43.7463761
  35.4023650  70.8316101  43.9846711  34.8042301  69.5999250  43.9104249
  34.7892190  70.3772298  43.8057731  36.5761181  62.2392084  48.7795622
  35.7297226  62.4114891  48.6536972  36.5732313  61.4341427  49.1161451
  36.4508330  62.1453113  48.8106749  37.6459481  66.0167298  49.6457680
  37.1719435  65.4909060  50.1562991  38.0177617  65.4696771  49.0772542
  37.6309370  65.8583295  49.6372827  28.0232511  68.0138805  55.0141226
  28.8858124  67.9134514  54.9278556  27.6924294  67.4333514  54.4526798
  28.1017707  67.9130432  54.9186632  39.5742981  66.9103853  42.7083434
  39.0465999  66.9932597  42.0189143  40.0338689  67.6521724  42.7048079
  39.5644831  67.0324515  42.6058129  45.9101399  67.8571131  49.0093720
  45.6711169  67.8166965  48.1714504  46.0735300  68.7042283  49.1359441
  45.8991702  67.9763216  48.9047202  31.3834297  66.8381254  51.6751644
  30.7587367  66.8499646  51.0677597  31.0479892  67.3141429  52.3242884
  31.2419789  66.9099771  51.6808213  31.5676046  65.1806372  37.7324329
  31.2188850  65.8326098  38.1955878  31.0872492  65.1663485  37.0048200
  31.4446290  65.2749426  37.6935420  28.0959973  74.8981714  53.1155408
  27.5659897  74.2074153  53.1650383  28.3685066  74.8891899  52.2868117
  28.0584695  74.7948846  53.0002824  39.1280063  75.4807416  41.8393091
  39.8514262  75.9465529  41.6957664  38.6880654  75.5481026  41.0890688
  39.1695755  75.5591253  41.7077872  30.6525042  68.4474402  53.8926513
  30.8118529  67.6917726  54.2978235  30.4717936  68.9965341  54.5467250
  30.6490401  68.4168215  54.0489219  38.5945345  60.6135637  54.4477302
  38.0985907  60.8099311  53.7568869  39.3514407  61.0128305  54.2766104
  38.6332170  60.7013371  54.3197439  35.8648225  64.2877983  51.0380613
  35.8890712  63.7538095  50.3493393  36.1159699  63.7795292  51.7006203
  35.9058144  64.1338887  51.0345257  23.3755815  71.5709478  50.4723757
  23.2699264  71.5256322  49.6075841  22.6256035  71.9163259  50.7538042
  23.2491418  71.6150386  50.3861086  32.1449547  63.0148801  50.4186357
  32.1847919  63.5158008  51.1321064  31.3199212  63.1059195  50.1492280
  32.0289073  63.1030618  50.4836895  34.3279160  72.5809541  58.5206651
  33.4774791  72.7181256  58.6564296  34.4907288  71.8473320  58.9654353
  34.2263024  72.4923642  58.6062251  33.5663911  69.5309311  52.7160256
  32.7355840  69.6983129  52.5095504  33.5115428  69.1545262  53.5009141
  33.4353326  69.4999042  52.8008784  31.3747694  63.0218204  58.3516667
  32.0000397  62.4780337  58.6246099  30.9198174  62.5413122  57.7824457
  31.3995955  62.8707685  58.3078260  31.9399954  67.8064903  43.2450374
  32.0802916  68.3037367  43.9479015  32.4382487  67.1051197  43.3864587
  32.0341035  67.7766881  43.3701953  31.9700177  68.6732014  40.5742950
  32.6045256  69.2692439  40.5092412  32.0525788  68.3735471  41.3888821
  32.0756728  68.7172922  40.6846037  33.5479160  64.6045989  40.5488392
  33.8695001  64.1249072  39.8947655  33.8106103  65.4145635  40.3579204
  33.6345185  64.6535887  40.4243885  38.9438315  63.9918183  52.9111872
  39.3693386  63.5390709  52.2995398  38.3295308  63.4378254  53.1876659
  38.9166960  63.8432159  52.8616897  28.4753165  70.8699854  43.8432496
  28.9845394  71.4664362  44.2243802  28.9487437  70.6025828  43.1608916
  28.6196540  70.9185670  43.7987019  39.3883913  79.5428121  41.9991152
  38.6713223  79.3688983  41.5338389  40.0390650  79.3080693  41.4666638
  39.3785763  79.4823914  41.8520370  37.3832538  60.4633283  46.3202449
  36.7400855  60.3130929  46.8887587  37.0431945  60.2175628  45.5551553
  37.2377615  60.4045405  46.2905464  41.9731884  68.4192710  45.7432457
  41.3023074  68.9622412  45.6145523  42.6671634  68.8887565  45.5014152
  41.9760752  68.5690981  45.6887985  42.1360011  64.8748593  48.6522830
  42.4887622  64.4478316  49.3268629  41.2774813  64.7899437  48.7823907
  42.0609456  64.7993334  48.7717841  30.8343696  67.5056113  46.7105677
  30.1155686  67.9220246  46.9778540  31.2056059  68.0710352  46.1597315
  30.7835628  67.6505394  46.6688484  40.1343277  68.1383962  52.6007673
  40.1141205  67.9567257  53.4542451  40.1822478  69.0095980  52.5767256
  40.1377918  68.2400500  52.7230967  38.0789607  74.7271154  58.5256149
  38.0385462  74.0820831  57.9401305  38.8912925  74.6707771  58.8381561
  38.1932761  74.6230121  58.4853098  36.6090271  66.5454113  42.0479056
  36.0155110  66.8671109  41.4963623  36.6465549  65.6995208  41.8400162
  36.5264660  66.4678441  41.9361828  43.5684072  59.9967005  49.5807143
  43.0614936  59.2896145  49.5128320  44.3651505  59.6660194  49.7108219
  43.6111311  59.8440157  49.5906138  39.4848087  66.5033617  45.4780807
  39.2561780  66.5266319  44.6359165  39.7446164  65.6791084  45.5975817
  39.4894275  66.3849697  45.3706004  33.7667316  68.3568090  55.0805907
  33.2546219  67.7489273  55.4390938  33.5946812  69.0724683  55.5479883
  33.6656953  68.3731390  55.2022130  28.6133031  66.8005666  57.7308269
  28.4435621  67.4607041  57.1856475  28.1698980  67.0112227  58.4520758
  28.5232364  66.9291648  57.7569898  32.5392850  65.0410164  46.7735002
  33.0150216  65.4027244  46.1385183  32.0381450  65.6966631  47.0535145
  32.5358209  65.1904352  46.7211743  45.7704212  74.5131932  42.5648007
  46.1537817  75.2623288  42.7946104  44.9748325  74.7597751  42.3059996
  45.7097994  74.6601626  42.5605581  37.6436386  66.2792335  57.5208162
  38.2007816  66.0506145  56.8886628  37.3197451  67.0398001  57.2443375
  37.6782796  66.3576172  57.3864659  25.5135095  69.7052531  52.9896758
  24.9661815  69.0353177  53.1077627  26.3027473  69.3382379  53.0540226
  25.5487279  69.5517518  53.0165459  35.3619503  69.3659988  58.4860169
  36.1130830  69.6811665  58.7999724  35.5542080  69.1639159  57.6594091
  35.5010918  69.3827370  58.4103565  34.5819503  67.1851364  40.1408386
  34.9618468  67.2030993  39.3559501  33.8412099  67.6305352  40.0199234
  34.5288341  67.2533138  40.0071954  42.2104794  65.4933555  45.7283965
  42.2099020  65.3382211  46.5868241  42.0060974  66.3396542  45.6725350
  42.1804571  65.5954175  45.8471904  24.2722065  68.9173339  50.1442781
  24.0943826  68.4649948  50.8697697  23.9841087  69.7199501  50.3281259
  24.2035018  68.9695897  50.2786284  39.9345646  70.1731056  49.3820172
  40.4299311  69.4554052  49.3424192  39.1245421  69.8701854  49.2674659
  39.8889539  70.0228703  49.3593898  35.3804257  74.0228870  41.5317176
  34.5715580  73.6995543  41.4850486  35.8879166  73.3162092  41.4645425
  35.3353924  73.8710186  41.5147471  26.0094534  71.4501063  47.2564541
  25.1440054  71.4386753  47.1447312  26.1093350  71.2631286  48.1035680
  25.8968701  71.4207124  47.3653485  40.6753049  78.2470322  60.5790530
  40.7850014  77.4578882  60.9347277  41.0043945  78.1576258  59.7764868
  40.7405454  78.1176175  60.5132921  35.5045559  61.4096479  55.3556553
  35.6373465  60.6127472  55.6837528  35.8890712  61.9362882  55.9354828
  35.5801888  61.3696396  55.4900056  38.5777914  58.3326805  51.9537646
  37.7723878  58.2224535  52.2705484  38.4484650  58.4339261  51.0967512
  38.4398047  58.3310475  51.8745686  42.0343875  64.4972297  52.5477343
  41.4506863  64.9981503  52.1354910  42.3548169  63.9901853  51.9141666
  41.9957050  64.4964132  52.3935850  34.5738674  63.4112892  42.8236018
  35.3954368  63.5811205  42.5817713  34.1108325  63.5660153  42.1002315
  34.6269836  63.4594625  42.6807662  33.1634006  61.4055654  53.6034447
  33.7078419  61.0646781  54.1938788  33.2170941  62.2641115  53.7455731
  33.2523125  61.4810913  53.7116320  28.9764564  75.1672070  50.4773254
  29.5809422  75.1267904  49.8487075  28.7691877  76.0143222  50.5077310
  29.0353462  75.2860072  50.3889371  24.2115847  74.1506688  50.3472178
  24.1140125  73.3402959  50.6562234  24.9944716  74.1298481  49.9618446
  24.3131983  74.0273778  50.3359041  55.2621987  85.0902867  44.6578368
  55.2315991  85.9447504  44.8296638  55.8603336  84.7898159  45.2164512
  55.3459145  85.1719363  44.7653170  48.4621672  84.1778518  49.4131299
  47.6059567  84.3387016  49.4640415  48.5089326  83.3070582  49.4336360
  48.3420783  84.0729320  49.4237365  42.8462812  93.7141236  45.1768530
  42.0945711  93.3356774  44.9484575  43.2948823  93.7459669  44.4287340
  42.8012478  93.6626843  45.0326032  51.7715388  90.4465043  59.0191755
  52.4782156  89.9517074  59.1478689  51.9603324  90.8874125  58.2894413
  51.9043294  90.4383394  58.9300800  48.2987771  94.1366605  40.6054077
  47.9639140  94.8143527  40.1698299  48.8114642  93.7471916  40.0170949
  48.3253353  94.1791183  40.4540869  47.8392063  96.0880874  46.5465189
  48.2231442  96.6567773  46.0069964  47.7751204  95.3630384  46.0671005
  47.8865490  96.0656337  46.3959051  51.3073493  86.2370562  52.0562950
  51.8529453  86.9155648  52.1156920  51.2490369  86.0958023  51.1964532
  51.3789407  86.3162563  51.9375011  44.4247568  93.7259628  47.4431303
  44.5257931  92.9159982  47.7528430  43.8289313  93.6316574  46.8130981
  44.3520106  93.5924656  47.3957541  53.0838561  87.6655169  42.9296678
  52.9678087  88.4162855  43.3588816  53.8794448  87.4079122  43.1792765
  53.1843151  87.7390016  43.0300770  44.2648307  98.6437217  48.8446159
  44.9085763  99.0850381  49.2342317  44.5904563  97.8390643  48.7576417
  44.4080136  98.5902412  48.8891636  37.6212612  89.7479914  47.0683636
  37.3862796  88.9147567  46.9615905  37.7598253  90.0284580  46.2544837
  37.6068274  89.6663418  46.9325991  44.9668887  91.6549192  44.2166020
  45.2884728  92.1954399  43.6127329  45.6140984  91.0845963  44.3488310
  45.1094942  91.6508367  44.1473056  47.0170595  83.6565187  44.3000407
  47.7150760  83.8353314  44.7921870  47.3322928  83.1335526  43.6770797
  47.1665932  83.6058959  44.2802417  39.6471832  85.4617927  52.2111513
  39.5230529  86.0480372  52.8461332  40.2990117  84.9678122  52.5123788
  39.7245482  85.4756731  52.3497442  47.2058530  90.0435632  44.2880199
  47.6452166  89.4352732  44.7334971  47.0563193  89.6643005  43.5165664
  47.2479996  89.8974103  44.2399366  44.6730173  88.6379644  51.4899024
  45.3179176  88.1452087  51.1709973  44.9131951  88.7804430  52.3165102
  44.8040759  88.5857086  51.5648557  47.2116265  91.4834550  51.1405917
  47.4939508  90.6885955  50.9192673  47.9402425  91.9615137  51.1610978
  47.3605829  91.4369146  51.1108932  45.1897459  79.0257583  48.3821682
  44.8600789  79.4768727  47.7125381  44.5142460  78.9473747  48.9294688
  45.0407895  79.0808719  48.3644905  50.8067867  88.3962813  41.2410968
  50.7219162  89.2523780  41.3860537  51.2952250  88.1207137  41.9093127
  50.8656764  88.4820135  41.3613049  52.3973866  75.0143106  46.6271292
  52.0827307  75.7046585  47.0591715  51.8800808  74.9587889  45.9256793
  52.2738337  75.1077995  46.5868242  51.7386300  85.0147607  42.7408703
  51.2097772  85.2307241  43.4006009  52.2611320  85.7083746  42.6609672
  51.7374753  85.1490744  42.8264302  57.1934353  90.5893912  48.1141747
  56.3632056  90.8004555  48.2775164  57.1443605  89.7630966  47.8384031
  57.0641089  90.4983518  48.0979113  43.6285908  88.9110824  41.5416171
  43.0443123  89.4160855  41.9482035  43.2256003  88.6853211  40.8012763
  43.4825212  88.9519072  41.4921196  39.1829937  94.6265585  48.3439843
  38.6997515  95.3516075  48.3199426  39.9953255  94.9241715  48.4550000
  39.2320684  94.7767939  48.3567122  45.2544091  93.4197766  50.9489657
  44.7371032  93.0605181  50.3450965  45.9518482  92.8959940  50.9595723
  45.2809672  93.2895454  50.8619916  48.9107683  93.8692580  56.9105830
  48.9991029  93.6818720  57.7584040  49.3397395  93.2230010  56.5110677
  48.9869785  93.7455588  56.9777581  46.4778142  93.1523740  55.8923492
  45.9148977  92.7396350  56.4163153  47.2399166  93.0776646  56.3116635
  46.5072591  93.0801140  56.0316493  48.0863122  85.1576476  40.0185092
  48.3259126  85.3654460  39.2060435  48.4078963  84.3533985  40.1274036
  48.1700280  85.0690577  39.9145645  43.3953413  77.0869872  43.8644630
  44.1499381  77.4548189  43.6261680  43.2180947  77.4609426  44.6323809
  43.4807891  77.1968060  43.9429518  42.0374134  95.1421761  48.4960122
  42.7394713  94.6273750  48.5532879  41.9571617  95.4695912  49.3006997
  42.1297894  95.1135987  48.6232915  56.6888311  83.2364312  51.9092169
  55.8516733  83.3066499  52.1439763  56.6576542  83.2388807  51.0366471
  56.5606594  83.2474539  51.8151717  43.0853040  85.3797348  57.6240537
  43.2573544  85.2703243  58.4725819  43.6222398  86.0251753  57.3871730
  43.1898044  85.4589350  57.7145634  41.7510477  79.4940191  40.5622743
  41.5686051  79.7112072  39.7363735  42.6136090  79.6079204  40.6181357
  41.8515067  79.5430089  40.4477230  41.3624909  91.3328113  48.0045730
  42.2013809  91.5651046  48.0519492  41.3936679  90.4632425  47.9352766
  41.4906627  91.2385060  48.0010375  41.9877612  91.7528988  52.3059036
  42.5275837  91.6100119  52.9762408  41.3047559  92.1525739  52.6743062
  41.9669766  91.7908659  52.4593458  47.4310197  76.4966602  43.5971766
  48.1596357  76.3182557  43.1509923  47.5205089  77.3384681  43.8078944
  47.5516859  76.5950480  43.5625284  51.4118497  87.4319989  47.5004060
  52.1676012  87.8651503  47.5392969  51.5180822  86.7824759  48.0738696
  51.5388668  87.3997473  47.5902086  54.4498668  91.2593266  48.2506463
  54.0133900  91.2630009  49.0065435  54.1161584  91.9398765  47.8186041
  54.3361288  91.3605722  48.2987296  49.0227742  93.3001599  59.5749614
  49.8068159  93.4132447  59.9405356  48.8224337  92.4742736  59.7708299
  49.1093767  93.1948318  59.6584000  37.3914757  87.9729279  52.4593457
  37.1253173  87.1568396  52.6184448  37.4053322  88.0182435  51.5888973
  37.3539480  87.8586184  52.3546939  54.3696151  78.3007094  50.4935891
  55.0122060  78.3705199  51.0797806  54.6219172  77.6336317  49.9915433
  54.5018283  78.2133443  50.5063170  41.2972504  82.7714364  39.0745216
  40.5830682  82.4852543  39.4867648  41.7816473  83.1110989  39.7151603
  41.2631868  82.7796013  39.2300850  42.1413364  81.5107657  55.1060465
  41.4485161  81.0404637  55.3521197  42.7573691  81.2845962  55.6802172
  42.1297894  81.4074789  55.2269618  49.1798135  95.2111701  53.2216069
  48.3813381  94.9711201  53.4789938  49.6284147  95.2626094  53.9683117
  49.1272747  95.1834092  53.3700993  57.5843015  87.9774186  47.1426100
  58.2459449  87.4164855  47.0422009  56.9434427  87.4826217  47.4678792
  57.5871882  87.8210595  47.1758441  48.4719822  91.2744317  39.4507024
  48.8870971  90.9429341  38.7591519  47.6411752  91.0413220  39.3227160
  48.4107831  91.1915573  39.3297871  37.8008171  88.7588059  49.7405202
  37.6183744  88.7334945  48.8877494  38.5357840  89.2286996  49.7794110
  37.8822235  88.8249421  49.6203120  53.8707845  88.9939568  46.8838089
  54.1063434  89.1384767  46.0564940  54.0197409  89.7581976  47.2769603
  53.9273649  89.1278623  46.8201693  40.8653923  85.4773061  56.2487310
  41.5893895  85.4626092  56.7352205  40.9670059  86.1868417  55.7509279
  40.9872132  85.5797765  56.2466097  55.6998302  87.8341234  44.7207693
  56.0306519  88.3668875  44.1147788  56.2731390  87.8880122  45.3769644
  55.8331981  87.9210803  44.7285475  48.2398872  88.9572146  61.1136257
  47.4471853  89.2715658  61.2988877  48.3547799  89.1723614  60.2757042
  48.1394283  89.0355983  61.0174592  50.9130191  85.6806137  45.4031273
  51.0077046  86.4195431  45.8570899  50.2889035  85.2523613  45.8365838
  50.8339221  85.7267458  45.5339421  49.1682665  88.8592350  56.0521554
  49.7421527  88.2219594  56.2070118  49.0897469  88.8596432  55.1831212
  49.2415900  88.7657461  55.9467965  37.7679081  85.6381559  49.8904268
  38.3452584  85.5018010  50.5296514  37.0693143  85.1817343  50.1449853
  37.7500103  85.5503825  50.0226558  51.1653212  87.5254877  38.6368225
  51.0833375  87.5957064  39.5023212  51.8032933  88.0884621  38.4451966
  51.2473050  87.6193848  38.7358175  44.5246384  87.2915615  48.1042752
  44.2665628  86.4587350  48.0774051  44.5794866  87.5173228  47.2635252
  44.4946161  87.2013386  47.9762888  49.6047434  79.3944066  48.2046844
  48.9003760  78.9053251  48.3630763  49.6532408  79.4066540  47.3335289
  49.5077485  79.3233714  48.0986184  43.4981096  84.8453377  48.5907646
  42.9230687  85.0045546  49.2271607  43.1216772  84.2088786  48.1276097
  43.3583908  84.7751190  48.6162205  47.1654384  83.3176727  53.4500025
  46.7768817  82.8930944  52.7952216  46.5009083  83.5658876  53.9577051
  47.0101312  83.2915448  53.4287893  56.8077654  83.0751731  46.2247855
  56.5514218  82.2631673  46.0345738  57.6506967  83.0829298  45.9978042
  56.8943679  82.9563729  46.1632672  50.9880746  77.0151355  50.9624009
  51.3691258  76.3329526  51.3491883  50.1844030  76.7260957  50.7799673
  50.9257208  76.8718404  50.9928065  48.2693323  87.5475331  41.6476832
  49.0833961  87.8390224  41.5359603  48.2052464  86.8935194  41.0735125
  48.3796062  87.4940526  41.5465669  54.4902813  90.2301327  56.0606407
  54.2541450  89.3989392  55.9418468  55.1346042  90.1786935  56.6461252
  54.5497484  90.0999015  56.1292301  44.1401231  91.0196849  46.7749144
  44.7775178  90.7808596  47.3200937  44.5656302  91.2234008  46.0402304
  44.2977397  91.0147859  46.7466301  38.8313873  93.2585185  50.6583448
  38.8718019  93.5300036  49.8303227  39.3908397  93.7827093  51.0741235
  38.9197219  93.3760940  50.5975336  44.7804046  86.2399138  41.1124033
  45.1649199  86.0206845  41.8640578  44.5315666  87.0662084  41.2425110
  44.8006119  86.3297285  41.2425110  44.9472586  79.5205554  60.8286617
  44.6326027  80.2905116  60.5656180  44.6262519  78.9575810  60.2438844
  44.8531505  79.5515822  60.7027967  55.5139233  90.0145776  52.1234702
  55.2085050  90.7473833  52.4848017  54.7945449  89.6083706  51.8427488
  55.3626576  90.0627509  52.1347839  46.5222703  91.4969271  48.4542930
  46.5961711  91.3344443  49.3084780  47.3392209  91.6859461  48.2103412
  46.6539061  91.5006014  48.5440956  61.2141026  86.6538777  51.4503046
  61.1465526  86.6734736  50.5805633  61.1996688  87.4969104  51.6758717
  61.2019782  86.7812511  51.3555523  40.2828460  91.8427134  45.4837374
  39.4566577  92.0888871  45.3571652  40.3440451  91.7639215  46.3499432
  40.1702627  91.8672083  45.5926318  42.5004483  77.9096075  46.4432814
  41.6326909  77.9818675  46.5090423  42.7879688  78.7118154  46.6320789
  42.4144231  78.0390222  46.4807580  51.6237372  78.0573934  54.7744135
  52.3690964  77.8683745  54.3607561  51.2074677  78.5832172  54.2157992
  51.6722346  78.1076080  54.6308709  45.0627289  94.4604014  43.1856403
  45.3525587  94.0692996  42.4615630  45.7930769  94.6420719  43.6261679
  45.2134173  94.4297828  43.1439210  58.9999643  85.4283163  49.7249640
  59.5507564  84.7951232  49.9646733  58.9843758  85.9598556  50.4165145
  59.0784839  85.4132111  49.8628499  45.6522034  89.2621760  54.2709534
  45.1533727  89.9737528  54.3494422  46.4622258  89.5822427  54.2327696
  45.6978140  89.4148609  54.2766102  43.0033204  96.4371397  46.2516553
  42.7833500  96.1468751  47.0443220  42.7827726  95.7786352  45.7234465
  42.9380798  96.2971105  46.2905462  41.9150151  88.5244713  48.5172255
  41.6263400  87.8982185  49.0517982  42.7833499  88.4665001  48.5836935
  42.0010403  88.4232257  48.6063209  52.7028049  83.6679497  48.8354237
  52.3592815  82.9469832  49.1861486  52.8021092  83.4593348  47.9932595
  52.6670092  83.5303700  48.7625917  45.1701160  97.8100787  45.0347246
  45.8225218  97.2777229  45.2638272  44.4726769  97.4569439  45.4215120
  45.1631878  97.6790310  45.1259413  42.1182425  90.1639964  44.4414620
  42.8728393  90.5453003  44.6550082  41.5253037  90.6151108  44.8961316
  42.1419138  90.2868792  44.5397498  53.1641078  90.1305201  44.3778225
  53.7299111  90.7898411  44.2936768  52.5168982  90.4754899  44.8494627
  53.1519835  90.2787142  44.4350981  44.5789092  82.1202805  59.5671832
  43.7688867  82.4260584  59.4561674  45.0563778  82.8408387  59.6824416
  44.5292571  82.2717406  59.5678903  43.4380651  91.3348526  49.8154735
  42.9161405  91.4748817  50.5006600  43.8254672  90.5759190  50.0056853
  43.4184352  91.2434049  49.9455812  40.4271835  81.3854334  43.8849690
  40.1396631  81.0155605  43.1481637  41.1142304  81.8549190  43.6233395
  40.4860733  81.4001304  43.7364766  49.6347656  93.0743985  43.8015304
  49.3934332  92.3411846  43.3942369  49.8148989  93.6230842  43.1481637
  49.6255280  93.0466376  43.6445527  44.8646977  88.3652545  45.2136226
  44.6689760  88.9727279  44.6196529  45.0881323  87.6720489  44.7327900
  44.8681618  88.3530070  45.0552307  43.2625507  85.2507283  45.3317095
  43.9848159  85.4148441  44.8720901  42.7833500  85.9716947  45.2256434
  43.2989238  85.3805512  45.2482709  51.2219015  81.5871081  50.7113780
  50.3830115  81.6132360  50.4752043  51.2923382  82.2341817  51.2919126
  51.1087408  81.6867207  50.7622896  40.9133124  87.6565355  54.4371234
  41.4254221  87.9349608  53.7879994  40.6269466  88.3954649  54.8034048
  40.9467987  87.8067709  54.3961113  49.6688293  78.4856458  45.4441396
  50.3714646  78.2864207  44.9661354  49.4032482  77.7132401  45.7510239
  49.7334925  78.3419424  45.4186837  55.0976538  86.7939068  47.9975021
  55.0110513  86.9494494  48.8509800  54.6427018  87.4377144  47.6234426
  55.0179795  86.9114823  48.0682128  44.4316849  79.7491744  54.4972276
  44.2400046  79.7646878  55.3471700  45.2815445  79.9455418  54.4738931
  44.5292571  79.7806095  54.6195571  38.8163762  82.2782725  52.4756093
  38.6749254  81.4266666  52.6000601  39.1004325  82.3211386  51.6518299
  38.8371608  82.1582475  52.3723717  48.9702354  84.1149815  46.6200581
  48.7237069  84.0345566  47.4537370  49.2987478  83.3303283  46.4263108
  48.9823598  83.9876081  46.7148104  52.8650403  90.8233175  50.4087362
  52.7264763  91.5214220  50.9136104  52.0850401  90.6681831  50.0523544
  52.7293630  90.9033341  50.4313636  51.2028488  87.1229550  56.6609744
  51.1976527  86.2509366  56.6652170  51.9089482  87.3217719  56.1879199
  51.3073492  87.0233424  56.5916779  44.9299382  86.8506534  56.0323564
  45.0742757  87.4307742  55.3966674  45.2775030  87.2282831  56.7373419
  45.0026843  86.9927238  56.0422559  47.1019299  86.0496702  53.8148696
  46.3542613  86.2427717  53.4096974  47.2560824  85.2241922  53.5772817
  47.0141727  85.9561814  53.7194101  44.0027137  95.0409306  52.8984591
  44.1516700  94.4812222  52.2457995  44.7827139  95.1201307  53.2817110
  44.1401230  94.9694871  52.8581540  54.3603776  90.1811428  41.1703861
  53.9810585  89.3948566  41.1633151  53.6970022  90.7298285  41.0275506
  54.2062251  90.1456252  41.1484658  46.5280437  95.2123949  54.1769082
  46.4524108  94.5432759  54.7319870  46.4570296  95.9141737  54.6909748
  46.5061044  95.2168856  54.3345930  47.3421076  79.9447253  54.7044099
  47.7993690  80.6771227  54.8316891  47.4177405  79.5213718  55.4631355
  47.4212046  79.9904491  54.8345176  39.5854067  80.1913073  55.7933543
  39.0496257  79.5793431  56.1094310  39.6471832  80.7661209  56.4467210
  39.5149700  80.1860000  55.9368970  51.8148402  73.1237128  48.5737942
  51.9331970  73.5813591  47.8405245  51.6410578  72.3182389  48.2874160
  51.8067573  73.0730900  48.4238876  47.1850684  93.7324947  45.0092688
  47.9500575  93.4634591  44.6875352  47.0828774  93.2474958  45.7262750
  47.2832180  93.6214512  45.0672515  45.2203454  81.9349357  51.5485923
  44.4299529  81.7540817  51.8703259  45.6164077  81.1576309  51.5316218
  45.1620330  81.7936818  51.5938472  49.7069345  90.7637131  36.9892637
  50.4742330  90.8237256  36.5798489  49.2600654  90.1917573  36.5048955
  49.7542772  90.6873707  36.8570347  50.6047140  89.5691787  49.2745369
  49.9292142  89.3377019  49.7758756  50.6139516  88.9612970  48.6487474
  50.5065645  89.4450712  49.2561521  47.7341284  84.4109616  56.0309422
  47.6700426  85.2719572  55.9029559  47.8738472  84.0941609  55.2304973
  47.7456754  84.4909783  55.8937635  52.6063875  92.4256919  41.5055547
  52.6883712  93.2323906  41.1816998  53.0913617  92.4452879  42.2296321
  52.6901033  92.5477582  41.5642446  46.4160378  87.1041755  50.1725625
  45.9922627  87.3046254  49.4364643  46.2405233  86.2570603  50.2849925
  46.3271259  87.0090537  50.0799315  45.9172072  98.6192268  52.6347082
  46.4068002  97.9203058  52.4522747  45.3456304  98.3216138  53.2223140
  45.9056602  98.4718492  52.6948123  41.7042823  87.5993807  45.6053598
  41.8607442  87.5340610  46.4609590  42.0443416  88.3742359  45.3932277
  41.7776058  87.7043005  45.7008192  48.2421968  86.9751690  44.4746961
  48.7837513  86.4722071  44.9385581  48.5568527  86.9216885  43.6636446
  48.3686365  86.8931111  44.4230773  52.1139075  91.1854338  61.5873873
  52.9273940  90.9139487  61.7479006  51.9534042  90.8861878  60.7834069
  52.2109024  91.1009264  61.4919279  46.4108417  92.3669042  41.7586989
  46.4801238  91.5083580  41.8979989  47.1896873  92.5840923  41.4306013
  46.5361268  92.2721906  41.7304146  49.3911237  81.8687995  54.5269261
  49.6053207  81.2298909  53.9732615  48.7745136  82.3133819  54.0977123
  49.3316566  81.8398139  54.3819692  50.8015905  94.7906743  45.9723482
  50.4095697  94.4873458  45.2546348  50.9568977  95.6275833  45.7828436
  50.7669495  94.8690580  45.8379979  38.2777085  84.7828757  45.9214365
  38.6576050  85.2013302  45.2574632  37.7032449  85.3642213  46.2283208
  38.2488410  84.9306616  45.8691106  51.5550325  83.4777060  55.4652568
  50.7427007  83.1702950  55.5465741  52.0140260  82.9976060  56.0295281
  51.5030710  83.3613552  55.5607163  50.9655580  91.3556732  45.9129513
  50.6070235  91.5271375  46.6893545  50.4794291  91.8169938  45.3557511
  50.8414277  91.4495703  45.9454782  48.7825966  74.9787931  49.5156604
  47.9119524  74.9526652  49.4689914  49.0366307  74.8065123  48.6982450
  48.6919526  74.9498074  49.3876741  45.7543945  87.0355897  38.4529747
  46.0436470  87.8120780  38.7273321  45.8415744  86.5244629  39.1544246
  45.8098201  87.0747816  38.5972245  48.6503833  84.8837131  60.2481271
  49.1203464  85.5079248  60.6349145  48.6965713  84.2154107  60.8074485
  48.7271709  84.8771812  60.3881342  45.8075106  76.9894159  50.9730074
  45.2913595  76.2974350  51.0981653  45.2469035  77.6564936  50.9192673
  45.6481620  76.9857417  50.9836140  47.8767340  77.5287119  52.8022927
  47.4899093  77.5536150  53.5836457  47.3900277  76.9628798  52.3497444
  47.7479849  77.4482870  52.8510831  52.1260319  92.2460628  56.8596714
  52.7640040  91.7520824  56.5259170  51.4834411  92.1738028  56.2748940
  52.1254546  92.1619636  56.7239069  53.8517319  84.0949774  51.4262629
  53.4244927  84.0076123  50.6710729  53.2143372  84.2027549  52.0117473
  53.6946927  84.0982434  51.4008071  47.3438396  79.2025299  57.3659599
  48.1711826  78.9310448  57.4218213  47.3646242  79.9986141  57.7223417
  47.4691246  79.2805053  57.4274781  52.1814576  92.9380436  53.5002070
  52.9706954  92.5869501  53.6204152  52.3558174  93.7516825  53.2378704
  52.3234857  93.0066293  53.4789938  41.9207886  86.3489162  50.5529859
  41.0795893  86.2493036  50.7608753  42.1297894  87.1184642  50.9044180
  41.8272579  86.4481205  50.6357174  39.3983453  83.9708699  48.3814610
  39.0040151  84.0451711  47.6064719  38.8423570  84.3566645  48.9322972
  39.2586266  84.0390474  48.3482270  51.0348400  76.9489993  48.0618489
  51.2397993  76.8812301  48.9075486  50.7074824  77.7548814  47.9939666
  51.0163648  77.0575933  48.1778144  45.7324551  84.2770561  49.8027457
  45.4287689  83.7226549  50.4037864  45.0303972  84.4562771  49.3155491
  45.5840761  84.2215344  49.8197162  44.7890648  81.5871081  44.3672159
  45.0650383  80.8689994  43.9549726  45.3889317  82.1856001  44.1593265
  44.9183913  81.5691452  44.2752920  43.7942902  91.4920282  54.5099554
  43.6863257  91.5022344  55.3761613  44.0038684  92.3175062  54.3204508
  43.8093013  91.6161357  54.6103646  54.2882088  77.5021757  47.5421254
  53.6756401  77.9892159  47.9274986  54.3846263  76.8265248  48.0858905
  54.2119985  77.4740066  47.6800112  48.2901169  79.2584598  42.6418754
  48.7444915  79.4295159  43.3666598  48.7641214  78.6452709  42.2416529
  48.4269489  79.1935484  42.6892515  41.8116694  88.7432924  51.9721492
  41.2204627  89.3842422  51.9424507  42.5737718  89.1670542  51.9452792
  41.8364955  88.9008763  51.9636639  42.2077317  79.9034922  52.6389510
  42.6678798  79.9773851  53.3764633  42.2533424  80.7016176  52.2889331
  42.2827872  80.0329069  52.6962266  43.8560667  80.5701617  57.2061537
  43.4646232  79.9234964  57.6417315  44.0246529  81.1613052  57.8255792
  43.8231577  80.5615885  57.3624243  57.9307116  88.5738694  52.9698770
  57.9890239  89.0225343  53.7158747  57.2973583  88.9837507  52.5328850
  57.8458411  88.7012429  53.0151319  51.5706210  94.1942236  49.4053517
  51.3725899  94.6833050  48.7109728  50.9493921  94.3983477  49.9837650
  51.4493775  94.2958774  49.3876740  45.6314189  85.9627133  43.7463761
  46.3756234  86.3501409  43.9846711  45.7774885  85.1184558  43.9104249
  45.7624774  85.8957606  43.8057731  47.5493764  77.7577392  48.7795622
  46.7029809  77.9300199  48.6536972  47.5464897  76.9526735  49.1161451
  47.4240914  77.6638421  48.8106749  48.6192065  81.5352606  49.6457680
  48.1452019  81.0094368  50.1562991  48.9910200  80.9882079  49.0772542
  48.6041953  81.3768603  49.6372827  38.9965095  83.5324113  55.0141226
  39.8590708  83.4319822  54.9278556  38.6656878  82.9518822  54.4526798
  39.0750291  83.4315739  54.9186632  54.8828795  86.5954982  51.0564461
  54.6427018  85.7561397  51.0606887  55.3620802  86.6755148  51.7805234
  54.9180979  86.4836381  51.1639263  50.5475564  82.4289161  42.7083434
  50.0198583  82.5117905  42.0189143  51.0071272  83.1707032  42.7048079
  50.5377415  82.5509823  42.6058129  56.8833982  83.3756439  49.0093720
  56.6443752  83.3352273  48.1714504  57.0467883  84.2227591  49.1359441
  56.8724286  83.4948524  48.9047202  53.4880012  87.7606388  54.9398765
  54.2114211  87.3078915  54.7609785  53.2229975  88.0411054  54.1571093
  53.5561286  87.7357357  54.7977480  42.3566881  82.3566562  51.6751644
  41.7319951  82.3684954  51.0677597  42.0212476  82.8326737  52.3242884
  42.2152372  82.4285079  51.6808213  42.5408629  80.6991680  37.7324329
  42.1921434  81.3511405  38.1955878  42.0605075  80.6848793  37.0048200
  42.4178873  80.7934734  37.6935420  39.0692556  90.4167022  53.1155408
  38.5392481  89.7259461  53.1650383  39.3417650  90.4077207  52.2868117
  39.0317279  90.3134154  53.0002824  50.1012647  90.9992724  41.8393091
  50.8246846  91.4650837  41.6957664  49.6613238  91.0666334  41.0890688
  50.1428339  91.0776561  41.7077872  49.2698802  87.8590266  53.0893780
  48.6555795  87.3148317  53.3842415  49.7866087  87.3454503  52.6099596
  49.2554464  87.7026675  53.0618008  48.5095099  88.9294536  50.8238079
  48.0822707  88.3044255  50.3903514  48.5020043  88.6469458  51.6497086
  48.4454240  88.7947317  50.8817906  41.6257626  83.9659709  53.8926513
  41.7851113  83.2103034  54.2978235  41.4450520  84.5150649  54.5467250
  41.6222985  83.9353523  54.0489219  49.5677929  76.1320945  54.4477302
  49.0718490  76.3284619  53.7568869  50.3246991  76.5313613  54.2766104
  49.6064754  76.2198679  54.3197439  46.8380809  79.8063291  51.0380613
  46.8623296  79.2723403  50.3493393  47.0892282  79.2980600  51.7006203
  46.8790727  79.6524195  51.0345257  34.3488398  87.0894786  50.4723757
  34.2431848  87.0441630  49.6075841  33.5988618  87.4348567  50.7538042
  34.2224001  87.1335694  50.3861086  45.3011744  88.0994849  58.5206651
  44.4507374  88.2366563  58.6564296  45.4639871  87.3658627  58.9654353
  45.1995607  88.0108950  58.6062251  44.5396494  85.0494619  52.7160256
  43.7088424  85.2168437  52.5095504  44.4848011  84.6730570  53.5009141
  44.4085909  85.0184350  52.8008784  42.3480277  78.5403512  58.3516667
  42.9732981  77.9965645  58.6246099  41.8930757  78.0598430  57.7824457
  42.3728538  78.3892993  58.3078260  42.9132538  83.3250211  43.2450374
  43.0535499  83.8222675  43.9479015  43.4115071  82.6236505  43.3864587
  43.0073619  83.2952189  43.3701953  42.9432760  84.1917322  40.5742950
  43.5777840  84.7877747  40.5092412  43.0258371  83.8920779  41.3888821
  43.0489311  84.2358230  40.6846037  55.9215326  86.7232799  53.4429315
  56.5133166  87.3630050  53.4747513  56.3574321  86.0255836  53.7321381
  56.0733757  86.7151149  53.4910147  44.5211743  80.1231297  40.5488392
  44.8427584  79.6434380  39.8947655  44.7838687  80.9330943  40.3579204
  44.6077769  80.1721195  40.4243885  47.7508716  91.1450171  54.0687209
  47.2433807  91.6986018  54.5127839  47.4535362  91.2058461  53.2505983
  47.6313601  91.2356483  54.0135665  49.9170898  79.5103491  52.9111872
  50.3425970  79.0576017  52.2995398  49.3027891  78.9563562  53.1876659
  49.8899544  79.3617467  52.8616897  39.4485748  86.3885162  43.8432496
  39.9577978  86.9849670  44.2243802  39.9220021  86.1211136  43.1608916
  39.5929124  86.4370978  43.7987019  50.3616496  95.0613429  41.9991152
  49.6445806  94.8874291  41.5338389  51.0123234  94.8266001  41.4666638
  50.3518347  95.0009222  41.8520370  48.3565121  75.9818591  46.3202449
  47.7133439  75.8316237  46.8887587  48.0164528  75.7360936  45.5551553
  48.2110198  75.9230713  46.2905464  52.9464468  83.9378018  45.7432457
  52.2755657  84.4807720  45.6145523  53.6404218  84.4072873  45.5014152
  52.9493335  84.0876289  45.6887985  46.9951201  96.0774730  50.9744215
  46.7716856  95.3193559  51.3428242  46.5061045  96.1072751  50.2524655
  46.8894650  95.9696954  50.9220956  53.1092595  80.3933901  48.6522830
  53.4620205  79.9663624  49.3268629  52.2507397  80.3084745  48.7823907
  53.0342040  80.3178642  48.7717841  41.8076280  83.0241421  46.7105677
  41.0888269  83.4405554  46.9778540  42.1788642  83.5895660  46.1597315
  41.7568212  83.1690702  46.6688484  51.1075861  83.6569270  52.6007673
  51.0873788  83.4752565  53.4542451  51.1555062  84.5281288  52.5767256
  51.1110502  83.7585808  52.7230967  49.0522191  90.2456462  58.5256149
  49.0118046  89.6006139  57.9401305  49.8645509  90.1893079  58.8381561
  49.1665344  90.1415429  58.4853098  45.6429658  96.2975188  48.4281300
  45.2290057  95.6349318  48.0385142  46.3277033  96.4453047  47.9076994
  45.6828030  96.2215846  48.2937797  49.0094952  95.4565273  49.1804917
  48.6111236  95.5667543  48.4125737  48.3946172  95.6647339  49.7631476
  48.8593842  95.5038841  49.1536216  47.5822854  82.0639421  42.0479056
  46.9887694  82.3856417  41.4963623  47.6198132  81.2180516  41.8400162
  47.4997244  81.9863749  41.9361828  54.5416655  75.5152313  49.5807143
  54.0347520  74.8081453  49.5128320  55.3384089  75.1845502  49.7108219
  54.5843894  75.3625464  49.5906138  50.4580671  82.0218925  45.4780807
  50.2294364  82.0451627  44.6359165  50.7178747  81.1976392  45.5975817
  50.4626859  81.9035005  45.3706004  44.7399899  83.8753398  55.0805907
  44.2278803  83.2674581  55.4390938  44.5679396  84.5909991  55.5479883
  44.6389536  83.8916698  55.2022130  39.5865614  82.3190974  57.7308269
  39.4168204  82.9792349  57.1856475  39.1431564  82.5297535  58.4520758
  39.4964948  82.4476956  57.7569898  43.5125433  80.5595472  46.7735002
  43.9882800  80.9212551  46.1385183  43.0114033  81.2151939  47.0535145
  43.5090792  80.7089660  46.7211743  56.7436795  90.0317240  42.5648007
  57.1270401  90.7808596  42.7946104  55.9480908  90.2783059  42.3059996
  56.6830577  90.1786934  42.5605581  48.6168970  81.7977643  57.5208162
  49.1740400  81.5691453  56.8886628  48.2930035  82.5583309  57.2443375
  48.6515380  81.8761480  57.3864659  36.4867679  85.2237839  52.9896758
  35.9394398  84.5538485  53.1077627  37.2760057  84.8567687  53.0540226
  36.5219862  85.0702826  53.0165459  46.3352087  84.8845296  58.4860169
  47.0863414  85.1996973  58.7999724  46.5274664  84.6824467  57.6594091
  46.4743501  84.9012678  58.4103565  45.5552087  82.7036671  40.1408386
  45.9351051  82.7216301  39.3559501  44.8144683  83.1490660  40.0199234
  45.5020924  82.7718446  40.0071954  53.1837377  81.0118863  45.7283965
  53.1831604  80.8567519  46.5868241  52.9793557  81.8581850  45.6725350
  53.1537155  81.1139483  45.8471904  35.2454648  84.4358647  50.1442781
  35.0676409  83.9835256  50.8697697  34.9573670  85.2384808  50.3281259
  35.1767601  84.4881205  50.2786284  50.9078229  85.6916364  49.3820172
  51.4031895  84.9739359  49.3424192  50.0978005  85.3887162  49.2674659
  50.8622123  85.5414011  49.3593898  46.3536841  89.5414178  41.5317176
  45.5448163  89.2180851  41.4850486  46.8611750  88.8347400  41.4645425
  46.3086508  89.3895494  41.5147471  36.9827118  86.9686371  47.2564541
  36.1172637  86.9572061  47.1447312  37.0825934  86.7816594  48.1035680
  36.8701285  86.9392432  47.3653485  52.9730048  88.4420052  52.0697301
  53.3985120  87.9194474  51.5167726  52.6086968  89.0400889  51.5485923
  52.9816651  88.4530279  51.9106310  42.6084128  96.7384269  50.8294646
  42.9230687  97.5520658  50.8372428  43.0177541  96.3534488  51.4976805
  42.7152226  96.8012972  50.9298738  49.5608648  92.1554316  48.3998458
  50.0319826  92.8694579  48.5688443  49.8968826  91.5553066  48.9358328
  49.6803763  92.1725780  48.5030834  51.6485632  93.7655630  60.5790530
  51.7582598  92.9764190  60.9347277  51.9776529  93.6761566  59.7764868
  51.7138038  93.6361482  60.5132921  50.1982594  91.9472250  55.1626151
  49.6503540  91.3230134  54.8946216  50.6595623  92.1366522  54.4470230
  50.1849803  91.8831301  55.0176582  49.5510498  73.8512113  51.9537646
  48.7456461  73.7409843  52.2705484  49.4217233  73.9524569  51.0967512
  49.4130631  73.8495783  51.8745686  53.0076458  80.0157605  52.5477343
  52.4239447  80.5166811  52.1354910  53.3280752  79.5087161  51.9141666
  52.9689634  80.0149440  52.3935850  45.5471257  78.9298200  42.8236018
  46.3686952  79.0996513  42.5817713  45.0840908  79.0845461  42.1002315
  45.6002420  78.9779933  42.6807662  39.9497148  90.6857378  50.4773254
  40.5542005  90.6453212  49.8487075  39.7424461  91.5328530  50.5077310
  40.0086045  90.8045380  50.3889371  49.7640920  92.9523323  51.6935492
  50.5839294  92.8086289  51.9551787  49.4834998  93.5769522  52.2351930
  49.8437664  93.0233675  51.8123431  35.1848430  89.6691995  50.3472178
  35.0872708  88.8588267  50.6562234  35.9677300  89.6483789  49.9618446
  35.2864567  89.5459086  50.3359041  66.2354571 100.6088175  44.6578368
  66.2048575 101.4632811  44.8296638  66.8335919 100.3083467  45.2164512
  66.3191728 100.6904671  44.7653170  59.4354255  99.6963826  49.4131299
  58.5792151  99.8572324  49.4640415  59.4821909  98.8255890  49.4336360
  59.3153367  99.5914628  49.4237365  53.8195395 109.2326544  45.1768530
  53.0678295 108.8542082  44.9484575  54.2681407 109.2644977  44.4287340
  53.7745062 109.1812151  45.0326032  62.7447972 105.9650351  59.0191755
  63.4514739 105.4702382  59.1478689  62.9335907 106.4059433  58.2894413
  62.8775878 105.9568702  58.9300800  59.2720355 109.6551913  40.6054077
  58.9371723 110.3328835  40.1698299  59.7847225 109.2657224  40.0170949
  59.2985936 109.6976491  40.4540869  58.8124646 111.6066182  46.5465189
  59.1964026 112.1753080  46.0069964  58.7483788 110.8815692  46.0671005
  58.8598074 111.5841645  46.3959051  62.2806076 101.7555870  52.0562950
  62.8262036 102.4340956  52.1156920  62.2222953 101.6143331  51.1964532
  62.3521991 101.8347871  51.9375011  55.3980151 109.2444936  47.4431303
  55.4990514 108.4345290  47.7528430  54.8021897 109.1501882  46.8130981
  55.3252690 109.1109964  47.3957541  64.0571145 103.1840477  42.9296678
  63.9410671 103.9348163  43.3588816  64.8527032 102.9264430  43.1792765
  64.1575735 103.2575324  43.0300770  55.2380891 114.1622525  48.8446159
  55.8818346 114.6035689  49.2342317  55.5637146 113.3575951  48.7576417
  55.3812720 114.1087720  48.8891636  48.5945196 105.2665222  47.0683636
  48.3595380 104.4332875  46.9615905  48.7330836 105.5469888  46.2544837
  48.5800858 105.1848726  46.9325991  50.8935283  97.4350953  49.9667944
  50.2740315  96.8443600  49.7977959  50.7919147  98.0262388  49.3332267
  50.7872959  97.4355035  49.8472934  55.9401471 107.1734500  44.2166020
  56.2617312 107.7139707  43.6127329  56.5873567 106.6031271  44.3488310
  56.0827526 107.1693675  44.1473056  57.9903179  99.1750495  44.3000407
  58.6883343  99.3538622  44.7921870  58.3055511  98.6520834  43.6770797
  58.1398516  99.1244267  44.2802417  50.6204416 100.9803235  52.2111513
  50.4963113 101.5665680  52.8461332  51.2722701 100.4863430  52.5123788
  50.6978065 100.9942039  52.3497442  58.1791114 105.5620940  44.2880199
  58.6184750 104.9538040  44.7334971  58.0295777 105.1828313  43.5165664
  58.2212580 105.4159411  44.2399366  55.6462757 104.1564952  51.4899024
  56.2911760 103.6637395  51.1709973  55.8864534 104.2989738  52.3165102
  55.7773342 104.1042394  51.5648557  58.1848848 107.0019857  51.1405917
  58.4672091 106.2071263  50.9192673  58.9135009 107.4800445  51.1610978
  58.3338412 106.9554454  51.1108932  56.1630042  94.5442891  48.3821682
  55.8333372  94.9954035  47.7125381  55.4875044  94.4659055  48.9294688
  56.0140479  94.5994027  48.3644905  61.7800451 103.9148121  41.2410968
  61.6951746 104.7709088  41.3860537  62.2684834 103.6392445  41.9093127
  61.8389348 104.0005442  41.3613049  63.3706450  90.5328414  46.6271292
  63.0559891  91.2231893  47.0591715  62.8533392  90.4773197  45.9256793
  63.2470920  90.6263303  46.5868242  62.7118884 100.5332915  42.7408703
  62.1830355 100.7492549  43.4006009  63.2343904 101.2269054  42.6609672
  62.7107337 100.6676052  42.8264302  68.1666937 106.1079220  48.1141747
  67.3364640 106.3189863  48.2775164  68.1176189 105.2816274  47.8384031
  68.0373672 106.0168826  48.0979113  54.6018492 104.4296132  41.5416171
  54.0175707 104.9346163  41.9482035  54.1988587 104.2038519  40.8012763
  54.4557795 104.4704380  41.4921196  50.1562520 110.1450893  48.3439843
  49.6730098 110.8701383  48.3199426  50.9685839 110.4427023  48.4550000
  50.2053268 110.2953247  48.3567122  56.2276674 108.9383074  50.9489657
  55.7103616 108.5790489  50.3450965  56.9251066 108.4145248  50.9595723
  56.2542255 108.8080762  50.8619916  59.8840266 109.3877888  56.9105830
  59.9723612 109.2004028  57.7584040  60.3129979 108.7415317  56.5110677
  59.9602369 109.2640896  56.9777581  57.4510726 108.6709048  55.8923492
  56.8881561 108.2581658  56.4163153  58.2131750 108.5961954  56.3116635
  57.4805175 108.5986448  56.0316493  59.0595706 100.6761784  40.0185092
  59.2991710 100.8839768  39.2060435  59.3811547  99.8719293  40.1274036
  59.1432864 100.5875885  39.9145645  54.3685996  92.6055180  43.8644630
  55.1231964  92.9733497  43.6261680  54.1913531  92.9794734  44.6323809
  54.4540475  92.7153368  43.9429518  53.0106718 110.6607069  48.4960122
  53.7127297 110.1459058  48.5532879  52.9304201 110.9881220  49.3006997
  53.1030478 110.6321295  48.6232915  67.6620895  98.7549620  51.9092169
  66.8249316  98.8251807  52.1439763  67.6309126  98.7574115  51.0366471
  67.5339177  98.7659847  51.8151717  54.0585624 100.8982656  57.6240537
  54.2306128 100.7888551  58.4725819  54.5954982 101.5437061  57.3871730
  54.1630628 100.9774658  57.7145634  52.7243061  95.0125499  40.5622743
  52.5418634  95.2297380  39.7363735  53.5868674  95.1264512  40.6181357
  52.8247650  95.0615397  40.4477230  52.3357493 106.8513421  48.0045730
  53.1746392 107.0836354  48.0519492  52.3669262 105.9817732  47.9352766
  52.4639211 106.7570367  48.0010375  52.9610196 107.2714296  52.3059036
  53.5008421 107.1285427  52.9762408  52.2780142 107.6711047  52.6743062
  52.9402350 107.3093967  52.4593458  58.4042780  92.0151910  43.5971766
  59.1328941  91.8367864  43.1509923  58.4937673  92.8569989  43.8078944
  58.5249442  92.1135788  43.5625284  62.3851081 102.9505297  47.5004060
  63.1408596 103.3836811  47.5392969  62.4913405 102.3010067  48.0738696
  62.5121251 102.9182781  47.5902086  65.4231252 106.7778574  48.2506463
  64.9866484 106.7815317  49.0065435  65.0894167 107.4584073  47.8186041
  65.3093872 106.8791030  48.2987296  59.9960326 108.8186907  59.5749614
  60.7800742 108.9317755  59.9405356  59.7956920 107.9928044  59.7708299
  60.0826351 108.7133626  59.6584000  48.3647341 103.4914587  52.4593457
  48.0985756 102.6753704  52.6184448  48.3785905 103.5367743  51.5888973
  48.3272063 103.3771492  52.3546939  65.3428735  93.8192402  50.4935891
  65.9854643  93.8890507  51.0797806  65.5951756  93.1521625  49.9915433
  65.4750867  93.7318751  50.5063170  52.2705088  98.2899671  39.0745216
  51.5563265  98.0037851  39.4867648  52.7549057  98.6296297  39.7151603
  52.2364451  98.2981321  39.2300850  53.1145947  97.0292965  55.1060465
  52.4217744  96.5589945  55.3521197  53.7306275  96.8031270  55.6802172
  53.1030477  96.9260097  55.2269618  60.1530719 110.7297009  53.2216069
  59.3545965 110.4896509  53.4789938  60.6016730 110.7811402  53.9683117
  60.1005330 110.7019400  53.3700993  68.5575598 103.4959494  47.1426100
  69.2192032 102.9350162  47.0422009  67.9167010 103.0011525  47.4678792
  68.5604466 103.3395903  47.1758441  59.4452406 106.7929625  39.4507024
  59.8603554 106.4614649  38.7591519  58.6144336 106.5598528  39.3227160
  59.3840415 106.7100881  39.3297871  48.7740755 104.2773366  49.7405202
  48.5916328 104.2520252  48.8877494  49.5090424 104.7472304  49.7794110
  48.8554819 104.3434729  49.6203120  64.8440429 104.5124876  46.8838089
  65.0796018 104.6570075  46.0564940  64.9929993 105.2767284  47.2769603
  64.9006232 104.6463931  46.8201693  51.8386506 100.9958369  56.2487310
  52.5626479 100.9811400  56.7352205  51.9402643 101.7053725  55.7509279
  51.9604715 101.0983072  56.2466097  66.6730886 103.3526542  44.7207693
  67.0039103 103.8854182  44.1147788  67.2463974 103.4065430  45.3769644
  66.8064565 103.4396111  44.7285475  59.2131456 104.4757454  61.1136257
  58.4204437 104.7900966  61.2988877  59.3280383 104.6908922  60.2757042
  59.1126866 104.5541291  61.0174592  61.8862775 101.1991445  45.4031273
  61.9809629 101.9380739  45.8570899  61.2621618 100.7708921  45.8365838
  61.8071805 101.2452766  45.5339421  60.1415249 104.3777658  56.0521554
  60.7154110 103.7404902  56.2070118  60.0630052 104.3781740  55.1831212
  60.2148483 104.2842769  55.9467965  48.7411665 101.1566867  49.8904268
  49.3185168 101.0203318  50.5296514  48.0425727 100.7002651  50.1449853
  48.7232686 101.0689133  50.0226558  62.1385796 103.0440185  38.6368225
  62.0565959 103.1142372  39.5023212  62.7765517 103.6069929  38.4451966
  62.2205633 103.1379156  38.7358175  55.4978967 102.8100923  48.1042752
  55.2398211 101.9772658  48.0774051  55.5527450 103.0358536  47.2635252
  55.4678745 102.7198694  47.9762888  60.5780017  94.9129373  48.2046844
  59.8736344  94.4238559  48.3630763  60.6264992  94.9251848  47.3335289
  60.4810069  94.8419021  48.0986184  54.4713679 100.3638685  48.5907646
  53.8963271 100.5230854  49.2271607  54.0949356  99.7274094  48.1276097
  54.3316492 100.2936498  48.6162205  58.1386968  98.8362035  53.4500025
  57.7501401  98.4116252  52.7952216  57.4741666  99.0844184  53.9577051
  57.9833896  98.8100756  53.4287893  67.7810237  98.5937039  46.2247855
  67.5246802  97.7816981  46.0345738  68.6239551  98.6014606  45.9978042
  67.8676263  98.4749037  46.1632672  44.2170498 100.0078760  46.6052087
  44.3030750  99.6310628  47.3865617  44.8446296  99.6339206  46.1272045
  44.3227049  99.8964242  46.6497564  61.9613330  92.5336663  50.9624009
  62.3423841  91.8514834  51.3491883  61.1576614  92.2446265  50.7799673
  61.8989791  92.3903712  50.9928065  59.2425906 103.0660639  41.6476832
  60.0566545 103.3575532  41.5359603  59.1785047 102.4120501  41.0735125
  59.3528645 103.0125834  41.5465669  65.4635396 105.7486635  56.0606407
  65.2274034 104.9174700  55.9418468  66.1078625 105.6972242  56.6461252
  65.5230067 105.6184323  56.1292301  55.1133815 106.5382157  46.7749144
  55.7507761 106.2993904  47.3200937  55.5388886 106.7419315  46.0402304
  55.2709981 106.5333167  46.7466301  49.8046457 108.7770493  50.6583448
  49.8450602 109.0485344  49.8303227  50.3640981 109.3012401  51.0741235
  49.8929803 108.8946248  50.5975336  55.7536630 101.7584446  41.1124033
  56.1381782 101.5392153  41.8640578  55.5048250 102.5847392  41.2425110
  55.7738702 101.8482593  41.2425110  55.9205170  95.0390862  60.8286617
  55.6058611  95.8090424  60.5656180  55.5995102  94.4761118  60.2438844
  55.8264089  95.0701130  60.7027967  66.4871817 105.5331084  52.1234702
  66.1817634 106.2659141  52.4848017  65.7678033 105.1269014  51.8427488
  66.3359159 105.5812817  52.1347839  57.4955286 107.0154579  48.4542930
  57.5694295 106.8529751  49.3084780  58.3124793 107.2044769  48.2103412
  57.6271645 107.0191322  48.5440956  72.1873609 102.1724085  51.4503046
  72.1198109 102.1920044  50.5805633  72.1729272 103.0154412  51.6758717
  72.1752366 102.2997819  51.3555523  51.2561043 107.3612442  45.4837374
  50.4299161 107.6074179  45.3571652  51.3173034 107.2824523  46.3499432
  51.1435210 107.3857391  45.5926318  53.4737067  93.4281383  46.4432814
  52.6059492  93.5003983  46.5090423  53.7612271  94.2303462  46.6320789
  53.3876815  93.5575530  46.4807580  62.5969956  93.5759242  54.7744135
  63.3423548  93.3869053  54.3607561  62.1807260  94.1017480  54.2157992
  62.6454930  93.6261388  54.6308709  56.0359872 109.9789322  43.1856403
  56.3258171 109.5878304  42.4615630  56.7663353 110.1606027  43.6261679
  56.1866756 109.9483136  43.1439210  69.9732227 100.9468471  49.7249640
  70.5240148 100.3136540  49.9646733  69.9576342 101.4783864  50.4165145
  70.0517423 100.9317419  49.8628499  56.6254617 104.7807068  54.2709534
  56.1266311 105.4922836  54.3494422  57.4354842 105.1007735  54.2327696
  56.6710724 104.9333917  54.2766102  53.9765788 111.9556705  46.2516553
  53.7566083 111.6654059  47.0443220  53.7560310 111.2971660  45.7234465
  53.9113382 111.8156413  46.2905462  52.8882735 104.0430021  48.5172255
  52.5995984 103.4167492  49.0517982  53.7566083 103.9850309  48.5836935
  52.9742987 103.9417565  48.6063209  63.6760633  99.1864805  48.8354237
  63.3325399  98.4655140  49.1861486  63.7753675  98.9778656  47.9932595
  63.6402676  99.0489008  48.7625917  56.1433743 113.3286095  45.0347246
  56.7957801 112.7962537  45.2638272  55.4459352 112.9754747  45.4215120
  56.1364461 113.1975618  45.1259413  53.0915008 105.6825272  44.4414620
  53.8460976 106.0638311  44.6550082  52.4985621 106.1336416  44.8961316
  53.1151722 105.8054100  44.5397498  64.1373662 105.6490509  44.3778225
  64.7031694 106.3083719  44.2936768  63.4901565 105.9940207  44.8494627
  64.1252418 105.7972450  44.4350981  55.5521675  97.6388113  59.5671832
  54.7421451  97.9445892  59.4561674  56.0296362  98.3593695  59.6824416
  55.5025154  97.7902714  59.5678903  54.4113235 106.8533834  49.8154735
  53.8893988 106.9934125  50.5006600  54.7987255 106.0944498  50.0056853
  54.3916936 106.7619357  49.9455812  51.4004419  96.9039642  43.8849690
  51.1129215  96.5340913  43.1481637  52.0874887  97.3734498  43.6233395
  51.4593316  96.9186612  43.7364766  60.6080240 108.5929293  43.8015304
  60.3666916 107.8597154  43.3942369  60.7881573 109.1416150  43.1481637
  60.5987864 108.5651684  43.6445527  55.8379561 103.8837853  45.2136226
  55.6422343 104.4912587  44.6196529  56.0613906 103.1905797  44.7327900
  55.8414202 103.8715378  45.0552307  54.2358091 100.7692591  45.3317095
  54.9580742 100.9333749  44.8720901  53.7566083 101.4902255  45.2256434
  54.2721821 100.8990820  45.2482709  62.1951598  97.1056389  50.7113780
  61.3562699  97.1317668  50.4752043  62.2655965  97.7527125  51.2919126
  62.0819992  97.2052515  50.7622896  51.8865707 103.1750663  54.4371234
  52.3986804 103.4534916  53.7879994  51.6002050 103.9139957  54.8034048
  51.9200570 103.3253017  54.3961113  60.6420876  94.0041766  45.4441396
  61.3447229  93.8049515  44.9661354  60.3765065  93.2317709  45.7510239
  60.7067509  93.8604732  45.4186837  66.0709122 102.3124376  47.9975021
  65.9843096 102.4679802  48.8509800  65.6159602 102.9562452  47.6234426
  65.9912379 102.4300131  48.0682128  48.9732614  97.6820855  44.7334971
  49.0748750  98.4847016  45.0615946  49.7688500  97.4808191  44.4358052
  49.1060519  97.7706754  44.7370326  55.4049433  95.2677052  54.4972276
  55.2132630  95.2832186  55.3471700  56.2548029  95.4640726  54.4738931
  55.5025155  95.2991403  54.6195571  49.7896346  97.7968033  52.4756093
  49.6481837  96.9451974  52.6000601  50.0736909  97.8396694  51.6518299
  49.8104192  97.6767783  52.3723717  59.9434938  99.6335123  46.6200581
  59.6969652  99.5530874  47.4537370  60.2720061  98.8488591  46.4263108
  59.9556182  99.5061389  46.7148104  63.8382987 106.3418483  50.4087362
  63.6997346 107.0399528  50.9136104  63.0582985 106.1867139  50.0523544
  63.7026214 106.4218649  50.4313636  62.1761072 102.6414858  56.6609744
  62.1709110 101.7694674  56.6652170  62.8822066 102.8403027  56.1879199
  62.2806076 102.5418732  56.5916779  55.9031965 102.3691842  56.0323564
  56.0475341 102.9493050  55.3966674  56.2507614 102.7468139  56.7373419
  55.9759427 102.5112546  56.0422559  58.0751883 101.5682010  53.8148696
  57.3275197 101.7613025  53.4096974  58.2293408 100.7427230  53.5772817
  57.9874310 101.4747122  53.7194101  54.9759720 110.5594614  52.8984591
  55.1249284 109.9997529  52.2457995  55.7559722 110.6386615  53.2817110
  55.1133814 110.4880179  52.8581540  65.3336360 105.6996736  41.1703861
  64.9543168 104.9133874  41.1633151  64.6702605 106.2483593  41.0275506
  65.1794834 105.6641560  41.1484658  57.5013021 110.7309256  54.1769082
  57.4256692 110.0618067  54.7319870  57.4302880 111.4327045  54.6909748
  57.4793628 110.7354164  54.3345930  58.3153660  95.4632561  54.7044099
  58.7726274  96.1956535  54.8316891  58.3909988  95.0399026  55.4631355
  58.3944630  95.5089799  54.8345176  50.5586651  95.7098381  55.7933543
  50.0228840  95.0978739  56.1094310  50.6204416  96.2846517  56.4467210
  50.4882284  95.7045308  55.9368970  62.7880986  88.6422436  48.5737942
  62.9064554  89.0998899  47.8405245  62.6143161  87.8367697  48.2874160
  62.7800157  88.5916208  48.4238876  58.1583268 109.2510255  45.0092688
  58.9233159 108.9819899  44.6875352  58.0561358 108.7660266  45.7262750
  58.2564763 109.1399820  45.0672515  56.1936038  97.4534665  51.5485923
  55.4032112  97.2726125  51.8703259  56.5896660  96.6761617  51.5316218
  56.1352914  97.3122126  51.5938472  60.6801928 106.2822439  36.9892637
  61.4474914 106.3422564  36.5798489  60.2333237 105.7102881  36.5048955
  60.7275356 106.2059015  36.8570347  61.5779724 105.0877095  49.2745369
  60.9024726 104.8562327  49.7758756  61.5872100 104.4798278  48.6487474
  61.4798228 104.9636020  49.2561521  58.7073868  99.9294924  56.0309422
  58.6433009 100.7904880  55.9029559  58.8471056  99.6126917  55.2304973
  58.7189338 100.0095091  55.8937635  63.5796458 107.9442227  41.5055547
  63.6616296 108.7509214  41.1816998  64.0646201 107.9638187  42.2296321
  63.6633616 108.0662890  41.5642446  57.3892962 102.6227063  50.1725625
  56.9655211 102.8231562  49.4364643  57.2137817 101.7755911  50.2849925
  57.3003842 102.5275845  50.0799315  56.8904655 114.1377576  52.6347082
  57.3800586 113.4388365  52.4522747  56.3188888 113.8401446  53.2223140
  56.8789185 113.9903800  52.6948123  52.6775407 103.1179115  45.6053598
  52.8340026 103.0525918  46.4609590  53.0176000 103.8927667  45.3932277
  52.7508642 103.2228313  45.7008192  59.2154551 102.4936998  44.4746961
  59.7570097 101.9907379  44.9385581  59.5301110 102.4402193  43.6636446
  59.3418948 102.4116419  44.4230773  63.0871659 106.7039646  61.5873873
  63.9006524 106.4324794  61.7479006  62.9266625 106.4047186  60.7834069
  63.1841607 106.6194572  61.4919279  57.3841001 107.8854350  41.7586989
  57.4533821 107.0268888  41.8979989  58.1629456 108.1026231  41.4306013
  57.5093851 107.7907214  41.7304146  60.3643821  97.3873303  54.5269261
  60.5785790  96.7484217  53.9732615  59.7477720  97.8319127  54.0977123
  60.3049150  97.3583446  54.3819692  61.7748489 110.3092051  45.9723482
  61.3828280 110.0058766  45.2546348  61.9301561 111.1461141  45.7828436
  61.7402078 110.3875888  45.8379979  49.2509668 100.3014065  45.9214365
  49.6308633 100.7198610  45.2574632  48.6765033 100.8827521  46.2283208
  49.2220993 100.4491924  45.8691106  62.5282909  98.9962368  55.4652568
  61.7159590  98.6888258  55.5465741  62.9872843  98.5161368  56.0295281
  62.4763293  98.8798860  55.5607163  61.9388163 106.8742040  45.9129513
  61.5802818 107.0456683  46.6893545  61.4526874 107.3355246  45.3557511
  61.8146860 106.9681011  45.9454782  59.7558549  90.4973238  49.5156604
  58.8852107  90.4711960  49.4689914  60.0098891  90.3250431  48.6982450
  59.6652109  90.4683382  49.3876741  56.7276529 102.5541205  38.4529747
  57.0169054 103.3306088  38.7273321  56.8148328 102.0429937  39.1544246
  56.7830785 102.5933124  38.5972245  59.6236416 100.4022439  60.2481271
  60.0936047 101.0264556  60.6349145  59.6698296  99.7339415  60.8074485
  59.7004292 100.3957120  60.3881342  56.7807690  92.5079467  50.9730074
  56.2646178  91.8159658  51.0981653  56.2201619  93.1750244  50.9192673
  56.6214203  92.5042725  50.9836140  58.8499923  93.0472427  52.8022927
  58.4631676  93.0721458  53.5836457  58.3632861  92.4814106  52.3497444
  58.7212432  92.9668178  52.8510831  63.0992903 107.7645936  56.8596714
  63.7372623 107.2706132  56.5259170  62.4566994 107.6923336  56.2748940
  63.0987129 107.6804944  56.7239069  64.8249903  99.6135082  51.4262629
  64.3977511  99.5261430  50.6710729  64.1875956  99.7212857  52.0117473
  64.6679510  99.6167742  51.4008071  58.5157065  89.9339412  55.0933187
  59.1450183  90.4699712  54.8154257  58.6842928  89.8416771  55.9446753
  58.6334860  90.0000775  55.1781715  58.3170980  94.7210607  57.3659599
  59.1444409  94.4495756  57.4218213  58.3378826  95.5171449  57.7223417
  58.4423830  94.7990361  57.4274781  63.1547159 108.4565744  53.5002070
  63.9439538 108.1054809  53.6204152  63.3290757 109.2702133  53.2378704
  63.2967441 108.5251601  53.4789938  52.8940470 101.8674470  50.5529859
  52.0528476 101.7678344  50.7608753  53.1030478 102.6369950  50.9044180
  52.8005162 101.9666513  50.6357174  50.3716037  99.4894007  48.3814610
  49.9772734  99.5637019  47.6064719  49.8156154  99.8751953  48.9322972
  50.2318849  99.5575781  48.3482270  62.0080984  92.4675301  48.0618489
  62.2130577  92.3997609  48.9075486  61.6807408  93.2734122  47.9939666
  61.9896231  92.5761241  48.1778144  56.7057135  99.7955869  49.8027457
  56.4020272  99.2411857  50.4037864  56.0036555  99.9748079  49.3155491
  56.5573344  99.7400651  49.8197162  55.7623232  97.1056389  44.3672159
  56.0382966  96.3875301  43.9549726  56.3621901  97.7041309  44.1593265
  55.8916496  97.0876760  44.2752920  54.7675486 107.0105590  54.5099554
  54.6595841 107.0207652  55.3761613  54.9771267 107.8360370  54.3204508
  54.7825597 107.1346665  54.6103646  65.2614671  93.0207065  47.5421254
  64.6488985  93.5077467  47.9274986  65.3578846  92.3450556  48.0858905
  65.1852569  92.9925374  47.6800112  59.2633752  94.7769906  42.6418754
  59.7177499  94.9480467  43.3666598  59.7373798  94.1638017  42.2416529
  59.4002072  94.7120792  42.6892515  52.7849278 104.2618232  51.9721492
  52.1937211 104.9027730  51.9424507  53.5470301 104.6855849  51.9452792
  52.8097538 104.4194071  51.9636639  53.1809900  95.4220230  52.6389510
  53.6411382  95.4959159  53.3764633  53.2266007  96.2201484  52.2889331
  53.2560456  95.5514377  52.6962266  54.8293250  96.0886925  57.2061537
  54.4378815  95.4420272  57.6417315  54.9979113  96.6798360  57.8255792
  54.7964161  96.0801193  57.3624243  68.9039699 104.0924002  52.9698770
  68.9622823 104.5410651  53.7158747  68.2706167 104.5022815  52.5328850
  68.8190994 104.2197737  53.0151319  62.5438794 109.7127544  49.4053517
  62.3458483 110.2018358  48.7109728  61.9226505 109.9168785  49.9837650
  62.4226358 109.8144082  49.3876740  56.6046772 101.4812441  43.7463761
  57.3488817 101.8686717  43.9846711  56.7507468 100.6369866  43.9104249
  56.7357357 101.4142913  43.8057731  58.5226348  93.2762700  48.7795622
  57.6762393  93.4485507  48.6536972  58.5197480  92.4712043  49.1161451
  58.3973498  93.1823728  48.8106749  59.5924648  97.0537914  49.6457680
  59.1184602  96.5279676  50.1562991  59.9642784  96.5067387  49.0772542
  59.5774537  96.8953911  49.6372827  49.9697678  99.0509421  55.0141226
  50.8323291  98.9505130  54.9278556  49.6389461  98.4704130  54.4526798
  50.0482875  98.9501047  54.9186632  65.8561379 102.1140290  51.0564461
  65.6159602 101.2746705  51.0606887  66.3353386 102.1940456  51.7805234
  65.8913562 102.0021689  51.1639263  61.5208148  97.9474469  42.7083434
  60.9931166  98.0303213  42.0189143  61.9803856  98.6892340  42.7048079
  61.5109998  98.0695131  42.6058129  67.8566566  98.8941747  49.0093720
  67.6176336  98.8537581  48.1714504  68.0200467  99.7412899  49.1359441
  67.8456869  99.0133832  48.9047202  64.4612596 103.2791696  54.9398765
  65.1846795 102.8264223  54.7609785  64.1962558 103.5596362  54.1571093
  64.5293869 103.2542665  54.7977480  53.3299464  97.8751870  51.6751644
  52.7052534  97.8870262  51.0677597  52.9945059  98.3512045  52.3242884
  53.1884956  97.9470387  51.6808213  53.5141213  96.2176988  37.7324329
  53.1654017  96.8696713  38.1955878  53.0337659  96.2034101  37.0048200
  53.3911457  96.3120042  37.6935420  50.0425140 105.9352330  53.1155408
  49.5125064 105.2444769  53.1650383  50.3150233 105.9262515  52.2868117
  50.0049862 105.8319462  53.0002824  61.0745230 106.5178032  41.8393091
  61.7979429 106.9836145  41.6957664  60.6345821 106.5851642  41.0890688
  61.1160922 106.5961869  41.7077872  60.2431385 103.3775574  53.0893780
  59.6288378 102.8333625  53.3842415  60.7598670 102.8639811  52.6099596
  60.2287048 103.2211983  53.0618008  59.4827682 104.4479844  50.8238079
  59.0555291 103.8229563  50.3903514  59.4752627 104.1654766  51.6497086
  59.4186824 104.3132625  50.8817906  52.5990210  99.4845017  53.8926513
  52.7583696  98.7288342  54.2978235  52.4183103 100.0335957  54.5467250
  52.5955569  99.4538831  54.0489219  60.5410513  91.6506253  54.4477302
  60.0451074  91.8469927  53.7568869  61.2979575  92.0498921  54.2766104
  60.5797337  91.7383987  54.3197439  57.8113392  95.3248599  51.0380613
  57.8355879  94.7908711  50.3493393  58.0624866  94.8165908  51.7006203
  57.8523311  95.1709503  51.0345257  45.3220982 102.6080094  50.4723757
  45.2164431 102.5626938  49.6075841  44.5721202 102.9533874  50.7538042
  45.1956585 102.6521002  50.3861086  54.0914714  94.0519417  50.4186357
  54.1313086  94.5528624  51.1321064  53.2664379  94.1429811  50.1492280
  53.9754240  94.1401233  50.4836895  56.2744327 103.6180157  58.5206651
  55.4239958 103.7551871  58.6564296  56.4372455 102.8843935  58.9654353
  56.1728191 103.5294258  58.6062251  55.5129078 100.5679927  52.7160256
  54.6821007 100.7353745  52.5095504  55.4580595 100.1915878  53.5009141
  55.3818493 100.5369658  52.8008784  53.3212861  94.0588820  58.3516667
  53.9465564  93.5150953  58.6246099  52.8663341  93.5783737  57.7824457
  53.3461122  93.9078301  58.3078260  53.8865122  98.8435519  43.2450374
  54.0268083  99.3407983  43.9479015  54.3847654  98.1421813  43.3864587
  53.9806203  98.8137497  43.3701953  53.9165344  99.7102630  40.5742950
  54.5510423 100.3063055  40.5092412  53.9990955  99.4106087  41.3888821
  54.0221895  99.7543538  40.6846037  66.8947910 102.2418107  53.4429315
  67.4865750 102.8815358  53.4747513  67.3306904 101.5441144  53.7321381
  67.0466341 102.2336457  53.4910147  55.4944327  95.6416605  40.5488392
  55.8160168  95.1619687  39.8947655  55.7571271  96.4516251  40.3579204
  55.5810352  95.6906503  40.4243885  58.7241300 106.6635479  54.0687209
  58.2166391 107.2171326  54.5127839  58.4267946 106.7243769  53.2505983
  58.6046185 106.7541791  54.0135665  60.8903482  95.0288799  52.9111872
  61.3158553  94.5761325  52.2995398  60.2760475  94.4748870  53.1876659
  60.8632127  94.8802775  52.8616897  50.4218332 101.9070470  43.8432496
  50.9310561 102.5034978  44.2243802  50.8952604 101.6396444  43.1608916
  50.5661708 101.9556286  43.7987019  61.3349080 110.5798737  41.9991152
  60.6178390 110.4059599  41.5338389  61.9855818 110.3451309  41.4666638
  61.3250930 110.5194530  41.8520370  59.3297705  91.5003899  46.3202449
  58.6866023  91.3501545  46.8887587  58.9897112  91.2546244  45.5551553
  59.1842782  91.4416021  46.2905464  63.9197051  99.4563326  45.7432457
  63.2488241  99.9993028  45.6145523  64.6136801  99.9258181  45.5014152
  63.9225919  99.6061597  45.6887985  57.9683785 111.5960038  50.9744215
  57.7449439 110.8378867  51.3428242  57.4793628 111.6258059  50.2524655
  57.8627234 111.4882262  50.9220956  64.0825179  95.9119209  48.6522830
  64.4352789  95.4848932  49.3268629  63.2239980  95.8270053  48.7823907
  64.0074623  95.8363950  48.7717841  52.7808864  98.5426729  46.7105677
  52.0620853  98.9590861  46.9778540  53.1521226  99.1080968  46.1597315
  52.7300795  98.6876010  46.6688484  62.0808444  99.1754578  52.6007673
  62.0606372  98.9937873  53.4542451  62.1287645 100.0466596  52.5767256
  62.0843085  99.2771116  52.7230967  60.0254774 105.7641770  58.5256149
  59.9850629 105.1191447  57.9401305  60.8378093 105.7078387  58.8381561
  60.1397928 105.6600737  58.4853098  56.6162242 111.8160496  48.4281300
  56.2022640 111.1534626  48.0385142  57.3009616 111.9638354  47.9076994
  56.6560614 111.7401154  48.2937797  59.9827536 110.9750581  49.1804917
  59.5843819 111.0852851  48.4125737  59.3678756 111.1832647  49.7631476
  59.8326425 111.0224149  49.1536216  58.5555438  97.5824729  42.0479056
  57.9620277  97.9041725  41.4963623  58.5930716  96.7365824  41.8400162
  58.4729827  97.5049057  41.9361828  65.5149239  91.0337621  49.5807143
  65.0080103  90.3266761  49.5128320  66.3116672  90.7030810  49.7108219
  65.5576478  90.8810772  49.5906138  61.4313255  97.5404233  45.4780807
  61.2026948  97.5636935  44.6359165  61.6911331  96.7161700  45.5975817
  61.4359443  97.4220313  45.3706004  55.7132483  99.3938706  55.0805907
  55.2011386  98.7859889  55.4390938  55.5411979 100.1095299  55.5479883
  55.6122120  99.4102006  55.2022130  50.5598198  97.8376282  57.7308269
  50.3900788  98.4977656  57.1856475  50.1164148  98.0482843  58.4520758
  50.4697531  97.9662264  57.7569898  54.4858017  96.0780780  46.7735002
  54.9615383  96.4397859  46.1385183  53.9846617  96.7337247  47.0535145
  54.4823376  96.2274968  46.7211743  67.7169379 105.5502548  42.5648007
  68.1002984 106.2993904  42.7946104  66.9213492 105.7968367  42.3059996
  67.6563161 105.6972242  42.5605581  59.5901553  97.3162951  57.5208162
  60.1472984  97.0876760  56.8886628  59.2662618  98.0768617  57.2443375
  59.6247964  97.3946788  57.3864659  47.4600262 100.7423147  52.9896758
  46.9126982 100.0723793  53.1077627  48.2492640 100.3752995  53.0540226
  47.4952446 100.5888134  53.0165459  57.3084671 100.4030604  58.4860169
  58.0595998 100.7182281  58.7999724  57.5007247 100.2009775  57.6594091
  57.4476085 100.4197986  58.4103565  56.5284670  98.2221979  40.1408386
  56.9083635  98.2401609  39.3559501  55.7877266  98.6675968  40.0199234
  56.4753508  98.2903754  40.0071954  64.1569961  96.5304171  45.7283965
  64.1564187  96.3752827  46.5868241  63.9526141  97.3767158  45.6725350
  64.1269739  96.6324791  45.8471904  46.2187232  99.9543955  50.1442781
  46.0408993  99.5020564  50.8697697  45.9306254 100.7570116  50.3281259
  46.1500185 100.0066513  50.2786284  61.8810813 101.2101672  49.3820172
  62.3764478 100.4924667  49.3424192  61.0710589 100.9072470  49.2674659
  61.8354706 101.0599319  49.3593898  57.3269424 105.0599486  41.5317176
  56.5180747 104.7366159  41.4850486  57.8344333 104.3532708  41.4645425
  57.2819091 104.9080802  41.5147471  47.9559702 102.4871679  47.2564541
  47.0905221 102.4757369  47.1447312  48.0558517 102.3001902  48.1035680
  47.8433869 102.4577740  47.3653485  63.9462632 103.9605360  52.0697301
  64.3717703 103.4379782  51.5167726  63.5819552 104.5586197  51.5485923
  63.9549234 103.9715587  51.9106310  53.5816711 112.2569577  50.8294646
  53.8963270 113.0705966  50.8372428  53.9910125 111.8719796  51.4976805
  53.6884809 112.3198280  50.9298738  60.5341231 107.6739624  48.3998458
  61.0052409 108.3879887  48.5688443  60.8701410 107.0738374  48.9358328
  60.6536346 107.6911088  48.5030834  62.6218216 109.2840938  60.5790530
  62.7315181 108.4949498  60.9347277  62.9509112 109.1946874  59.7764868
  62.6870622 109.1546790  60.5132921  57.4510726  92.4467095  55.3556553
  57.5838632  91.6498088  55.6837528  57.8355879  92.9733498  55.9354828
  57.5267055  92.4067011  55.4900056  61.1715177 107.4657558  55.1626151
  60.6236123 106.8415442  54.8946216  61.6328206 107.6551830  54.4470230
  61.1582387 107.4016608  55.0176582  60.5243081  89.3697421  51.9537646
  59.7189045  89.2595150  52.2705484  60.3949817  89.4709877  51.0967512
  60.3863214  89.3681091  51.8745686  63.9809042  95.5342913  52.5477343
  63.3972031  96.0352119  52.1354910  64.3013336  95.0272469  51.9141666
  63.9422217  95.5334748  52.3935850  56.5203841  94.4483508  42.8236018
  57.3419535  94.6181820  42.5817713  56.0573492  94.6030769  42.1002315
  56.5735003  94.4965241  42.6807662  55.1099173  92.4426270  53.6034447
  55.6543586  92.1017397  54.1938788  55.1636109  93.3011731  53.7455731
  55.1988292  92.5181529  53.7116320  50.9229732 106.2042686  50.4773254
  51.5274589 106.1638520  49.8487075  50.7157044 107.0513838  50.5077310
  50.9818629 106.3230688  50.3889371  60.7373504 108.4708631  51.6935492
  61.5571878 108.3271597  51.9551787  60.4567581 109.0954830  52.2351930
  60.8170247 108.5418983  51.8123431  46.1581014 105.1877303  50.3472178
  46.0605292 104.3773575  50.6562234  46.9409884 105.1669097  49.9618446
  46.2597150 105.0644394  50.3359041  77.2087154 116.1273483  44.6578368
  77.1781158 116.9818119  44.8296638  77.8068503 115.8268775  45.2164512
  77.2924312 116.2089979  44.7653170  70.4086839 115.2149134  49.4131299
  69.5524734 115.3757632  49.4640415  70.4554493 114.3441198  49.4336360
  70.2885950 115.1099936  49.4237365  64.7927979 124.7511852  45.1768530
  64.0410878 124.3727390  44.9484575  65.2413990 124.7830285  44.4287340
  64.7477646 124.6997459  45.0326032  73.7180555 121.4835659  59.0191755
  74.4247323 120.9887690  59.1478689  73.9068491 121.9244741  58.2894413
  73.8508461 121.4754010  58.9300800  70.2452939 125.1737221  40.6054077
  69.9104307 125.8514143  40.1698299  70.7579809 124.7842532  40.0170949
  70.2718520 125.2161799  40.4540869  69.7857230 127.1251490  46.5465189
  70.1696609 127.6938388  46.0069964  69.7216371 126.4001000  46.0671005
  69.8330657 127.1026953  46.3959051  73.2538660 117.2741178  52.0562950
  73.7994620 117.9526264  52.1156920  73.1955536 117.1328638  51.1964532
  73.3254574 117.3533179  51.9375011  66.3712735 124.7630244  47.4431303
  66.4723098 123.9530598  47.7528430  65.7754480 124.6687190  46.8130981
  66.2985274 124.6295272  47.3957541  75.0303729 118.7025785  42.9296678
  74.9143255 119.4533471  43.3588816  75.8259615 118.4449738  43.1792765
  75.1308318 118.7760632  43.0300770  66.2113474 129.6807833  48.8446159
  66.8550930 130.1220997  49.2342317  66.5369730 128.8761259  48.7576417
  66.3545303 129.6273028  48.8891636  59.5677779 120.7850530  47.0683636
  59.3327964 119.9518183  46.9615905  59.7063420 121.0655196  46.2544837
  59.5533442 120.7034034  46.9325991  61.8667867 112.9536261  49.9667944
  61.2472898 112.3628908  49.7977959  61.7651730 113.5447696  49.3332267
  61.7605542 112.9540343  49.8472934  66.9134054 122.6919808  44.2166020
  67.2349895 123.2325015  43.6127329  67.5606151 122.1216579  44.3488310
  67.0560109 122.6878983  44.1473056  68.9635762 114.6935803  44.3000407
  69.6615927 114.8723930  44.7921870  69.2788095 114.1706142  43.6770797
  69.1131099 114.6429575  44.2802417  61.5937000 116.4988543  52.2111513
  61.4695696 117.0850988  52.8461332  62.2455284 116.0048738  52.5123788
  61.6710649 116.5127347  52.3497442  69.1523698 121.0806248  44.2880199
  69.5917333 120.4723348  44.7334971  69.0028360 120.7013621  43.5165664
  69.1945163 120.9344719  44.2399366  66.6195341 119.6750260  51.4899024
  67.2644343 119.1822703  51.1709973  66.8597118 119.8175046  52.3165102
  66.7505926 119.6227702  51.5648557  69.1581432 122.5205165  51.1405917
  69.4404675 121.7256571  50.9192673  69.8867592 122.9985753  51.1610978
  69.3070996 122.4739762  51.1108932  67.1362626 110.0628199  48.3821682
  66.8065956 110.5139343  47.7125381  66.4607628 109.9844363  48.9294688
  66.9873062 110.1179335  48.3644905  72.7533034 119.4333429  41.2410968
  72.6684329 120.2894396  41.3860537  73.2417417 119.1577753  41.9093127
  72.8121931 119.5190750  41.3613049  74.3439034 106.0513722  46.6271292
  74.0292475 106.7417201  47.0591715  73.8265975 105.9958504  45.9256793
  74.2203504 106.1448611  46.5868242  73.6851467 116.0518223  42.7408703
  73.1562939 116.2677857  43.4006009  74.2076487 116.7454362  42.6609672
  73.6839920 116.1861360  42.8264302  79.1399520 121.6264528  48.1141747
  78.3097223 121.8375171  48.2775164  79.0908773 120.8001582  47.8384031
  79.0106256 121.5354134  48.0979113  65.5751075 119.9481440  41.5416171
  64.9908290 120.4531471  41.9482035  65.1721170 119.7223827  40.8012763
  65.4290379 119.9889688  41.4921196  61.1295104 125.6636201  48.3439843
  60.6462682 126.3886691  48.3199426  61.9418422 125.9612331  48.4550000
  61.1785852 125.8138555  48.3567122  67.2009258 124.4568382  50.9489657
  66.6836200 124.0975797  50.3450965  67.8983649 123.9330556  50.9595723
  67.2274839 124.3266070  50.8619916  70.8572850 124.9063196  56.9105830
  70.9456196 124.7189336  57.7584040  71.2862562 124.2600625  56.5110677
  70.9334952 124.7826204  56.9777581  68.4243310 124.1894356  55.8923492
  67.8614144 123.7766966  56.4163153  69.1864333 124.1147261  56.3116635
  68.4537758 124.1171756  56.0316493  70.0328290 116.1947092  40.0185092
  70.2724293 116.4025076  39.2060435  70.3544131 115.3904601  40.1274036
  70.1165448 116.1061193  39.9145645  65.3418580 108.1240488  43.8644630
  66.0964548 108.4918805  43.6261680  65.1646114 108.4980042  44.6323809
  65.4273058 108.2338676  43.9429518  63.9839301 126.1792377  48.4960122
  64.6859880 125.6644366  48.5532879  63.9036784 126.5066528  49.3006997
  64.0763062 126.1506603  48.6232915  78.6353479 114.2734928  51.9092169
  77.7981900 114.3437115  52.1439763  78.6041710 114.2759423  51.0366471
  78.5071761 114.2845155  51.8151717  65.0318208 116.4167964  57.6240537
  65.2038711 116.3073859  58.4725819  65.5687565 117.0622369  57.3871730
  65.1363212 116.4959966  57.7145634  63.6975645 110.5310807  40.5622743
  63.5151218 110.7482688  39.7363735  64.5601258 110.6449819  40.6181357
  63.7980234 110.5800705  40.4477230  63.3090077 122.3698729  48.0045730
  64.1478976 122.6021662  48.0519492  63.3401846 121.5003040  47.9352766
  63.4371794 122.2755675  48.0010375  63.9342780 122.7899604  52.3059036
  64.4741004 122.6470735  52.9762408  63.2512726 123.1896355  52.6743062
  63.9134933 122.8279275  52.4593458  69.3775364 107.5337217  43.5971766
  70.1061524 107.3553172  43.1509923  69.4670257 108.3755297  43.8078944
  69.4982026 107.6321096  43.5625284  73.3583664 118.4690605  47.5004060
  74.1141179 118.9022119  47.5392969  73.4645989 117.8195375  48.0738696
  73.4853835 118.4368089  47.5902086  76.3963836 122.2963882  48.2506463
  75.9599067 122.3000624  49.0065435  76.0626751 122.9769381  47.8186041
  76.2826455 122.3976338  48.2987296  70.9692909 124.3372215  59.5749614
  71.7533326 124.4503063  59.9405356  70.7689504 123.5113352  59.7708299
  71.0558935 124.2318934  59.6584000  59.3379925 119.0099895  52.4593457
  59.0718340 118.1939012  52.6184448  59.3518489 119.0553051  51.5888973
  59.3004647 118.8956800  52.3546939  76.3161318 109.3377710  50.4935891
  76.9587227 109.4075814  51.0797806  76.5684339 108.6706933  49.9915433
  76.4483451 109.2504059  50.5063170  63.2437672 113.8084979  39.0745216
  62.5295849 113.5223159  39.4867648  63.7281640 114.1481605  39.7151603
  63.2097035 113.8166629  39.2300850  64.0878531 112.5478273  55.1060465
  63.3950328 112.0775253  55.3521197  64.7038858 112.3216578  55.6802172
  64.0763061 112.4445405  55.2269618  71.1263302 126.2482317  53.2216069
  70.3278548 126.0081817  53.4789938  71.5749314 126.2996710  53.9683117
  71.0737914 126.2204708  53.3700993  79.5308182 119.0144802  47.1426100
  80.1924616 118.4535470  47.0422009  78.8899594 118.5196833  47.4678792
  79.5337049 118.8581211  47.1758441  70.4184989 122.3114933  39.4507024
  70.8336138 121.9799957  38.7591519  69.5876919 122.0783836  39.3227160
  70.3572998 122.2286189  39.3297871  59.7473338 119.7958674  49.7405202
  59.5648911 119.7705560  48.8877494  60.4823007 120.2657612  49.7794110
  59.8287402 119.8620037  49.6203120  75.8173012 120.0310184  46.8838089
  76.0528602 120.1755383  46.0564940  75.9662576 120.7952592  47.2769603
  75.8738816 120.1649239  46.8201693  62.8119090 116.5143677  56.2487310
  63.5359062 116.4996708  56.7352205  62.9135226 117.2239032  55.7509279
  62.9337299 116.6168380  56.2466097  77.6463469 118.8711850  44.7207693
  77.9771686 119.4039490  44.1147788  78.2196557 118.9250738  45.3769644
  77.7797148 118.9581419  44.7285475  70.1864039 119.9942762  61.1136257
  69.3937020 120.3086274  61.2988877  70.3012966 120.2094230  60.2757042
  70.0859450 120.0726599  61.0174592  72.8595358 116.7176753  45.4031273
  72.9542213 117.4566047  45.8570899  72.2354202 116.2894228  45.8365838
  72.7804388 116.7638074  45.5339421  71.1147832 119.8962966  56.0521554
  71.6886694 119.2590210  56.2070118  71.0362636 119.8967048  55.1831212
  71.1881067 119.8028077  55.9467965  59.7144249 116.6752175  49.8904268
  60.2917751 116.5388626  50.5296514  59.0158310 116.2187959  50.1449853
  59.6965270 116.5874441  50.0226558  73.1118380 118.5625493  38.6368225
  73.0298542 118.6327680  39.5023212  73.7498100 119.1255237  38.4451966
  73.1938217 118.6564464  38.7358175  66.4711551 118.3286231  48.1042752
  66.2130795 117.4957966  48.0774051  66.5260034 118.5543844  47.2635252
  66.4411329 118.2384002  47.9762888  71.5512601 110.4314681  48.2046844
  70.8468928 109.9423867  48.3630763  71.5997575 110.4437156  47.3335289
  71.4542652 110.3604329  48.0986184  65.4446263 115.8823993  48.5907646
  64.8695854 116.0416162  49.2271607  65.0681939 115.2459402  48.1276097
  65.3049075 115.8121806  48.6162205  69.1119552 114.3547342  53.4500025
  68.7233984 113.9301560  52.7952216  68.4474250 114.6029492  53.9577051
  68.9566479 114.3286064  53.4287893  78.7542821 114.1122347  46.2247855
  78.4979386 113.3002289  46.0345738  79.5972135 114.1199914  45.9978042
  78.8408846 113.9934345  46.1632672  55.1903082 115.5264068  46.6052087
  55.2763334 115.1495936  47.3865617  55.8178879 115.1524514  46.1272045
  55.2959633 115.4149550  46.6497564  72.9345913 108.0521971  50.9624009
  73.3156425 107.3700142  51.3491883  72.1309197 107.7631573  50.7799673
  72.8722375 107.9089020  50.9928065  70.2158490 118.5845947  41.6476832
  71.0299129 118.8760840  41.5359603  70.1517631 117.9305809  41.0735125
  70.3261229 118.5311142  41.5465669  76.4367980 121.2671943  56.0606407
  76.2006617 120.4360008  55.9418468  77.0811209 121.2157550  56.6461252
  76.4962651 121.1369631  56.1292301  66.0866398 122.0567464  46.7749144
  66.7240345 121.8179212  47.3200937  66.5121470 122.2604623  46.0402304
  66.2442564 122.0518475  46.7466301  60.7779040 124.2955801  50.6583448
  60.8183186 124.5670652  49.8303227  61.3373565 124.8197709  51.0741235
  60.8662386 124.4131556  50.5975336  66.7269213 117.2769754  41.1124033
  67.1114366 117.0577461  41.8640578  66.4780833 118.1032700  41.2425110
  66.7471286 117.3667901  41.2425110  66.8937754 110.5576169  60.8286617
  66.5791195 111.3275732  60.5656180  66.5727686 109.9946425  60.2438844
  66.7996673 110.5886438  60.7027967  77.4604401 121.0516392  52.1234702
  77.1550218 121.7844449  52.4848017  76.7410616 120.6454321  51.8427488
  77.3091743 121.0998125  52.1347839  68.4687870 122.5339887  48.4542930
  68.5426878 122.3715059  49.3084780  69.2857376 122.7230077  48.2103412
  68.6004229 122.5376629  48.5440956  83.1606193 117.6909393  51.4503046
  83.0930693 117.7105352  50.5805633  83.1461855 118.5339720  51.6758717
  83.1484949 117.8183127  51.3555523  62.2293627 122.8797750  45.4837374
  61.4031744 123.1259487  45.3571652  62.2905618 122.8009831  46.3499432
  62.1167794 122.9042699  45.5926318  64.4469650 108.9466691  46.4432814
  63.5792076 109.0189290  46.5090423  64.7344855 109.7488770  46.6320789
  64.3609399 109.0760838  46.4807580  73.5702539 109.0944550  54.7744135
  74.3156131 108.9054361  54.3607561  73.1539844 109.6202788  54.2157992
  73.6187513 109.1446696  54.6308709  67.0092456 125.4974630  43.1856403
  67.2990754 125.1063612  42.4615630  67.7395937 125.6791335  43.6261679
  67.1599340 125.4668444  43.1439210  80.9464810 116.4653779  49.7249640
  81.4972732 115.8321848  49.9646733  80.9308925 116.9969172  50.4165145
  81.0250006 116.4502727  49.8628499  67.5987201 120.2992376  54.2709534
  67.0998895 121.0108144  54.3494422  68.4087425 120.6193043  54.2327696
  67.6443308 120.4519225  54.2766102  64.9498371 127.4742013  46.2516553
  64.7298667 127.1839367  47.0443220  64.7292893 126.8156968  45.7234465
  64.8845966 127.3341721  46.2905462  63.8615319 119.5615329  48.5172255
  63.5728567 118.9352800  49.0517982  64.7298667 119.5035617  48.5836935
  63.9475570 119.4602873  48.6063209  74.6493216 114.7050112  48.8354237
  74.3057982 113.9840448  49.1861486  74.7486259 114.4963964  47.9932595
  74.6135259 114.5674316  48.7625917  67.1166327 128.8471403  45.0347246
  67.7690385 128.3147845  45.2638272  66.4191936 128.4940055  45.4215120
  67.1097045 128.7160926  45.1259413  64.0647592 121.2010580  44.4414620
  64.8193560 121.5823619  44.6550082  63.4718205 121.6521724  44.8961316
  64.0884305 121.3239408  44.5397498  75.1106245 121.1675817  44.3778225
  75.6764278 121.8269026  44.2936768  74.4634149 121.5125515  44.8494627
  75.0985002 121.3157758  44.4350981  66.5254259 113.1573421  59.5671832
  65.7154035 113.4631200  59.4561674  67.0028946 113.8779003  59.6824416
  66.4757738 113.3088022  59.5678903  65.3845819 122.3719142  49.8154735
  64.8626572 122.5119433  50.5006600  65.7719839 121.6129806  50.0056853
  65.3649519 122.2804665  49.9455812  62.3737003 112.4224950  43.8849690
  62.0861798 112.0526221  43.1481637  63.0607471 112.8919806  43.6233395
  62.4325900 112.4371920  43.7364766  71.5812823 124.1114601  43.8015304
  71.3399499 123.3782461  43.3942369  71.7614156 124.6601458  43.1481637
  71.5720447 124.0836992  43.6445527  66.8112144 119.4023161  45.2136226
  66.6154927 120.0097895  44.6196529  67.0346490 118.7091105  44.7327900
  66.8146785 119.3900686  45.0552307  65.2090674 116.2877898  45.3317095
  65.9313326 116.4519057  44.8720901  64.7298667 117.0087563  45.2256434
  65.2454405 116.4176128  45.2482709  73.1684182 112.6241697  50.7113780
  72.3295282 112.6502976  50.4752043  73.2388549 113.2712433  51.2919126
  73.0552575 112.7237823  50.7622896  62.8598291 118.6935971  54.4371234
  63.3719388 118.9720224  53.7879994  62.5734633 119.4325265  54.8034048
  62.8933154 118.8438325  54.3961113  71.6153460 109.5227074  45.4441396
  72.3179813 109.3234823  44.9661354  71.3497649 108.7503017  45.7510239
  71.6800092 109.3790040  45.4186837  77.0441706 117.8309684  47.9975021
  76.9575680 117.9865110  48.8509800  76.5892185 118.4747760  47.6234426
  76.9644962 117.9485439  48.0682128  59.9465197 113.2006163  44.7334971
  60.0481334 114.0032324  45.0615946  60.7421084 112.9993499  44.4358052
  60.0793103 113.2892062  44.7370326  66.3782016 110.7862359  54.4972276
  66.1865213 110.8017494  55.3471700  67.2280612 110.9826034  54.4738931
  66.4757738 110.8176711  54.6195571  60.7628929 113.3153341  52.4756093
  60.6214421 112.4637282  52.6000601  61.0469493 113.3582002  51.6518299
  60.7836775 113.1953091  52.3723717  70.9167522 115.1520431  46.6200581
  70.6702236 115.0716182  47.4537370  71.2452645 114.3673899  46.4263108
  70.9288765 115.0246696  46.7148104  74.8115570 121.8603790  50.4087362
  74.6729930 122.5584836  50.9136104  74.0315568 121.7052447  50.0523544
  74.6758797 121.9403957  50.4313636  73.1493656 118.1600166  56.6609744
  73.1441694 117.2879982  56.6652170  73.8554649 118.3588335  56.1879199
  73.2538660 118.0604040  56.5916779  66.8764549 117.8877150  56.0323564
  67.0207925 118.4678358  55.3966674  67.2240197 118.2653446  56.7373419
  66.9492010 118.0297854  56.0422559  69.0484466 117.0867318  53.8148696
  68.3007780 117.2798332  53.4096974  69.2025991 116.2612538  53.5772817
  68.9606894 116.9932429  53.7194101  65.9492304 126.0779922  52.8984591
  66.0981868 125.5182837  52.2457995  66.7292306 126.1571923  53.2817110
  66.0866398 126.0065487  52.8581540  76.3068943 121.2182044  41.1703861
  75.9275752 120.4319182  41.1633151  75.6435189 121.7668901  41.0275506
  76.1527418 121.1826868  41.1484658  68.4745605 126.2494564  54.1769082
  68.3989276 125.5803375  54.7319870  68.4035464 126.9512353  54.6909748
  68.4526211 126.2539472  54.3345930  69.2886243 110.9817869  54.7044099
  69.7458857 111.7141843  54.8316891  69.3642572 110.5584334  55.4631355
  69.3677213 111.0275107  54.8345176  61.5319234 111.2283689  55.7933543
  60.9961424 110.6164047  56.1094310  61.5936999 111.8031825  56.4467210
  61.4614867 111.2230616  55.9368970  73.7613569 104.1607744  48.5737942
  73.8797137 104.6184207  47.8405245  73.5875745 103.3553005  48.2874160
  73.7532740 104.1101516  48.4238876  69.1315851 124.7695563  45.0092688
  69.8965743 124.5005207  44.6875352  69.0293941 124.2845574  45.7262750
  69.2297347 124.6585128  45.0672515  67.1668621 112.9719973  51.5485923
  66.3764696 112.7911433  51.8703259  67.5629244 112.1946925  51.5316218
  67.1085497 112.8307434  51.5938472  71.6534512 121.8007747  36.9892637
  72.4207497 121.8607872  36.5798489  71.2065821 121.2288188  36.5048955
  71.7007939 121.7244323  36.8570347  72.5512307 120.6062403  49.2745369
  71.8757309 120.3747635  49.7758756  72.5604684 119.9983586  48.6487474
  72.4530812 120.4821328  49.2561521  69.6806451 115.4480232  56.0309422
  69.6165593 116.3090188  55.9029559  69.8203639 115.1312225  55.2304973
  69.6921922 115.5280398  55.8937635  74.5529042 123.4627535  41.5055547
  74.6348879 124.2694521  41.1816998  75.0378784 123.4823494  42.2296321
  74.6366200 123.5848198  41.5642446  68.3625545 118.1412371  50.1725625
  67.9387794 118.3416870  49.4364643  68.1870401 117.2941219  50.2849925
  68.2736426 118.0461153  50.0799315  67.8637239 129.6562884  52.6347082
  68.3533169 128.9573673  52.4522747  67.2921471 129.3586754  53.2223140
  67.8521769 129.5089108  52.6948123  63.6507990 118.6364423  45.6053598
  63.8072609 118.5711225  46.4609590  63.9908583 119.4112975  45.3932277
  63.7241225 118.7413621  45.7008192  70.1887135 118.0122306  44.4746961
  70.7302680 117.5092687  44.9385581  70.5033694 117.9587501  43.6636446
  70.3151532 117.9301727  44.4230773  74.0604242 122.2224954  61.5873873
  74.8739108 121.9510102  61.7479006  73.8999209 121.9232494  60.7834069
  74.1574191 122.1379880  61.4919279  68.3573585 123.4039658  41.7586989
  68.4266405 122.5454196  41.8979989  69.1362040 123.6211539  41.4306013
  68.4826435 123.3092522  41.7304146  71.3376404 112.9058611  54.5269261
  71.5518374 112.2669525  53.9732615  70.7210303 113.3504435  54.0977123
  71.2781734 112.8768754  54.3819692  72.7481072 125.8277359  45.9723482
  72.3560864 125.5244074  45.2546348  72.9034144 126.6646449  45.7828436
  72.7134662 125.9061196  45.8379979  60.2242252 115.8199373  45.9214365
  60.6041217 116.2383918  45.2574632  59.6497617 116.4012829  46.2283208
  60.1953577 115.9677232  45.8691106  73.5015492 114.5147676  55.4652568
  72.6892174 114.2073566  55.5465741  73.9605427 114.0346676  56.0295281
  73.4495877 114.3984168  55.5607163  72.9120747 122.3927348  45.9129513
  72.5535402 122.5641991  46.6893545  72.4259458 122.8540554  45.3557511
  72.7879444 122.4866319  45.9454782  70.7291133 106.0158546  49.5156604
  69.8584691 105.9897267  49.4689914  70.9831474 105.8435739  48.6982450
  70.6384693 105.9868690  49.3876741  67.7009112 118.0726513  38.4529747
  67.9901637 118.8491396  38.7273321  67.7880911 117.5615245  39.1544246
  67.7563369 118.1118432  38.5972245  70.5969000 115.9207747  60.2481271
  71.0668631 116.5449864  60.6349145  70.6430880 115.2524723  60.8074485
  70.6736876 115.9142428  60.3881342  67.7540273 108.0264775  50.9730074
  67.2378762 107.3344966  51.0981653  67.1934202 108.6935552  50.9192673
  67.5946787 108.0228032  50.9836140  69.8232507 108.5657735  52.8022927
  69.4364260 108.5906766  53.5836457  69.3365444 107.9999413  52.3497444
  69.6945016 108.4853486  52.8510831  74.0725486 123.2831244  56.8596714
  74.7105207 122.7891439  56.5259170  73.4299578 123.2108644  56.2748940
  74.0719713 123.1990252  56.7239069  75.7982486 115.1320390  51.4262629
  75.3710094 115.0446738  50.6710729  75.1608539 115.2398165  52.0117473
  75.6412094 115.1353050  51.4008071  69.4889649 105.4524720  55.0933187
  70.1182767 105.9885020  54.8154257  69.6575511 105.3602079  55.9446753
  69.6067443 105.5186083  55.1781715  69.2903564 110.2395915  57.3659599
  70.1176993 109.9681064  57.4218213  69.3111410 111.0356757  57.7223417
  69.4156414 110.3175669  57.4274781  74.1279743 123.9751052  53.5002070
  74.9172121 123.6240117  53.6204152  74.3023341 124.7887441  53.2378704
  74.2700025 124.0436909  53.4789938  63.8673053 117.3859778  50.5529859
  63.0261060 117.2863652  50.7608753  64.0763061 118.1555258  50.9044180
  63.7737746 117.4851821  50.6357174  61.3448620 115.0079315  48.3814610
  60.9505318 115.0822327  47.6064719  60.7888737 115.3937261  48.9322972
  61.2051433 115.0761089  48.3482270  72.9813567 107.9860609  48.0618489
  73.1863160 107.9182917  48.9075486  72.6539991 108.7919430  47.9939666
  72.9628815 108.0946549  48.1778144  67.6789718 115.3141177  49.8027457
  67.3752856 114.7597165  50.4037864  66.9769139 115.4933387  49.3155491
  67.5305928 115.2585959  49.8197162  66.7355815 112.6241697  44.3672159
  67.0115550 111.9060609  43.9549726  67.3354485 113.2226617  44.1593265
  66.8649080 112.6062068  44.2752920  65.7408069 122.5290898  54.5099554
  65.6328424 122.5392960  55.3761613  65.9503851 123.3545678  54.3204508
  65.7558180 122.6531973  54.6103646  76.2347255 108.5392373  47.5421254
  75.6221568 109.0262775  47.9274986  76.3311430 107.8635864  48.0858905
  76.1585152 108.5110682  47.6800112  70.2366336 110.2955214  42.6418754
  70.6910082 110.4665775  43.3666598  70.7106382 109.6823325  42.2416529
  70.3734656 110.2306099  42.6892515  63.7581861 119.7803540  51.9721492
  63.1669794 120.4213038  51.9424507  64.5202885 120.2041157  51.9452792
  63.7830122 119.9379379  51.9636639  64.1542484 110.9405538  52.6389510
  64.6143966 111.0144467  53.3764633  64.1998591 111.7386792  52.2889331
  64.2293039 111.0699685  52.6962266  65.8025834 111.6072233  57.2061537
  65.4111399 110.9605580  57.6417315  65.9711696 112.1983668  57.8255792
  65.7696744 111.5986501  57.3624243  79.8772283 119.6109310  52.9698770
  79.9355406 120.0595959  53.7158747  79.2438750 120.0208123  52.5328850
  79.7923578 119.7383044  53.0151319  73.5171377 125.2312852  49.4053517
  73.3191066 125.7203666  48.7109728  72.8959089 125.4354093  49.9837650
  73.3958942 125.3329390  49.3876740  67.5779356 116.9997749  43.7463761
  68.3221401 117.3872025  43.9846711  67.7240052 116.1555174  43.9104249
  67.7089941 116.9328221  43.8057731  69.4958931 108.7948007  48.7795622
  68.6494976 108.9670815  48.6536972  69.4930064 107.9897351  49.1161451
  69.3706081 108.7009036  48.8106749  70.5657232 112.5723222  49.6457680
  70.0917186 112.0464984  50.1562991  70.9375367 112.0252695  49.0772542
  70.5507121 112.4139218  49.6372827  60.9430262 114.5694729  55.0141226
  61.8055875 114.4690438  54.9278556  60.6122045 113.9889438  54.4526798
  61.0215458 114.4686355  54.9186632  76.8293962 117.6325598  51.0564461
  76.5892185 116.7932013  51.0606887  77.3085969 117.7125764  51.7805234
  76.8646146 117.5206997  51.1639263  72.4940731 113.4659776  42.7083434
  71.9663750 113.5488520  42.0189143  72.9536439 114.2077648  42.7048079
  72.4842582 113.5880439  42.6058129  78.8299149 114.4127055  49.0093720
  78.5908919 114.3722889  48.1714504  78.9933051 115.2598207  49.1359441
  78.8189453 114.5319140  48.9047202  75.4345179 118.7977004  54.9398765
  76.1579378 118.3449530  54.7609785  75.1695142 119.0781670  54.1571093
  75.5026453 118.7727973  54.7977480  64.3032048 113.3937178  51.6751644
  63.6785118 113.4055570  51.0677597  63.9677643 113.8697353  52.3242884
  64.1617540 113.4655695  51.6808213  64.4873796 111.7362296  37.7324329
  64.1386601 112.3882021  38.1955878  64.0070242 111.7219409  37.0048200
  64.3644040 111.8305350  37.6935420  61.0157723 121.4537638  53.1155408
  60.4857648 120.7630077  53.1650383  61.2882817 121.4447823  52.2868117
  60.9782446 121.3504769  53.0002824  72.0477814 122.0363340  41.8393091
  72.7712013 122.5021453  41.6957664  71.6078405 122.1036950  41.0890688
  72.0893506 122.1147177  41.7077872  71.2163969 118.8960882  53.0893780
  70.6020962 118.3518933  53.3842415  71.7331254 118.3825119  52.6099596
  71.2019631 118.7397291  53.0618008  70.4560266 119.9665152  50.8238079
  70.0287874 119.3414871  50.3903514  70.4485210 119.6840074  51.6497086
  70.3919407 119.8317933  50.8817906  63.5722793 115.0030325  53.8926513
  63.7316280 114.2473650  54.2978235  63.3915687 115.5521265  54.5467250
  63.5688152 114.9724139  54.0489219  71.5143096 107.1691561  54.4477302
  71.0183657 107.3655235  53.7568869  72.2712158 107.5684229  54.2766104
  71.5529921 107.2569295  54.3197439  68.7845976 110.8433907  51.0380613
  68.8088463 110.3094019  50.3493393  69.0357449 110.3351216  51.7006203
  68.8255894 110.6894811  51.0345257  56.2953566 118.1265402  50.4723757
  56.1897015 118.0812246  49.6075841  55.5453786 118.4719182  50.7538042
  56.1689168 118.1706310  50.3861086  65.0647298 109.5704725  50.4186357
  65.1045670 110.0713932  51.1321064  64.2396963 109.6615119  50.1492280
  64.9486824 109.6586541  50.4836895  67.2476911 119.1365465  58.5206651
  66.3972541 119.2737179  58.6564296  67.4105039 118.4029243  58.9654353
  67.1460774 119.0479566  58.6062251  66.4861661 116.0865235  52.7160256
  65.6553591 116.2539053  52.5095504  66.4313179 115.7101186  53.5009141
  66.3551076 116.0554966  52.8008784  64.2945445 109.5774128  58.3516667
  64.9198148 109.0336261  58.6246099  63.8395925 109.0969045  57.7824457
  64.3193705 109.4263609  58.3078260  64.8597705 114.3620826  43.2450374
  65.0000666 114.8593291  43.9479015  65.3580238 113.6607121  43.3864587
  64.9538786 114.3322805  43.3701953  64.8897928 115.2287938  40.5742950
  65.5243007 115.8248363  40.5092412  64.9723538 114.9291395  41.3888821
  64.9954479 115.2728846  40.6846037  77.8680493 117.7603415  53.4429315
  78.4598334 118.4000666  53.4747513  78.3039488 117.0626452  53.7321381
  78.0198925 117.7521765  53.4910147  66.4676910 111.1601913  40.5488392
  66.7892752 110.6804995  39.8947655  66.7303854 111.9701559  40.3579204
  66.5542936 111.2091811  40.4243885  69.6973883 122.1820787  54.0687209
  69.1898974 122.7356634  54.5127839  69.4000529 122.2429077  53.2505983
  69.5778768 122.2727098  54.0135665  71.8636065 110.5474107  52.9111872
  72.2891137 110.0946633  52.2995398  71.2493059 109.9934178  53.1876659
  71.8364711 110.3988083  52.8616897  61.3950915 117.4255778  43.8432496
  61.9043145 118.0220286  44.2243802  61.8685188 117.1581752  43.1608916
  61.5394291 117.4741594  43.7987019  72.3081664 126.0984045  41.9991152
  71.5910973 125.9244907  41.5338389  72.9588401 125.8636617  41.4666638
  72.2983514 126.0379837  41.8520370  70.3030288 107.0189207  46.3202449
  69.6598606 106.8686853  46.8887587  69.9629695 106.7731552  45.5551553
  70.1575366 106.9601329  46.2905464  74.8929635 114.9748633  45.7432457
  74.2220825 115.5178336  45.6145523  75.5869385 115.4443489  45.5014152
  74.8958502 115.1246905  45.6887985  68.9416368 127.1145345  50.9744215
  68.7182023 126.3564175  51.3428242  68.4526212 127.1443367  50.2524655
  68.8359818 127.0067570  50.9220956  75.0557762 111.4304517  48.6522830
  75.4085372 111.0034240  49.3268629  74.1972564 111.3455361  48.7823907
  74.9807207 111.3549258  48.7717841  63.7541447 114.0612037  46.7105677
  63.0353436 114.4776169  46.9778540  64.1253809 114.6266276  46.1597315
  63.7033379 114.2061318  46.6688484  73.0541028 114.6939886  52.6007673
  73.0338955 114.5123181  53.4542451  73.1020229 115.5651904  52.5767256
  73.0575669 114.7956424  52.7230967  70.9987358 121.2827078  58.5256149
  70.9583213 120.6376755  57.9401305  71.8110676 121.2263695  58.8381561
  71.1130511 121.1786045  58.4853098  67.5894825 127.3345804  48.4281300
  67.1755224 126.6719934  48.0385142  68.2742200 127.4823662  47.9076994
  67.6293197 127.2586462  48.2937797  70.9560120 126.4935889  49.1804917
  70.5576403 126.6038159  48.4125737  70.3411339 126.7017955  49.7631476
  70.8059009 126.5409457  49.1536216  69.5288022 113.1010037  42.0479056
  68.9352861 113.4227033  41.4963623  69.5663299 112.2551132  41.8400162
  69.4462411 113.0234365  41.9361828  76.4881822 106.5522929  49.5807143
  75.9812687 105.8452069  49.5128320  77.2849256 106.2216118  49.7108219
  76.5309062 106.3996080  49.5906138  72.4045838 113.0589541  45.4780807
  72.1759531 113.0822243  44.6359165  72.6643914 112.2347008  45.5975817
  72.4092026 112.9405621  45.3706004  66.6865067 114.9124014  55.0805907
  66.1743970 114.3045197  55.4390938  66.5144563 115.6280607  55.5479883
  66.5854704 114.9287314  55.2022130  61.5330781 113.3561590  57.7308269
  61.3633372 114.0162964  57.1856475  61.0896731 113.5668151  58.4520758
  61.4430115 113.4847572  57.7569898  65.4590601 111.5966088  46.7735002
  65.9347967 111.9583167  46.1385183  64.9579200 112.2522555  47.0535145
  65.4555960 111.7460276  46.7211743  78.6901962 121.0687856  42.5648007
  79.0735568 121.8179212  42.7946104  77.8946076 121.3153675  42.3059996
  78.6295744 121.2157549  42.5605581  70.5634137 112.8348259  57.5208162
  71.1205567 112.6062068  56.8886628  70.2395202 113.5953925  57.2443375
  70.5980547 112.9132096  57.3864659  58.4332846 116.2608455  52.9896758
  57.8859565 115.5909101  53.1077627  59.2225224 115.8938303  53.0540226
  58.4685029 116.1073442  53.0165459  68.2817254 115.9215912  58.4860169
  69.0328581 116.2367589  58.7999724  68.4739831 115.7195083  57.6594091
  68.4208668 115.9383294  58.4103565  67.5017254 113.7407287  40.1408386
  67.8816219 113.7586916  39.3559501  66.7609850 114.1861276  40.0199234
  67.4486092 113.8089062  40.0071954  75.1302544 112.0489479  45.7283965
  75.1296771 111.8938135  46.5868241  74.9258724 112.8952466  45.6725350
  75.1002322 112.1510099  45.8471904  57.1919815 115.4729263  50.1442781
  57.0141576 115.0205872  50.8697697  56.9038837 116.2755424  50.3281259
  57.1232768 115.5251821  50.2786284  72.8543396 116.7286980  49.3820172
  73.3497062 116.0109975  49.3424192  72.0443172 116.4257778  49.2674659
  72.8087290 116.5784627  49.3593898  68.3002008 120.5784794  41.5317176
  67.4913331 120.2551467  41.4850486  68.8076917 119.8718016  41.4645425
  68.2551675 120.4266110  41.5147471  58.9292285 118.0056987  47.2564541
  58.0637805 117.9942677  47.1447312  59.0291101 117.8187210  48.1035680
  58.8166452 117.9763048  47.3653485  74.9195215 119.4790668  52.0697301
  75.3450287 118.9565090  51.5167726  74.5552135 120.0771505  51.5485923
  74.9281818 119.4900895  51.9106310  64.5549295 127.7754885  50.8294646
  64.8695854 128.5891274  50.8372428  64.9642708 127.3905104  51.4976805
  64.6617393 127.8383588  50.9298738  71.5073815 123.1924932  48.3998458
  71.9784993 123.9065195  48.5688443  71.8433993 122.5923682  48.9358328
  71.6268930 123.2096396  48.5030834  73.5950799 124.8026245  60.5790530
  73.7047765 124.0134806  60.9347277  73.9241696 124.7132182  59.7764868
  73.6603205 124.6732098  60.5132921  68.4243310 107.9652403  55.3556553
  68.5571215 107.1683396  55.6837528  68.8088462 108.4918806  55.9354828
  68.4999639 107.9252319  55.4900056  72.1447761 122.9842866  55.1626151
  71.5968707 122.3600750  54.8946216  72.6060790 123.1737138  54.4470230
  72.1314970 122.9201916  55.0176582  71.4975665 104.8882729  51.9537646
  70.6921629 104.7780458  52.2705484  71.3682400 104.9895184  51.0967512
  71.3595798 104.8866399  51.8745686  74.9541625 111.0528221  52.5477343
  74.3704614 111.5537427  52.1354910  75.2745919 110.5457777  51.9141666
  74.9154801 111.0520056  52.3935850  67.4936425 109.9668815  42.8236018
  68.3152119 110.1367128  42.5817713  67.0306075 110.1216076  42.1002315
  67.5467587 110.0150548  42.6807662  66.0831756 107.9611578  53.6034447
  66.6276169 107.6202705  54.1938788  66.1368692 108.8197039  53.7455731
  66.1720876 108.0366837  53.7116320  61.8962315 121.7227994  50.4773254
  62.5007173 121.6823828  49.8487075  61.6889628 122.5699146  50.5077310
  61.9551212 121.8415996  50.3889371  71.7106087 123.9893939  51.6935492
  72.5304461 123.8456905  51.9551787  71.4300165 124.6140138  52.2351930
  71.7902831 124.0604291  51.8123431  57.1313597 120.7062611  50.3472178
  57.0337876 119.8958883  50.6562234  57.9142467 120.6854405  49.9618446
  57.2329734 120.5829701  50.3359041  88.1819738 131.6458791  44.6578368
  88.1513742 132.5003427  44.8296638  88.7801086 131.3454083  45.2164512
  88.2656896 131.7275287  44.7653170  81.3819423 130.7334442  49.4131299
  80.5257318 130.8942940  49.4640415  81.4287076 129.8626506  49.4336360
  81.2618534 130.6285243  49.4237365  84.2271244 132.7926486  52.0562950
  84.7727204 133.4711572  52.1156920  84.1688120 132.6513946  51.1964532
  84.2987158 132.8718487  51.9375011  86.0036312 134.2211093  42.9296678
  85.8875838 134.9718779  43.3588816  86.7992199 133.9635046  43.1792765
  86.1040902 134.2945940  43.0300770  72.8400450 128.4721569  49.9667944
  72.2205482 127.8814216  49.7977959  72.7384314 129.0633004  49.3332267
  72.7338126 128.4725651  49.8472934  79.9368346 130.2121111  44.3000407
  80.6348511 130.3909238  44.7921870  80.2520678 129.6891450  43.6770797
  80.0863683 130.1614883  44.2802417  72.5669583 132.0173851  52.2111513
  72.4428280 132.6036296  52.8461332  73.2187868 131.5234046  52.5123788
  72.6443233 132.0312655  52.3497442  78.1095209 125.5813507  48.3821682
  77.7798539 126.0324651  47.7125381  77.4340211 125.5029671  48.9294688
  77.9605646 125.6364642  48.3644905  83.7265618 134.9518737  41.2410968
  83.6416913 135.8079704  41.3860537  84.2150001 134.6763061  41.9093127
  83.7854515 135.0376058  41.3613049  85.3171617 121.5699030  46.6271292
  85.0025058 122.2602509  47.0591715  84.7998559 121.5143812  45.9256793
  85.1936088 121.6633919  46.5868242  84.6584051 131.5703531  42.7408703
  84.1295522 131.7863165  43.4006009  85.1809071 132.2639670  42.6609672
  84.6572504 131.7046668  42.8264302  81.0060873 131.7132400  40.0185092
  81.2456877 131.9210384  39.2060435  81.3276714 130.9089909  40.1274036
  81.0898031 131.6246501  39.9145645  76.3151163 123.6425796  43.8644630
  77.0697131 124.0104113  43.6261680  76.1378698 124.0165350  44.6323809
  76.4005642 123.7523984  43.9429518  89.6086062 129.7920236  51.9092169
  88.7714483 129.8622423  52.1439763  89.5774293 129.7944731  51.0366471
  89.4804345 129.8030463  51.8151717  76.0050791 131.9353272  57.6240537
  76.1771295 131.8259166  58.4725819  76.5420149 132.5807677  57.3871730
  76.1095795 132.0145274  57.7145634  74.6708228 126.0496115  40.5622743
  74.4883801 126.2667995  39.7363735  75.5333841 126.1635127  40.6181357
  74.7712818 126.0986013  40.4477230  80.3507947 123.0522525  43.5971766
  81.0794108 122.8738480  43.1509923  80.4402840 123.8940605  43.8078944
  80.4714609 123.1506404  43.5625284  84.3316248 133.9875913  47.5004060
  85.0873763 134.4207427  47.5392969  84.4378572 133.3380682  48.0738696
  84.4586419 133.9553397  47.5902086  87.2893902 124.8563018  50.4935891
  87.9319810 124.9261122  51.0797806  87.5416923 124.1892241  49.9915433
  87.4216034 124.7689366  50.5063170  74.2170255 129.3270287  39.0745216
  73.5028432 129.0408467  39.4867648  74.7014224 129.6666913  39.7151603
  74.1829618 129.3351937  39.2300850  75.0611115 128.0663581  55.1060465
  74.3682911 127.5960561  55.3521197  75.6771442 127.8401886  55.6802172
  75.0495644 127.9630713  55.2269618  73.7851673 132.0328985  56.2487310
  74.5091646 132.0182016  56.7352205  73.8867810 132.7424340  55.7509279
  73.9069883 132.1353688  56.2466097  83.8327942 132.2362061  45.4031273
  83.9274796 132.9751355  45.8570899  83.2086785 131.8079536  45.8365838
  83.7536972 132.2823381  45.5339421  82.0880416 135.4148274  56.0521554
  82.6619277 134.7775518  56.2070118  82.0095219 135.4152356  55.1831212
  82.1613651 135.3213385  55.9467965  70.6876832 132.1937483  49.8904268
  71.2650335 132.0573934  50.5296514  69.9890894 131.7373267  50.1449853
  70.6697854 132.1059749  50.0226558  84.0850963 134.0810801  38.6368225
  84.0031126 134.1512988  39.5023212  84.7230684 134.6440545  38.4451966
  84.1670801 134.1749772  38.7358175  77.4444134 133.8471539  48.1042752
  77.1863379 133.0143274  48.0774051  77.4992617 134.0729152  47.2635252
  77.4143912 133.7569310  47.9762888  82.5245184 125.9499989  48.2046844
  81.8201511 125.4609175  48.3630763  82.5730159 125.9622464  47.3335289
  82.4275236 125.8789637  48.0986184  76.4178846 131.4009301  48.5907646
  75.8428438 131.5601469  49.2271607  76.0414523 130.7644710  48.1276097
  76.2781659 131.3307114  48.6162205  80.0852135 129.8732650  53.4500025
  79.6966568 129.4486868  52.7952216  79.4206833 130.1214800  53.9577051
  79.9299063 129.8471371  53.4287893  89.7275404 129.6307655  46.2247855
  89.4711969 128.8187597  46.0345738  90.5704718 129.6385222  45.9978042
  89.8141430 129.5119653  46.1632672  83.9078497 123.5707279  50.9624009
  84.2889008 122.8885450  51.3491883  83.1041781 123.2816881  50.7799673
  83.8454958 123.4274328  50.9928065  81.1891073 134.1031255  41.6476832
  82.0031712 134.3946148  41.5359603  81.1250215 133.4491117  41.0735125
  81.2993812 134.0496450  41.5465669  77.7001797 132.7955062  41.1124033
  78.0846949 132.5762769  41.8640578  77.4513417 133.6218008  41.2425110
  77.7203869 132.8853208  41.2425110  77.8670337 126.0761477  60.8286617
  77.5523778 126.8461040  60.5656180  77.5460270 125.5131733  60.2438844
  77.7729256 126.1071746  60.7027967  75.4202234 124.4651999  46.4432814
  74.5524659 124.5374598  46.5090423  75.7077438 125.2674078  46.6320789
  75.3341982 124.5946146  46.4807580  84.5435123 124.6129858  54.7744135
  85.2888715 124.4239669  54.3607561  84.1272427 125.1388096  54.2157992
  84.5920097 124.6632004  54.6308709  85.6225800 130.2235420  48.8354237
  85.2790566 129.5025756  49.1861486  85.7218842 130.0149272  47.9932595
  85.5867843 130.0859624  48.7625917  77.4986842 128.6758728  59.5671832
  76.6886618 128.9816508  59.4561674  77.9761529 129.3964311  59.6824416
  77.4490321 128.8273330  59.5678903  73.3469586 127.9410258  43.8849690
  73.0594382 127.5711529  43.1481637  74.0340054 128.4105113  43.6233395
  73.4058483 127.9557228  43.7364766  76.1823258 131.8063206  45.3317095
  76.9045910 131.9704364  44.8720901  75.7031250 132.5272871  45.2256434
  76.2186988 131.9361436  45.2482709  84.1416765 128.1427005  50.7113780
  83.3027866 128.1688284  50.4752043  84.2121133 128.7897741  51.2919126
  84.0285159 128.2423131  50.7622896  82.5886044 125.0412382  45.4441396
  83.2912396 124.8420131  44.9661354  82.3230232 124.2688325  45.7510239
  82.6532676 124.8975348  45.4186837  88.0174289 133.3494992  47.9975021
  87.9308264 133.5050418  48.8509800  87.5624769 133.9933067  47.6234426
  87.9377546 133.4670747  48.0682128  70.9197781 128.7191471  44.7334971
  71.0213917 129.5217632  45.0615946  71.7153667 128.5178807  44.4358052
  71.0525686 128.8077369  44.7370326  77.3514600 126.3047667  54.4972276
  77.1597797 126.3202802  55.3471700  78.2013196 126.5011342  54.4738931
  77.4490322 126.3362019  54.6195571  71.7361513 128.8338649  52.4756093
  71.5947005 127.9822590  52.6000601  72.0202076 128.8767310  51.6518299
  71.7569359 128.7138399  52.3723717  81.8900105 130.6705739  46.6200581
  81.6434819 130.5901490  47.4537370  82.2185228 129.8859207  46.4263108
  81.9021349 130.5432004  46.7148104  84.1226239 133.6785474  56.6609744
  84.1174278 132.8065290  56.6652170  84.8287233 133.8773643  56.1879199
  84.2271243 133.5789348  56.5916779  77.8497132 133.4062458  56.0323564
  77.9940508 133.9863666  55.3966674  78.1972781 133.7838754  56.7373419
  77.9224594 133.5483162  56.0422559  80.0217050 132.6052626  53.8148696
  79.2740364 132.7983640  53.4096974  80.1758575 131.7797846  53.5772817
  79.9339477 132.5117737  53.7194101  80.2618827 126.5003177  54.7044099
  80.7191441 127.2327151  54.8316891  80.3375156 126.0769642  55.4631355
  80.3409797 126.5460415  54.8345176  72.5051818 126.7468996  55.7933543
  71.9694008 126.1349355  56.1094310  72.5669583 127.3217132  56.4467210
  72.4347451 126.7415924  55.9368970  84.7346153 119.6793052  48.5737942
  84.8529721 120.1369515  47.8405245  84.5608328 118.8738313  48.2874160
  84.7265324 119.6286824  48.4238876  78.1401205 128.4905281  51.5485923
  77.3497280 128.3096741  51.8703259  78.5361828 127.7132233  51.5316218
  78.0818081 128.3492742  51.5938472  83.5244891 136.1247711  49.2745369
  82.8489893 135.8932943  49.7758756  83.5337267 135.5168894  48.6487474
  83.4263396 136.0006636  49.2561521  80.6539035 130.9665540  56.0309422
  80.5898176 131.8275496  55.9029559  80.7936223 130.6497533  55.2304973
  80.6654505 131.0465706  55.8937635  79.3358129 133.6597679  50.1725625
  78.9120378 133.8602178  49.4364643  79.1602984 132.8126527  50.2849925
  79.2469010 133.5646461  50.0799315  81.1619718 133.5307614  44.4746961
  81.7035264 133.0277995  44.9385581  81.4766278 133.4772809  43.6636446
  81.2884116 133.4487035  44.4230773  82.3108988 128.4243919  54.5269261
  82.5250957 127.7854833  53.9732615  81.6942887 128.8689742  54.0977123
  82.2514317 128.3954062  54.3819692  71.1974835 131.3384681  45.9214365
  71.5773800 131.7569226  45.2574632  70.6230200 131.9198137  46.2283208
  71.1686160 131.4862540  45.8691106  84.4748076 130.0332984  55.4652568
  83.6624758 129.7258874  55.5465741  84.9338010 129.5531984  56.0295281
  84.4228461 129.9169476  55.5607163  81.7023717 121.5343854  49.5156604
  80.8317274 121.5082575  49.4689914  81.9564058 121.3621046  48.6982450
  81.6117277 121.5053998  49.3876741  78.6741696 133.5911821  38.4529747
  78.9634221 134.3676704  38.7273321  78.7613495 133.0800553  39.1544246
  78.7295952 133.6303740  38.5972245  81.5701583 131.4393055  60.2481271
  82.0401215 132.0635172  60.6349145  81.6163464 130.7710031  60.8074485
  81.6469459 131.4327736  60.3881342  78.7272857 123.5450083  50.9730074
  78.2111346 122.8530274  51.0981653  78.1666786 124.2120860  50.9192673
  78.5679370 123.5413340  50.9836140  80.7965091 124.0843043  52.8022927
  80.4096844 124.1092074  53.5836457  80.3098028 123.5184721  52.3497444
  80.6677599 124.0038794  52.8510831  86.7715070 130.6505698  51.4262629
  86.3442678 130.5632046  50.6710729  86.1341123 130.7583473  52.0117473
  86.6144677 130.6538358  51.4008071  80.4622232 120.9710028  55.0933187
  81.0915350 121.5070328  54.8154257  80.6308095 120.8787387  55.9446753
  80.5800027 121.0371391  55.1781715  80.2636147 125.7581223  57.3659599
  81.0909576 125.4866372  57.4218213  80.2843993 126.5542065  57.7223417
  80.3888997 125.8360977  57.4274781  74.8405637 132.9045086  50.5529859
  73.9993644 132.8048960  50.7608753  75.0495645 133.6740566  50.9044180
  74.7470330 133.0037129  50.6357174  72.3181204 130.5264623  48.3814610
  71.9237902 130.6007635  47.6064719  71.7621321 130.9122569  48.9322972
  72.1784016 130.5946397  48.3482270  83.9546151 123.5045917  48.0618489
  84.1595744 123.4368225  48.9075486  83.6272575 124.3104738  47.9939666
  83.9361399 123.6131857  48.1778144  78.6522302 130.8326485  49.8027457
  78.3485439 130.2782473  50.4037864  77.9501723 131.0118695  49.3155491
  78.5038512 130.7771267  49.8197162  77.7088399 128.1427005  44.3672159
  77.9848133 127.4245917  43.9549726  78.3087068 128.7411925  44.1593265
  77.8381664 128.1247375  44.2752920  87.2079838 124.0577681  47.5421254
  86.5954152 124.5448083  47.9274986  87.3044013 123.3821172  48.0858905
  87.1317736 124.0295990  47.6800112  81.2098919 125.8140522  42.6418754
  81.6642666 125.9851083  43.3666598  81.6838965 125.2008633  42.2416529
  81.3467240 125.7491407  42.6892515  75.1275068 126.4590846  52.6389510
  75.5876549 126.5329775  53.3764633  75.1731174 127.2572100  52.2889331
  75.2025623 126.5884993  52.6962266  76.7758417 127.1257541  57.2061537
  76.3843982 126.4790888  57.6417315  76.9444280 127.7168976  57.8255792
  76.7429328 127.1171809  57.3624243  78.5511939 132.5183056  43.7463761
  79.2953984 132.9057333  43.9846711  78.6972636 131.6740482  43.9104249
  78.6822525 132.4513529  43.8057731  80.4691515 124.3133315  48.7795622
  79.6227560 124.4856123  48.6536972  80.4662647 123.5082659  49.1161451
  80.3438665 124.2194344  48.8106749  81.5389815 128.0908530  49.6457680
  81.0649770 127.5650292  50.1562991  81.9107951 127.5438003  49.0772542
  81.5239704 127.9324526  49.6372827  71.9162845 130.0880037  55.0141226
  72.7788458 129.9875746  54.9278556  71.5854628 129.5074746  54.4526798
  71.9948042 129.9871663  54.9186632  87.8026546 133.1510905  51.0564461
  87.5624769 132.3117321  51.0606887  88.2818553 133.2311072  51.7805234
  87.8378729 133.0392305  51.1639263  83.4673315 128.9845084  42.7083434
  82.9396334 129.0673828  42.0189143  83.9269023 129.7262956  42.7048079
  83.4575165 129.1065747  42.6058129  89.8031733 129.9312363  49.0093720
  89.5641503 129.8908197  48.1714504  89.9665634 130.7783515  49.1359441
  89.7922036 130.0504448  48.9047202  86.4077763 134.3162312  54.9398765
  87.1311962 133.8634838  54.7609785  86.1427725 134.5966978  54.1571093
  86.4759036 134.2913280  54.7977480  75.2764631 128.9122486  51.6751644
  74.6517702 128.9240877  51.0677597  74.9410226 129.3882661  52.3242884
  75.1350123 128.9841003  51.6808213  75.4606380 127.2547604  37.7324329
  75.1119184 127.9067329  38.1955878  74.9802826 127.2404717  37.0048200
  75.3376624 127.3490658  37.6935420  82.1896552 134.4146190  53.0893780
  81.5753546 133.8704241  53.3842415  82.7063837 133.9010427  52.6099596
  82.1752215 134.2582599  53.0618008  81.4292850 135.4850460  50.8238079
  81.0020458 134.8600179  50.3903514  81.4217794 135.2025382  51.6497086
  81.3651991 135.3503241  50.8817906  74.5455377 130.5215633  53.8926513
  74.7048863 129.7658957  54.2978235  74.3648270 131.0706573  54.5467250
  74.5420736 130.4909447  54.0489219  82.4875680 122.6876869  54.4477302
  81.9916241 122.8840543  53.7568869  83.2444742 123.0869537  54.2766104
  82.5262504 122.7754603  54.3197439  79.7578559 126.3619215  51.0380613
  79.7821047 125.8279327  50.3493393  80.0090033 125.8536524  51.7006203
  79.7988478 126.2080119  51.0345257  76.0379882 125.0890033  50.4186357
  76.0778253 125.5899240  51.1321064  75.2129546 125.1800427  50.1492280
  75.9219407 125.1771849  50.4836895  77.4594245 131.6050543  52.7160256
  76.6286175 131.7724361  52.5095504  77.4045762 131.2286494  53.5009141
  77.3283660 131.5740274  52.8008784  75.2678028 125.0959436  58.3516667
  75.8930732 124.5521569  58.6246099  74.8128508 124.6154353  57.7824457
  75.2926289 124.9448917  58.3078260  75.8330289 129.8806134  43.2450374
  75.9733250 130.3778599  43.9479015  76.3312822 129.1792429  43.3864587
  75.9271370 129.8508113  43.3701953  75.8630511 130.7473245  40.5742950
  76.4975591 131.3433670  40.5092412  75.9456122 130.4476703  41.3888821
  75.9687062 130.7914154  40.6846037  77.4409494 126.6787221  40.5488392
  77.7625335 126.1990303  39.8947655  77.7036438 127.4886867  40.3579204
  77.5275519 126.7277119  40.4243885  82.8368649 126.0659415  52.9111872
  83.2623721 125.6131941  52.2995398  82.2225642 125.5119486  53.1876659
  82.8097294 125.9173391  52.8616897  81.2762872 122.5374515  46.3202449
  80.6331190 122.3872161  46.8887587  80.9362279 122.2916860  45.5551553
  81.1307949 122.4786637  46.2905464  85.8662218 130.4933941  45.7432457
  85.1953408 131.0363644  45.6145523  86.5601969 130.9628797  45.5014152
  85.8691086 130.6432213  45.6887985  86.0290346 126.9489825  48.6522830
  86.3817956 126.5219548  49.3268629  85.1705147 126.8640669  48.7823907
  85.9539790 126.8734566  48.7717841  74.7274031 129.5797345  46.7105677
  74.0086020 129.9961477  46.9778540  75.0986393 130.1451584  46.1597315
  74.6765963 129.7246626  46.6688484  84.0273612 130.2125194  52.6007673
  84.0071539 130.0308489  53.4542451  84.0752812 131.0837212  52.5767256
  84.0308253 130.3141732  52.7230967  80.5020605 128.6195345  42.0479056
  79.9085444 128.9412341  41.4963623  80.5395883 127.7736440  41.8400162
  80.4194994 128.5419673  41.9361828  87.4614406 122.0708237  49.5807143
  86.9545271 121.3637376  49.5128320  88.2581840 121.7401426  49.7108219
  87.5041645 121.9181388  49.5906138  83.3778422 128.5774849  45.4780807
  83.1492115 128.6007551  44.6359165  83.6376498 127.7532316  45.5975817
  83.3824610 128.4590929  45.3706004  77.6597650 130.4309322  55.0805907
  77.1476553 129.8230505  55.4390938  77.4877146 131.1465915  55.5479883
  77.5587287 130.4472621  55.2022130  72.5063365 128.8746897  57.7308269
  72.3365955 129.5348272  57.1856475  72.0629315 129.0853459  58.4520758
  72.4162698 129.0032880  57.7569898  76.4323184 127.1151395  46.7735002
  76.9080551 127.4768475  46.1385183  75.9311784 127.7707863  47.0535145
  76.4288543 127.2645584  46.7211743  81.5366721 128.3533567  57.5208162
  82.0938151 128.1247376  56.8886628  81.2127786 129.1139232  57.2443375
  81.5713131 128.4317404  57.3864659  79.2549838 131.4401220  58.4860169
  80.0061165 131.7552897  58.7999724  79.4472414 131.2380391  57.6594091
  79.3941252 131.4568602  58.4103565  78.4749837 129.2592595  40.1408386
  78.8548802 129.2772224  39.3559501  77.7342433 129.7046584  40.0199234
  78.4218675 129.3274370  40.0071954  86.1035128 127.5674786  45.7283965
  86.1029354 127.4123443  46.5868241  85.8991308 128.4137773  45.6725350
  86.0734906 127.6695407  45.8471904  83.8275980 132.2472288  49.3820172
  84.3229645 131.5295283  49.3424192  83.0175756 131.9443086  49.2674659
  83.7819873 132.0969935  49.3593898  85.8927799 134.9975976  52.0697301
  86.3182870 134.4750398  51.5167726  85.5284719 135.5956813  51.5485923
  85.9014401 135.0086203  51.9106310  79.3975893 123.4837711  55.3556553
  79.5303799 122.6868704  55.6837528  79.7821046 124.0104114  55.9354828
  79.4732222 123.4437627  55.4900056  82.4708248 120.4068037  51.9537646
  81.6654212 120.2965766  52.2705484  82.3414984 120.5080492  51.0967512
  82.3328381 120.4051707  51.8745686  85.9274209 126.5713529  52.5477343
  85.3437198 127.0722735  52.1354910  86.2478503 126.0643085  51.9141666
  85.8887384 126.5705364  52.3935850  78.4669008 125.4854123  42.8236018
  79.2884702 125.6552436  42.5817713  78.0038659 125.6401384  42.1002315
  78.5200170 125.5335856  42.6807662  77.0564340 123.4796886  53.6034447
  77.6008753 123.1388012  54.1938788  77.1101276 124.3382347  53.7455731
  77.1453459 123.5552145  53.7116320  22.0375060  15.4725074  31.5918415
  22.0069065  16.3269711  31.7636684  22.6356409  15.1720367  32.1504559
  22.1212218  15.5541571  31.6993217  15.2374745  14.5600725  36.3471345
  14.3812641  14.7209223  36.3980462  15.2842399  13.6892789  36.3676406
  15.1173856  14.4551527  36.3577411   9.6215885  24.0963443  32.1108577
   8.8698784  23.7178981  31.8824622  10.0701896  24.1281877  31.3627387
   9.5765552  24.0449050  31.9666079  18.5468462  20.8287251  45.9531802
  19.2535229  20.3339282  46.0818736  18.7356397  21.2696332  45.2234460
  18.6796367  20.8205601  45.8640847  14.6145136  26.4703081  33.4805236
  14.9984515  27.0389980  32.9410011  14.5504277  25.7452592  33.0011052
  14.6618563  26.4478545  33.3299098  18.0826566  16.6192769  38.9902997
  18.6282526  17.2977856  39.0496967  18.0243442  16.4780230  38.1304579
  18.1542480  16.6984771  38.8715058  11.2000641  24.1081835  34.3771350
  11.3011004  23.2982189  34.6868477  10.6042386  24.0138782  33.7471028
  11.1273180  23.9746863  34.3297588  11.0401381  29.0259424  35.7786206
  11.6838836  29.4672588  36.1682364  11.3657636  28.2212851  35.6916464
  11.1833209  28.9724619  35.8231683  11.7421960  22.0371399  31.1506067
  12.0637801  22.5776607  30.5467375  12.3894057  21.4668171  31.2828357
  11.8848015  22.0330574  31.0813103   6.4224906  15.8440134  39.1451560
   6.2983603  16.4302580  39.7801379   7.0743190  15.3500330  39.4463835
   6.4998555  15.8578939  39.2837489  11.4483247  19.0201851  38.4239071
  12.0932249  18.5274294  38.1050019  11.6885024  19.1626638  39.2505149
  11.5793832  18.9679293  38.4988604  13.9869338  21.8656757  38.0745964
  14.2692581  21.0708163  37.8532719  14.7155498  22.3437344  38.0951025
  14.1358902  21.8191354  38.0448979  23.9687426  20.9716119  35.0481794
  23.1385129  21.1826763  35.2115211  23.9196679  20.1453174  34.7724078
  23.8394162  20.8805725  35.0319160   5.9583010  25.0087793  35.2779889
   5.4750588  25.7338282  35.2539473   6.7706328  25.3063923  35.3890047
   6.0073758  25.1590146  35.2907169  12.0297164  23.8019973  37.8829704
  11.5124106  23.4427388  37.2791012  12.7271555  23.2782148  37.8935770
  12.0562745  23.6717661  37.7959962  15.6860756  24.2514787  43.8445877
  15.7744102  24.0640928  44.6924087  16.1150468  23.6052217  43.4450724
  15.7622858  24.1277795  43.9117628  13.2531216  23.5345947  42.8263539
  12.6902050  23.1218557  43.3503200  14.0152239  23.4598853  43.2456682
  13.2825664  23.4623348  42.9656539   8.8127207  25.5243969  35.4300169
   9.5147786  25.0095958  35.4872926   8.7324690  25.8518120  36.2347044
   8.9050968  25.4958195  35.5572961  23.4641385  13.6186520  38.8432216
  22.6269806  13.6888707  39.0779810  23.4329616  13.6211015  37.9706518
  23.3359667  13.6296747  38.7491764   9.8606114  15.7619555  44.5580584
  10.0326617  15.6525450  45.4065866  10.3975471  16.4073961  44.3211777
   9.9651118  15.8411557  44.6485681   8.1377983  21.7150321  34.9385777
   8.9766882  21.9473253  34.9859539   8.1689752  20.8454632  34.8692813
   8.2659700  21.6207267  34.9350422   8.7630686  22.1351196  39.2399083
   9.3028911  21.9922327  39.9102455   8.0800632  22.5347946  39.6083109
   8.7422839  22.1730867  39.3933504  18.1871570  17.8142196  34.4344107
  18.9429085  18.2473711  34.4733016  18.2933895  17.1646966  35.0078743
  18.3141741  17.7819680  34.5242133  21.2251742  21.6415474  35.1846510
  20.7886973  21.6452216  35.9405482  20.8914657  22.3220973  34.7526088
  21.1114362  21.7427929  35.2327343  15.7980815  23.6823806  46.5089660
  16.5821232  23.7954654  46.8745403  15.5977410  22.8564943  46.7048346
  15.8846841  23.5770526  46.5924046   4.1667831  18.3551486  39.3933504
   3.9006246  17.5390603  39.5524495   4.1806395  18.4004642  38.5229020
   4.1292553  18.2408391  39.2886986  21.1449224   8.6829301  37.4275938
  21.7875133   8.7527406  38.0137853  21.3972245   8.0158524  36.9255480
  21.2771357   8.5955650  37.4403217  15.9551209  25.5933908  40.1556116
  15.1566454  25.3533409  40.4129985  16.4037220  25.6448301  40.9023164
  15.9025820  25.5656300  40.3041040  24.3596088  18.3596393  34.0766147
  25.0212522  17.7987062  33.9762056  23.7187500  17.8648424  34.4018838
  24.3624955  18.2032803  34.1098488   4.5761244  19.1410266  36.6745249
   4.3936818  19.1157152  35.8217541   5.3110913  19.6109204  36.7134157
   4.6575308  19.2071628  36.5543167  20.6460918  19.3761776  33.8178136
  20.8816508  19.5206975  32.9904987  20.7950482  20.1404184  34.2109650
  20.7026722  19.5100830  33.7541740   7.6406996  15.8595269  43.1827357
   8.3646968  15.8448299  43.6692252   7.7423132  16.5690624  42.6849325
   7.7625205  15.9619972  43.1806144  22.4751375  18.2163442  31.6547740
  22.8059592  18.7491082  31.0487835  23.0484463  18.2702330  32.3109691
  22.6085054  18.3033011  31.6625522  15.0151945  19.3394353  48.0476304
  14.2224926  19.6537865  48.2328924  15.1300873  19.5545822  47.2097089
  14.9147356  19.4178190  47.9514639  17.6883264  16.0628345  32.3371320
  17.7830119  16.8017639  32.7910946  17.0642108  15.6345820  32.7705885
  17.6092294  16.1089665  32.4679468  15.9435738  19.2414557  42.9861601
  16.5174600  18.6041801  43.1410165  15.8650542  19.2418640  42.1171259
  16.0168973  19.1479669  42.8808012  11.2999457  17.6737822  35.0382798
  11.0418701  16.8409557  35.0114098  11.3547940  17.8995435  34.1975299
  11.2699235  17.5835594  34.9102935  13.9407458  13.6998934  40.3840072
  13.5521890  13.2753152  39.7292263  13.2762156  13.9481084  40.8917098
  13.7854385  13.6737655  40.3627939  23.5830727  13.4573939  33.1587902
  23.3267292  12.6453880  32.9685784  24.4260041  13.4651506  32.9318089
  23.6696752  13.3385936  33.0972719  21.2655886  20.6123535  42.9946454
  21.0294523  19.7811600  42.8758515  21.9099115  20.5609142  43.5801298
  21.3250557  20.4821223  43.0632348  10.9154304  21.4019056  33.7089191
  11.5528251  21.1630804  34.2540984  11.3409376  21.6056215  32.9742351
  11.0730470  21.3970066  33.6806348   5.6066947  23.6407393  37.5923494
   5.6471092  23.9122244  36.7643274   6.1661471  24.1649301  38.0081282
   5.6950292  23.7583148  37.5315383  22.2892307  20.3967983  39.0574749
  21.9838124  21.1296040  39.4188064  21.5698522  19.9905913  38.7767535
  22.1379649  20.4449716  39.0687886  13.2975776  21.8791479  35.3882977
  13.3714784  21.7166651  36.2424827  14.1145282  22.0681668  35.1443458
  13.4292135  21.8828221  35.4781002  27.9894099  17.0360984  38.3843093
  27.9218599  17.0556943  37.5145679  27.9749761  17.8791311  38.6098763
  27.9772855  17.1634719  38.2895570  18.3990445   8.4396142  41.7084182
  19.1444037   8.2505952  41.2947608  17.9827750   8.9654380  41.1498039
  18.4475420   8.4898287  41.5648756  11.8380362  24.8426222  30.1196450
  12.1278660  24.4515203  29.3955677  12.5683843  25.0242927  30.5601726
  11.9887246  24.8120035  30.0779257  25.7752716  15.8105370  36.6589687
  26.3260638  15.1773439  36.8986779  25.7596832  16.3420763  37.3505192
  25.8537912  15.7954319  36.7968545  12.4275107  19.6443968  41.2049581
  11.9286801  20.3559735  41.2834469  13.2375331  19.9644634  41.1667743
  12.4731214  19.7970816  41.2106149   9.7786277  26.8193604  33.1856600
   9.5586573  26.5290959  33.9783267   9.5580799  26.1608559  32.6574512
   9.7133872  26.6793313  33.2245509   8.6903225  18.9066921  35.4512302
   8.4016473  18.2804392  35.9858029   9.5586573  18.8487208  35.5176982
   8.7763476  18.8054465  35.5403256  19.4781122  14.0501704  35.7694283
  19.1345888  13.3292039  36.1201533  19.5774165  13.8415555  34.9272642
  19.4423165  13.9125907  35.6965964  11.9454233  28.1922994  31.9687292
  12.5978291  27.6599436  32.1978318  11.2479842  27.8391646  32.3555166
  11.9384951  28.0612517  32.0599460  19.9394151  20.5127408  31.3118272
  20.5052184  21.1720618  31.2276815  19.2922055  20.8577106  31.7834674
  19.9272908  20.6609349  31.3691028  11.3542165  12.5025012  46.5011879
  10.5441941  12.8082792  46.3901721  11.8316852  13.2230594  46.6164463
  11.3045644  12.6539613  46.5018950  10.2133725  21.7170733  36.7494782
   9.6914478  21.8571025  37.4346647  10.6007745  20.9581397  36.9396899
  10.1937425  21.6256257  36.8795859  16.4100730  23.4566192  30.7355351
  16.1687405  22.7234053  30.3282416  16.5902062  24.0053049  30.0821684
  16.4008354  23.4288583  30.5785574  17.9972088  11.9693289  37.6453826
  17.1583188  11.9954568  37.4092090  18.0676455  12.6164024  38.2259173
  17.8840481  12.0689415  37.6962943   7.6886197  18.0387562  41.3711281
   8.2007294  18.3171816  40.7220041   7.4022539  18.7776856  41.7374094
   7.7221060  18.1889916  41.3301159  21.8729612  17.1761276  34.9315068
  21.7863586  17.3316702  35.7849847  21.4180092  17.8199351  34.5574473
  21.7932868  17.2937031  35.0022175  19.6403476  21.2055382  37.3427409
  19.5017836  21.9036428  37.8476151  18.8603474  21.0504038  36.9863591
  19.5046703  21.2855549  37.3653683  17.9781562  17.5051757  43.5949791
  17.9729600  16.6331574  43.5992217  18.6842555  17.7039927  43.1219246
  18.0826566  17.4055632  43.5256826  11.7052455  17.2328741  42.9663611
  11.8495831  17.8129949  42.3306721  12.0528103  17.6105038  43.6713465
  11.7779916  17.3749445  42.9762606  13.8772372  16.4318910  40.7488742
  13.1295686  16.6249924  40.3437020  14.0313898  15.6064129  40.5112864
  13.7894800  16.3384021  40.6534148  10.7780210  25.4231513  39.8324638
  10.9269774  24.8634429  39.1798042  11.5580212  25.5023515  40.2157156
  10.9154304  25.3517079  39.7921587  13.3033511  25.5946156  41.1109128
  13.2277182  24.9254967  41.6659917  13.2323370  26.2963944  41.6249795
  13.2814117  25.5991063  41.2685976  14.1174149  10.3269460  41.6384146
  14.5746763  11.0593435  41.7656938  14.1930478   9.9035926  42.3971402
  14.1965119  10.3726698  41.7685223  13.9603758  24.1147155  31.9432734
  14.7253649  23.8456799  31.6215399  13.8581847  23.6297165  32.6602797
  14.0585253  24.0036719  32.0012562  11.9956527  12.3171564  38.4825970
  11.2052602  12.1363024  38.8043306  12.3917150  11.5398517  38.4656265
  11.9373403  12.1759025  38.5278518  17.3800214  19.9513994  36.2085416
  16.7045215  19.7199227  36.7098803  17.3892590  19.3435177  35.5827521
  17.2818718  19.8272920  36.1901568  14.5094358  14.7931823  42.9649469
  14.4453499  15.6541780  42.8369606  14.6491545  14.4763817  42.1645020
  14.5209828  14.8731990  42.8277682  19.3816948  22.8079127  28.4395594
  19.4636786  23.6146113  28.1157045  19.8666690  22.8275086  29.1636367
  19.4654106  22.9299789  28.4982493  13.1913451  17.4863963  37.1065672
  12.7675701  17.6868462  36.3704690  13.0158307  16.6392811  37.2189972
  13.1024332  17.3912744  37.0139362  12.6925145  29.0014476  39.5687129
  13.1821075  28.3025265  39.3862794  12.1209377  28.7038346  40.1563187
  12.6809675  28.8540699  39.6288170  18.8892148  21.5676545  48.5213920
  19.7027014  21.2961694  48.6819052  18.7287115  21.2684085  47.7174116
  18.9862097  21.4831471  48.4259326  16.1664310  12.2510202  41.4609308
  16.3806280  11.6121116  40.9072662  15.5498210  12.6956026  41.0317170
  16.1069640  12.2220346  41.3159739  17.5768978  25.1728951  32.9063529
  17.1848770  24.8695666  32.1886395  17.7322051  26.0098041  32.7168483
  17.5422568  25.2512787  32.7720026  18.3303398  13.8599267  42.3992615
  17.5180080  13.5525158  42.4805788  18.7893333  13.3798268  42.9635327
  18.2783783  13.7435760  42.4947209  17.7408653  21.7378939  32.8469560
  17.3823308  21.9093582  33.6233592  17.2547364  22.1992145  32.2897558
  17.6167350  21.8317910  32.8794829  15.4256906  15.2659339  47.1821317
  15.8956537  15.8901455  47.5689192  15.4718786  14.5976314  47.7414532
  15.5024782  15.2594019  47.3221389  18.9013392  22.6282835  43.7936760
  19.5393113  22.1343031  43.4599216  18.2587484  22.5560236  43.2088987
  18.9007619  22.5441844  43.6579115  20.6270392  14.4771981  38.3602676
  20.1998001  14.3898330  37.6050776  19.9896445  14.5849757  38.9457520
  20.4700000  14.4804641  38.3348118  14.1191470   9.5847507  44.2999645
  14.9464899   9.3132655  44.3558260  14.1399316  10.3808348  44.6563463
  14.2444320   9.6627261  44.3614828  18.9567649  23.3202644  40.4342117
  19.7460027  22.9691708  40.5544199  19.1311247  24.1339032  40.1718751
  19.0987931  23.3888501  40.4129985   8.6960959  16.7311369  37.4869906
   7.8548966  16.6315244  37.6948800   8.9050967  17.5006850  37.8384227
   8.6025652  16.8303413  37.5697221  12.5077624  14.6592769  36.7367504
  12.2040762  14.1048757  37.3377911  11.8057045  14.8384979  36.2495538
  12.3593834  14.6037551  36.7537209  10.5695975  21.8742489  41.4439601
  10.4616330  21.8844551  42.3101659  10.7791757  22.6997270  41.2544555
  10.5846086  21.9983564  41.5443693   8.5869767  19.1255132  38.9061539
   7.9957701  19.7664630  38.8764554   9.3490791  19.5492749  38.8792838
   8.6118028  19.2830970  38.8976686  24.7060189  18.9560901  39.9038817
  24.7643313  19.4047550  40.6498794  24.0726656  19.3659714  39.4668897
  24.6211484  19.0834636  39.9491365  18.3459284  24.5764443  36.3393563
  18.1478972  25.0655258  35.6449775  17.7246995  24.7805685  36.9177697
  18.2246848  24.6780982  36.3216787  15.3945138  11.9174813  36.5797727
  14.9205092  11.3916575  37.0903038  15.7663274  11.3704286  36.0112588
  15.3795027  11.7590810  36.5712874  21.6581868  16.9777189  37.9904507
  21.4180091  16.1383604  37.9946934  22.1373875  17.0577356  38.7145281
  21.6934052  16.8658589  38.0979310  23.6587055  13.7578646  35.9433767
  23.4196825  13.7174480  35.1054551  23.8220957  14.6049798  36.0699488
  23.6477359  13.8770731  35.8387249  20.2633085  18.1428596  41.8738812
  20.9867284  17.6901122  41.6949832  19.9983048  18.4233261  41.0911140
  20.3314359  18.1179564  41.7317527   5.8445629  20.7989229  40.0495455
   5.3145554  20.1081668  40.0990430   6.1170723  20.7899415  39.2208164
   5.8070352  20.6956361  39.9342871  16.0451875  18.2412474  40.0233827
  15.4308868  17.6970524  40.3182462  16.5619160  17.7276710  39.5439643
  16.0307537  18.0848883  39.9958055  15.2848172  19.3116744  37.7578125
  14.8575780  18.6866462  37.3243561  15.2773117  19.0291666  38.5837133
  15.2207313  19.1769524  37.8157953   8.4010699  14.3481917  40.8266559
   8.5604186  13.5925241  41.2318281   8.2203593  14.8972856  41.4807297
   8.3976058  14.3175731  40.9829265  13.6133882  10.1885498  37.9720659
  13.6376369   9.6545611  37.2833439  13.8645355   9.6802807  38.6346250
  13.6543801  10.0346402  37.9685304  12.0764817  18.4817057  45.4546698
  11.2260447  18.6188771  45.5904343  12.2392945  17.7480835  45.8994400
  11.9748680  18.3931158  45.5402298  11.3149567  15.4316826  39.6500303
  10.4841497  15.5990644  39.4435551  11.2601085  15.0552777  40.4349188
  11.1838982  15.4006558  39.7348831  22.6968399  17.1055006  40.3769361
  23.2886240  17.7452257  40.4087560  23.1327394  16.4078043  40.6661428
  22.8486831  17.0973357  40.4250194  14.5261789  21.5272379  41.0027255
  14.0186880  22.0808226  41.4467886  14.2288435  21.5880669  40.1846030
  14.4066674  21.6178690  40.9475712  16.6923971   9.8925698  39.8451918
  17.1179043   9.4398225  39.2335445  16.0780965   9.3385769  40.1216706
  16.6652617   9.7439675  39.7956944  17.1369570  25.4435636  28.9331199
  16.4198879  25.2696499  28.4678436  17.7876307  25.2088209  28.4006685
  17.1271420  25.3831429  28.7860417  19.7217541  14.3200225  32.6772504
  19.0508731  14.8629927  32.5485570  20.4157291  14.7895080  32.4354199
  19.7246408  14.4698496  32.6228032  13.7704275  26.4596937  37.9084262
  13.5469929  25.7015766  38.2768289  13.2814118  26.4894958  37.1864702
  13.6647724  26.3519162  37.8561003  19.8845668  10.7756109  35.5862877
  20.2373278  10.3485832  36.2608676  19.0260470  10.6906952  35.7163954
  19.8095113  10.7000849  35.7057888  17.8828934  14.0391477  39.5347719
  17.8626861  13.8574772  40.3882498  17.9308135  14.9103496  39.5107303
  17.8863575  14.1408015  39.6571014  15.8275264  20.6278669  45.4596196
  15.7871119  19.9828346  44.8741352  16.6398582  20.5715287  45.7721608
  15.9418417  20.5237636  45.4193145  12.4182731  26.6797395  35.3621347
  12.0043130  26.0171525  34.9725189  13.1030106  26.8275254  34.8417041
  12.4581103  26.6038053  35.2277844  15.7848026  25.8387480  36.1144963
  15.3864309  25.9489751  35.3465784  15.1699245  26.0469547  36.6971523
  15.6346915  25.8861048  36.0876263  11.5152973  14.2575606  42.0145954
  11.0031876  13.6496789  42.3730985  11.3432469  14.9732198  42.4819929
  11.4142610  14.2738905  42.1362177  23.5189868  20.4139447  29.4988054
  23.9023474  21.1630803  29.7286151  22.7233982  20.6605267  29.2400043
  23.4583651  20.5609141  29.4945628  15.3922043  12.1799850  44.4548209
  15.9493473  11.9513660  43.8226675  15.0683108  12.9405516  44.1783422
  15.4268453  12.2583687  44.3204706  13.1105160  15.2667504  45.4200216
  13.8616487  15.5819181  45.7339770  13.3027737  15.0646675  44.5934138
  13.2496574  15.2834886  45.3443612  17.6831302  16.0738572  36.3160219
  18.1784968  15.3561567  36.2764239  16.8731078  15.7709369  36.2014706
  17.6375196  15.9236218  36.2933944  19.7483121  18.8242259  39.0037347
  20.1738193  18.3016681  38.4507772  19.3840041  19.4223097  38.4825970
  19.7569724  18.8352486  38.8446357   9.3837201  27.1206477  37.7634693
   9.6983760  27.9342865  37.7712475   9.7930614  26.7356695  38.4316852
   9.4905299  27.1835179  37.8638785  16.3361721  22.5376524  35.3338505
  16.8072899  23.2516786  35.5028490  16.6721899  21.9375274  35.8698374
  16.4556836  22.5547988  35.4370881  18.4238705  24.1477837  47.5130577
  18.5335671  23.3586398  47.8687324  18.7529602  24.0583773  46.7104915
  18.4891111  24.0183690  47.4472968  16.9735667  22.3294458  42.0966197
  16.4256613  21.7052341  41.8286263  17.4348696  22.5188730  41.3810277
  16.9602877  22.2653508  41.9516629  19.7829531  10.3979812  39.4817390
  19.1992520  10.8989019  39.0694957  20.1033825   9.8909368  38.8481713
  19.7442707  10.3971647  39.3275897   6.7250221  21.0679585  37.4113301
   7.3295079  21.0275419  36.7827122   6.5177534  21.9150737  37.4417357
   6.7839119  21.1867588  37.3229418  16.5393993  23.3345530  38.6275539
  17.3592367  23.1908496  38.8891834  16.2588071  23.9591729  39.1691977
  16.6190737  23.4055882  38.7463478   1.9601504  20.0514203  37.2812224
   1.8625782  19.2410474  37.5902281   2.7430373  20.0305996  36.8958493
   2.0617640  19.9281293  37.2699087  33.0107644  30.9910382  31.5918415
  32.9801648  31.8455019  31.7636684  33.6088993  30.6905675  32.1504559
  33.0944802  31.0726879  31.6993217  26.2107329  30.0786033  36.3471345
  25.3545224  30.2394531  36.3980462  26.2574982  29.2078097  36.3676406
  26.0906440  29.9736835  36.3577411  20.5948468  39.6148751  32.1108577
  19.8431368  39.2364289  31.8824622  21.0434480  39.6467185  31.3627387
  20.5498135  39.5634358  31.9666079  29.5201045  36.3472559  45.9531802
  30.2267812  35.8524590  46.0818736  29.7088981  36.7881640  45.2234460
  29.6528951  36.3390909  45.8640847  26.0473428  40.0374121  27.5394124
  25.7124797  40.7151042  27.1038346  26.5600299  39.6479432  26.9510996
  26.0739009  40.0798699  27.3880916  25.5877719  41.9888389  33.4805236
  25.9717099  42.5575288  32.9410011  25.5236861  41.2637900  33.0011052
  25.6351147  41.9663853  33.3299098  29.0559150  32.1378077  38.9902997
  29.6015110  32.8163164  39.0496967  28.9976026  31.9965538  38.1304579
  29.1275064  32.2170079  38.8715058  22.1733224  39.6267143  34.3771350
  22.2743587  38.8167497  34.6868477  21.5774970  39.5324090  33.7471028
  22.1005763  39.4932171  34.3297588  30.8324218  33.5662684  29.8636725
  30.7163744  34.3170370  30.2928863  31.6280105  33.3086637  30.1132812
  30.9328808  33.6397531  29.9640817  22.0133964  44.5444732  35.7786206
  22.6571420  44.9857896  36.1682364  22.3390220  43.7398159  35.6916464
  22.1565793  44.4909927  35.8231683  15.3698269  35.6487430  34.0023683
  15.1348453  34.8155082  33.8955952  15.5083910  35.9292095  33.1884884
  15.3553931  35.5670933  33.8666038  17.6688356  27.8173160  36.9007991
  17.0493388  27.2265808  36.7318006  17.5672220  28.4084596  36.2672314
  17.5626032  27.8177243  36.7812980  22.7154544  37.5556707  31.1506067
  23.0370385  38.0961915  30.5467375  23.3626640  36.9853479  31.2828357
  22.8580599  37.5515882  31.0813103  24.7656252  29.5572702  31.2340454
  25.4636417  29.7360830  31.7261917  25.0808584  29.0343041  30.6110843
  24.9151589  29.5066474  31.2142464  17.3957489  31.3625442  39.1451560
  17.2716186  31.9487888  39.7801379  18.0475774  30.8685638  39.4463835
  17.4731139  31.3764246  39.2837489  24.9544187  35.9443147  31.2220245
  25.3937823  35.3360248  31.6675018  24.8048850  35.5650521  30.4505710
  24.9965653  35.7981618  31.1739413  22.4215830  34.5387159  38.4239071
  23.0664833  34.0459602  38.1050019  22.6617607  34.6811946  39.2505149
  22.5526415  34.4864601  38.4988604  24.9601922  37.3842065  38.0745964
  25.2425164  36.5893471  37.8532719  25.6888082  37.8622652  38.0951025
  25.1091485  37.3376662  38.0448979  22.9383115  24.9265099  35.3161729
  22.6086445  25.3776242  34.6465427  22.2628117  24.8481262  35.8634735
  22.7893552  24.9816234  35.2984952  28.5553524  34.2970328  28.1751015
  28.4704819  35.1531295  28.3200584  29.0437907  34.0214653  28.8433174
  28.6142421  34.3827650  28.2953096  30.1459523  20.9150622  33.5611339
  29.8312964  21.6054100  33.9931762  29.6286465  20.8595404  32.8596840
  30.0223994  21.0085510  33.5208288  29.4871957  30.9155123  29.6748750
  28.9583428  31.1314756  30.3346056  30.0096977  31.6091261  29.5949719
  29.4860410  31.0498260  29.7604349  34.9420010  36.4901427  35.0481794
  34.1117713  36.7012071  35.2115211  34.8929262  35.6638482  34.7724078
  34.8126745  36.3991033  35.0319160  21.3771565  34.8118339  28.4756218
  20.7928780  35.3168371  28.8822082  20.9741660  34.5860726  27.7352810
  21.2310869  34.8526588  28.4261243  16.9315593  40.5273101  35.2779889
  16.4483172  41.2523590  35.2539473  17.7438912  40.8249231  35.3890047
  16.9806341  40.6775454  35.2907169  23.0029748  39.3205281  37.8829704
  22.4856689  38.9612696  37.2791012  23.7004139  38.7967456  37.8935770
  23.0295329  39.1902969  37.7959962  26.6593339  39.7700095  43.8445877
  26.7476685  39.5826236  44.6924087  27.0883052  39.1237525  43.4450724
  26.7355442  39.6463103  43.9117628  24.2263799  39.0531255  42.8263539
  23.6634634  38.6403865  43.3503200  24.9884823  38.9784161  43.2456682
  24.2558248  38.9808656  42.9656539  25.8348779  31.0583991  26.9525138
  26.0744783  31.2661975  26.1400481  26.1564620  30.2541500  27.0614083
  25.9185937  30.9698093  26.8485691  21.1439070  22.9877387  30.7984676
  21.8985038  23.3555704  30.5601727  20.9666604  23.3616942  31.5663856
  21.2293548  23.0975575  30.8769565  19.7859791  41.0429276  35.4300169
  20.4880370  40.5281266  35.4872926  19.7057274  41.3703428  36.2347044
  19.8783551  41.0143503  35.5572961  34.4373968  29.1371828  38.8432216
  33.6002389  29.2074015  39.0779810  34.4062199  29.1396323  37.9706518
  34.3092251  29.1482055  38.7491764  20.8338697  31.2804863  44.5580584
  21.0059201  31.1710758  45.4065866  21.3708055  31.9259269  44.3211777
  20.9383701  31.3596865  44.6485681  19.4996134  25.3947706  27.4962789
  19.3171707  25.6119587  26.6703782  20.3621747  25.5086719  27.5521404
  19.6000724  25.4437604  27.3817276  19.1110566  37.2335628  34.9385777
  19.9499466  37.4658561  34.9859539  19.1422335  36.3639940  34.8692813
  19.2392284  37.1392575  34.9350422  19.7363269  37.6536504  39.2399083
  20.2761494  37.5107635  39.9102455  19.0533215  38.0533254  39.6083109
  19.7155423  37.6916175  39.3933504  25.1795853  22.3974117  30.5311813
  25.9082014  22.2190072  30.0849969  25.2690746  23.2392197  30.7418991
  25.3002515  22.4957995  30.4965331  29.1604154  33.3327504  34.4344107
  29.9161669  33.7659019  34.4733016  29.2666478  32.6832274  35.0078743
  29.2874325  33.3004988  34.5242133  32.1984325  37.1600782  35.1846510
  31.7619557  37.1637524  35.9405482  31.8647241  37.8406280  34.7526088
  32.0846945  37.2613237  35.2327343  26.7713399  39.2009114  46.5089660
  27.5553815  39.3139962  46.8745403  26.5709993  38.3750251  46.7048346
  26.8579424  39.0955834  46.5924046  15.1400414  33.8736794  39.3933504
  14.8738829  33.0575911  39.5524495  15.1538978  33.9189950  38.5229020
  15.1025137  33.7593699  39.2886986  32.1181808  24.2014609  37.4275938
  32.7607716  24.2712714  38.0137853  32.3704829  23.5343832  36.9255480
  32.2503940  24.1140958  37.4403217  19.0458161  28.6721879  26.0085262
  18.3316338  28.3860058  26.4207695  19.5302130  29.0118505  26.6491650
  19.0117525  28.6803529  26.1640897  19.8899021  27.4115173  42.0400512
  19.1970817  26.9412152  42.2861244  20.5059348  27.1853477  42.6142219
  19.8783551  27.3082305  42.1609665  26.9283792  41.1119216  40.1556116
  26.1299038  40.8718716  40.4129985  27.3769804  41.1633609  40.9023164
  26.8758403  41.0841608  40.3041040  35.3328671  33.8781701  34.0766147
  35.9945105  33.3172370  33.9762056  34.6920083  33.3833732  34.4018838
  35.3357539  33.7218110  34.1098488  26.2205479  37.1751833  26.3847071
  26.6356628  36.8436857  25.6931566  25.3897409  36.9420735  26.2567207
  26.1593488  37.0923089  26.2637918  15.5493828  34.6595574  36.6745249
  15.3669401  34.6342460  35.8217541  16.2843497  35.1294512  36.7134157
  15.6307892  34.7256936  36.5543167  31.6193502  34.8947084  33.8178136
  31.8549091  35.0392283  32.9904987  31.7683066  35.6589492  34.2109650
  31.6759305  35.0286138  33.7541740  18.6139580  31.3780577  43.1827357
  19.3379552  31.3633607  43.6692252  18.7155716  32.0875932  42.6849325
  18.7357789  31.4805280  43.1806144  33.4483959  33.7348750  31.6547740
  33.7792176  34.2676390  31.0487835  34.0217047  33.7887638  32.3109691
  33.5817638  33.8218319  31.6625522  25.9884529  34.8579661  48.0476304
  25.1957510  35.1723173  48.2328924  26.1033456  35.0731130  47.2097089
  25.8879940  34.9363498  47.9514639  28.6615848  31.5813652  32.3371320
  28.7562702  32.3202947  32.7910946  28.0374691  31.1531128  32.7705885
  28.5824878  31.6274973  32.4679468  26.9168322  34.7599865  42.9861601
  27.4907183  34.1227109  43.1410165  26.8383125  34.7603947  42.1171259
  26.9901557  34.6664976  42.8808012  15.5164738  31.5389075  36.8244315
  16.0938241  31.4025525  37.4636560  14.8178800  31.0824859  37.0789899
  15.4985760  31.4511341  36.9566605  28.9138869  33.4262392  25.5708272
  28.8319032  33.4964579  26.4363259  29.5518590  33.9892136  25.3792013
  28.9958707  33.5201363  25.6698222  22.2732040  33.1923130  35.0382798
  22.0151285  32.3594865  35.0114098  22.3280523  33.4180743  34.1975299
  22.2431818  33.1020901  34.9102935  27.3533091  25.2951581  35.1386891
  26.6489417  24.8060766  35.2970810  27.4018065  25.3074055  34.2675335
  27.2563142  25.2241229  35.0326231  21.2466753  30.7460893  35.5247693
  20.6716344  30.9053061  36.1611654  20.8702429  30.1096302  35.0616144
  21.1069565  30.6758706  35.5502251  24.9140041  29.2184242  40.3840072
  24.5254474  28.7938460  39.7292263  24.2494740  29.4666392  40.8917098
  24.7586969  29.1922963  40.3627939  34.5563310  28.9759247  33.1587902
  34.2999875  28.1639188  32.9685784  35.3992624  28.9836814  32.9318089
  34.6429336  28.8571244  33.0972719  10.9923571  30.3900967  33.5392134
  11.0783823  30.0132836  34.3205664  11.6199369  30.0161413  33.0612092
  11.0980122  30.2786450  33.5837611  28.7366403  22.9158871  37.8964056
  29.1176914  22.2337042  38.2831930  27.9329687  22.6268473  37.7139720
  28.6742864  22.7725919  37.9268112  26.0178979  33.4482847  28.5816878
  26.8319618  33.7397739  28.4699650  25.9538121  32.7942709  28.0075171
  26.1281718  33.3948041  28.4805716  32.2388470  36.1308843  42.9946454
  32.0027107  35.2996907  42.8758515  32.8831699  36.0794450  43.5801298
  32.2983140  36.0006531  43.0632348  21.8886888  36.9204364  33.7089191
  22.5260835  36.6816111  34.2540984  22.3141959  37.1241523  32.9742351
  22.0463054  36.9155374  33.6806348  16.5799530  39.1592700  37.5923494
  16.6203675  39.4307552  36.7643274  17.1394054  39.6834609  38.0081282
  16.6682876  39.2768456  37.5315383  22.5289703  32.1406654  28.0464080
  22.9134855  31.9214360  28.7980625  22.2801323  32.9669599  28.1765156
  22.5491775  32.2304800  28.1765156  22.6958243  25.4213069  47.7626664
  22.3811684  26.1912632  47.4996227  22.3748176  24.8583325  47.1778891
  22.6017162  25.4523338  47.6368014  33.2624890  35.9153291  39.0574749
  32.9570707  36.6481348  39.4188064  32.5431106  35.5091221  38.7767535
  33.1112233  35.9635024  39.0687886  24.2708360  37.3976787  35.3882977
  24.3447368  37.2351958  36.2424827  25.0877866  37.5866976  35.1443458
  24.4024718  37.4013529  35.4781002  38.9626682  32.5546292  38.3843093
  38.8951183  32.5742251  37.5145679  38.9482345  33.3976619  38.6098763
  38.9505439  32.6820027  38.2895570  18.0314116  37.7434649  32.4177420
  17.2052234  37.9896387  32.2911699  18.0926108  37.6646730  33.2839478
  17.9188283  37.7679598  32.5266365  20.2490140  23.8103590  33.3772860
  19.3812566  23.8826190  33.4430470  20.5365344  24.6125669  33.5660836
  20.1629888  23.9397738  33.4147627  29.3723029  23.9581450  41.7084182
  30.1176621  23.7691260  41.2947608  28.9560333  24.4839688  41.1498039
  29.4208003  24.0083595  41.5648756  22.8112945  40.3611530  30.1196450
  23.1011244  39.9700511  29.3955677  23.5416426  40.5428235  30.5601726
  22.9619830  40.3305343  30.0779257  36.7485300  31.3290678  36.6589687
  37.2993221  30.6958747  36.8986779  36.7329415  31.8606071  37.3505192
  36.8270496  31.3139626  36.7968545  23.4007691  35.1629276  41.2049581
  22.9019384  35.8745043  41.2834469  24.2107915  35.4829942  41.1667743
  23.4463797  35.3156124  41.2106149  20.7518861  42.3378912  33.1856600
  20.5319156  42.0476267  33.9783267  20.5313383  41.6793867  32.6574512
  20.6866455  42.1978620  33.2245509  19.6635808  34.4252229  35.4512302
  19.3749057  33.7989700  35.9858029  20.5319156  34.3672516  35.5176982
  19.7496060  34.3239773  35.5403256  30.4513706  29.5687012  35.7694283
  30.1078472  28.8477347  36.1201533  30.5506748  29.3600863  34.9272642
  30.4155749  29.4311215  35.6965964  22.9186817  43.7108302  31.9687292
  23.5710875  43.1784744  32.1978318  22.2212425  43.3576954  32.3555166
  22.9117535  43.5797825  32.0599460  19.8668082  36.0647480  31.3754667
  20.6214050  36.4460519  31.5890129  19.2738694  36.5158623  31.8301363
  19.8904795  36.1876307  31.4737545  30.9126735  36.0312716  31.3118272
  31.4784768  36.6905926  31.2276815  30.2654638  36.3762414  31.7834674
  30.9005491  36.1794657  31.3691028  22.3274749  28.0210320  46.5011879
  21.5174524  28.3268100  46.3901721  22.8049435  28.7415902  46.6164463
  22.2778227  28.1724921  46.5018950  21.1866308  37.2356041  36.7494782
  20.6647062  37.3756333  37.4346647  21.5740328  36.4766705  36.9396899
  21.1670009  37.1441565  36.8795859  18.1757492  27.2861850  30.8189737
  17.8882288  26.9163120  30.0821684  18.8627960  27.7556705  30.5573442
  18.2346389  27.3008819  30.6704812  27.3833313  38.9751500  30.7355351
  27.1419989  38.2419361  30.3282416  27.5634646  39.5238357  30.0821684
  27.3740937  38.9473891  30.5785574  22.6132634  34.2660060  32.1476273
  22.4175416  34.8734795  31.5536576  22.8366979  33.5728004  31.6667947
  22.6167275  34.2537586  31.9892354  21.0111164  31.1514798  32.2657141
  21.7333816  31.3155956  31.8060947  20.5319157  31.8724463  32.1596481
  21.0474894  31.2813027  32.1822755  28.9704671  27.4878597  37.6453826
  28.1315772  27.5139876  37.4092090  29.0409039  28.1349332  38.2259173
  28.8573065  27.5874723  37.6962943  18.6618780  33.5572870  41.3711281
  19.1739877  33.8357124  40.7220041  18.3755123  34.2962164  41.7374094
  18.6953644  33.7075224  41.3301159  27.4173950  24.3863974  32.3781442
  28.1200302  24.1871722  31.9001401  27.1518138  23.6139916  32.6850286
  27.4820582  24.2426940  32.3526884  32.8462195  32.6946583  34.9315068
  32.7596170  32.8502010  35.7849847  32.3912675  33.3384659  34.5574473
  32.7665452  32.8122339  35.0022175  15.7485687  28.0643062  31.6675018
  15.8501823  28.8669224  31.9955993  16.5441574  27.8630398  31.3698098
  15.8813592  28.1528961  31.6710373  22.1802506  25.6499259  41.4312323
  21.9885703  25.6654393  42.2811746  23.0301102  25.8462933  41.4078978
  22.2778228  25.6813610  41.5535618  16.5649419  28.1790240  39.4096139
  16.4234911  27.3274181  39.5340647  16.8489982  28.2218901  38.5858345
  16.5857265  28.0589990  39.3063763  26.7188011  30.0157331  33.5540628
  26.4722726  29.9353082  34.3877417  27.0473134  29.2310798  33.3603155
  26.7309255  29.8883596  33.6488151  30.6136060  36.7240690  37.3427409
  30.4750419  37.4221736  37.8476151  29.8336058  36.5689346  36.9863591
  30.4779287  36.8040857  37.3653683  28.9514145  33.0237065  43.5949791
  28.9462184  32.1516882  43.5992217  29.6575139  33.2225234  43.1219246
  29.0559149  32.9240939  43.5256826  22.6785039  32.7514049  42.9663611
  22.8228414  33.3315257  42.3306721  23.0260687  33.1290346  43.6713465
  22.7512500  32.8934753  42.9762606  24.8504956  31.9504218  40.7488742
  24.1028270  32.1435232  40.3437020  25.0046481  31.1249437  40.5112864
  24.7627383  31.8569329  40.6534148  21.7512793  40.9416821  39.8324638
  21.9002357  40.3819737  39.1798042  22.5312796  41.0208823  40.2157156
  21.8886887  40.8702386  39.7921587  32.1089433  36.0818944  28.1043908
  31.7296242  35.2956082  28.0973197  31.4455678  36.6305801  27.9615552
  31.9547908  36.0463768  28.0824705  24.2766094  41.1131464  41.1109128
  24.2009765  40.4440274  41.6659917  24.2055953  41.8149252  41.6249795
  24.2546701  41.1176371  41.2685976  25.0906733  25.8454768  41.6384146
  25.5479347  26.5778743  41.7656938  25.1663062  25.4221234  42.3971402
  25.1697703  25.8912006  41.7685223  17.3339724  26.0920588  42.7273590
  16.7981914  25.4800946  43.0434357  17.3957489  26.6668724  43.3807256
  17.2635357  26.0867516  42.8709016  29.5634059  19.0244643  35.5077989
  29.6817627  19.4821107  34.7745292  29.3896235  18.2189905  35.2214207
  29.5553230  18.9738416  35.3578923  24.9336341  39.6332463  31.9432734
  25.6986232  39.3642106  31.6215399  24.8314431  39.1482473  32.6602797
  25.0317837  39.5222027  32.0012562  22.9689111  27.8356872  38.4825970
  22.1785186  27.6548332  38.8043306  23.3649734  27.0583825  38.4656265
  22.9105987  27.6944333  38.5278518  27.4555002  36.6644647  23.9232684
  28.2227987  36.7244771  23.5138535  27.0086311  36.0925088  23.4389002
  27.5028429  36.5881222  23.7910394  28.3532797  35.4699302  36.2085416
  27.6777799  35.2384535  36.7098803  28.3625173  34.8620485  35.5827521
  28.2551302  35.3458228  36.1901568  25.4826941  30.3117131  42.9649469
  25.4186082  31.1727088  42.8369606  25.6224129  29.9949125  42.1645020
  25.4942411  30.3917298  42.8277682  30.3549532  38.3264435  28.4395594
  30.4369369  39.1331421  28.1157045  30.8399274  38.3460394  29.1636367
  30.4386690  38.4485097  28.4982493  24.1646035  33.0049271  37.1065672
  23.7408284  33.2053770  36.3704690  23.9890890  32.1578119  37.2189972
  24.0756916  32.9098052  37.0139362  23.6657728  44.5199784  39.5687129
  24.1553659  43.8210573  39.3862794  23.0941961  44.2223654  40.1563187
  23.6542258  44.3726007  39.6288170  19.4528480  33.5001322  32.5393644
  19.6093099  33.4348125  33.3949636  19.7929073  34.2749875  32.3272324
  19.5261715  33.6050520  32.6348239  25.9907625  32.8759206  31.4087008
  26.5323170  32.3729587  31.8725628  26.3054184  32.8224400  30.5976493
  26.1172022  32.7938627  31.3570820  29.8624732  37.0861853  48.5213920
  30.6759597  36.8147002  48.6819052  29.7019698  36.7869393  47.7174116
  29.9594680  37.0016779  48.4259326  24.1594074  38.2676557  28.6927036
  24.2286895  37.4091096  28.8320036  24.9382529  38.4848438  28.3646060
  24.2846924  38.1729421  28.6644193  27.1396894  27.7695510  41.4609308
  27.3538864  27.1306424  40.9072662  26.5230793  28.2141334  41.0317170
  27.0802223  27.7405654  41.3159739  28.5501562  40.6914258  32.9063529
  28.1581354  40.3880974  32.1886395  28.7054634  41.5283348  32.7168483
  28.5155152  40.7698095  32.7720026  16.0262741  30.6836273  32.8554412
  16.4061706  31.1020818  32.1914679  15.4518106  31.2649728  33.1623255
  15.9974066  30.8314131  32.8031153  29.3035982  29.3784575  42.3992615
  28.4912664  29.0710466  42.4805788  29.7625917  28.8983576  42.9635327
  29.2516367  29.2621068  42.4947209  28.7141237  37.2564247  32.8469560
  28.3555891  37.4278890  33.6233592  28.2279947  37.7177453  32.2897558
  28.5899934  37.3503218  32.8794829  26.5311623  20.8795446  36.4496651
  25.6605181  20.8534167  36.4029960  26.7851964  20.7072638  35.6322497
  26.4405183  20.8505590  36.3216788  23.5029602  32.9363413  25.3869794
  23.7922127  33.7128295  25.6613368  23.5901401  32.4252144  26.0884293
  23.5583858  32.9755331  25.5312292  26.3989489  30.7844647  47.1821317
  26.8689121  31.4086763  47.5689192  26.4451370  30.1161622  47.7414532
  26.4757365  30.7779327  47.3221389  23.5560763  22.8901674  37.9070121
  23.0399252  22.1981866  38.0321700  22.9954692  23.5572451  37.8532720
  23.3967276  22.8864932  37.9176187  25.6252997  23.4294634  39.7362974
  25.2384750  23.4543666  40.5176504  25.1385934  22.8636313  39.2837490
  25.4965505  23.3490385  39.7850878  29.8745976  38.1468143  43.7936760
  30.5125696  37.6528339  43.4599216  29.2320068  38.0745544  43.2088987
  29.8740203  38.0627152  43.6579115  31.6002976  29.9957289  38.3602676
  31.1730584  29.9083638  37.6050776  30.9629029  30.1035065  38.9457520
  31.4432583  29.9989949  38.3348118  25.2910138  20.3161620  42.0273234
  25.9203256  20.8521920  41.7494304  25.4596001  20.2238979  42.8786799
  25.4087933  20.3822982  42.1121762  25.0924053  25.1032815  44.2999645
  25.9197482  24.8317963  44.3558260  25.1131899  25.8993656  44.6563463
  25.2176903  25.1812569  44.3614828  29.9300233  38.8387952  40.4342117
  30.7192611  38.4877016  40.5544199  30.1043830  39.6524340  40.1718751
  30.0720514  38.9073809  40.4129985  19.6693543  32.2496677  37.4869906
  18.8281550  32.1500551  37.6948800  19.8783551  33.0192158  37.8384227
  19.5758236  32.3488721  37.5697221  17.1469110  29.8716214  35.3154657
  16.7525808  29.9459226  34.5404766  16.5909227  30.2574161  35.8663018
  17.0071922  29.9397989  35.2822316  28.7834057  22.8497508  34.9958536
  28.9883650  22.7819816  35.8415533  28.4560481  23.6556330  34.9279713
  28.7649305  22.9583449  35.1118191  23.4810208  30.1778077  36.7367504
  23.1773345  29.6234065  37.3377911  22.7789629  30.3570286  36.2495538
  23.3326418  30.1222859  36.7537209  22.5376305  27.4878596  31.3012205
  22.8136039  26.7697509  30.8889773  23.1374974  28.0863516  31.0933311
  22.6669570  27.4698967  31.2092967  21.5428559  37.3927797  41.4439601
  21.4348914  37.4029859  42.3101659  21.7524340  38.2182578  41.2544555
  21.5578670  37.5168872  41.5443693  32.0367744  23.4029273  34.4761301
  31.4242058  23.8899675  34.8615033  32.1331919  22.7272763  35.0198952
  31.9605642  23.3747581  34.6140159  26.0386825  25.1592114  29.5758800
  26.4930572  25.3302674  30.3006645  26.5126871  24.5460224  29.1756576
  26.1755146  25.0942999  29.6232562  19.5602351  34.6440440  38.9061539
  18.9690284  35.2849938  38.8764554  20.3223374  35.0678057  38.8792838
  19.5850611  34.8016278  38.8976686  19.9562974  25.8042437  39.5729556
  20.4164455  25.8781367  40.3104680  20.0019080  26.6023691  39.2229378
  20.0313529  25.9336584  39.6302313  21.6046323  26.4709132  44.1401584
  21.2131889  25.8242479  44.5757361  21.7732186  27.0620568  44.7595839
  21.5717234  26.4623400  44.2964290  35.6792772  34.4746209  39.9038817
  35.7375896  34.9232858  40.6498794  35.0459240  34.8845022  39.4668897
  35.5944068  34.6019944  39.9491365  29.3191867  40.0949751  36.3393563
  29.1211556  40.5840566  35.6449775  28.6979578  40.2990993  36.9177697
  29.1979432  40.1966289  36.3216787  23.3799845  31.8634648  30.6803808
  24.1241890  32.2508924  30.9186758  23.5260542  31.0192073  30.8444295
  23.5110431  31.7965121  30.7397777  25.2979421  23.6584907  35.7135669
  24.4515466  23.8307715  35.5877019  25.2950553  22.8534251  36.0501497
  25.1726571  23.5645936  35.7446796  26.3677721  27.4360121  36.5797727
  25.8937676  26.9101883  37.0903038  26.7395857  26.8889594  36.0112588
  26.3527610  27.2776118  36.5712874  16.7450751  29.4331628  41.9481273
  17.6076364  29.3327337  41.8618603  16.4142534  28.8526337  41.3866845
  16.8235948  29.3323255  41.8526679  32.6314452  32.4962497  37.9904507
  32.3912675  31.6568912  37.9946934  33.1106459  32.5762664  38.7145281
  32.6666636  32.3843897  38.0979310  28.2961221  28.3296676  29.6423481
  27.7684240  28.4125420  28.9529190  28.7556929  29.0714547  29.6388125
  28.2863071  28.4517338  29.5398176  34.6319639  29.2763954  35.9433767
  34.3929409  29.2359788  35.1054551  34.7953540  30.1235106  36.0699488
  34.6209942  29.3956039  35.8387249  31.2365669  33.6613903  41.8738812
  31.9599868  33.2086430  41.6949832  30.9715631  33.9418569  41.0911140
  31.3046942  33.6364872  41.7317527  20.1052537  28.2574077  38.6091691
  19.4805608  28.2692469  38.0017644  19.7698132  28.7334252  39.2582931
  19.9638029  28.3292594  38.6148259  16.8178213  36.3174537  40.0495455
  16.2878137  35.6266976  40.0990430  17.0903306  36.3084722  39.2208164
  16.7802935  36.2141669  39.9342871  27.8498303  36.9000239  28.7733138
  28.5732502  37.3658352  28.6297711  27.4098894  36.9673849  28.0230735
  27.8913996  36.9784076  28.6417919  27.0184459  33.7597782  40.0233827
  26.4041452  33.2155832  40.3182462  27.5351743  33.2462018  39.5439643
  27.0040121  33.6034191  39.9958055  26.2580756  34.8302052  37.7578125
  25.8308364  34.2051770  37.3243561  26.2505700  34.5476974  38.5837133
  26.1939897  34.6954832  37.8157953  19.3743283  29.8667225  40.8266559
  19.5336770  29.1110549  41.2318281  19.1936176  30.4158164  41.4807297
  19.3708642  29.8361039  40.9829265  27.3163586  22.0328460  41.3817349
  26.8204147  22.2292135  40.6908916  28.0732648  22.4321129  41.2106151
  27.3550410  22.1206194  41.2537486  24.5866465  25.7070806  37.9720659
  24.6108953  25.1730919  37.2833439  24.8377939  25.1988115  38.6346250
  24.6276384  25.5531710  37.9685304  12.0974055  32.9902301  37.4063803
  11.9917504  32.9449146  36.5415888  11.3474275  33.3356082  37.6878088
  11.9709658  33.0343209  37.3201133  20.8667788  24.4341625  37.3526404
  20.9066159  24.9350831  38.0661111  20.0417452  24.5252018  37.0832327
  20.7507314  24.5223441  37.4176942  23.0497401  34.0002365  45.4546698
  22.1993031  34.1374079  45.5904343  23.2125528  33.2666143  45.8994400
  22.9481264  33.9116466  45.5402298  22.2882151  30.9502134  39.6500303
  21.4574081  31.1175952  39.4435551  22.2333668  30.5738085  40.4349188
  22.1571566  30.9191866  39.7348831  20.0965934  24.4411027  45.2856713
  20.7218638  23.8973160  45.5586146  19.6416414  23.9605945  44.7164504
  20.1214195  24.2900509  45.2418307  20.6618195  29.2257726  30.1790420
  20.8021156  29.7230190  30.8819062  21.1600728  28.5244020  30.3204634
  20.7559276  29.1959705  30.3041999  20.6918417  30.0924837  27.5082997
  21.3263497  30.6885262  27.4432459  20.7744028  29.7928295  28.3228867
  20.7974968  30.1365745  27.6186084  33.6700983  32.6240314  40.3769361
  34.2618823  33.2637565  40.4087560  34.1059978  31.9263351  40.6661428
  33.8219414  32.6158665  40.4250194  22.2697400  26.0238812  27.4828439
  22.5913241  25.5441895  26.8287702  22.5324344  26.8338458  27.2919251
  22.3563425  26.0728710  27.3583931  25.4994373  37.0457687  41.0027255
  24.9919464  37.5993534  41.4467886  25.2021019  37.1065977  40.1846030
  25.3799258  37.1363998  40.9475712  27.6656555  25.4111006  39.8451918
  28.0911627  24.9583533  39.2335445  27.0513548  24.8571077  40.1216706
  27.6385200  25.2624983  39.7956944  17.1971405  32.2892678  30.7772543
  17.7063634  32.8857185  31.1583849  17.6705677  32.0218651  30.0948963
  17.3414781  32.3378493  30.7327066  28.1102153  40.9620944  28.9331199
  27.3931463  40.7881807  28.4678436  28.7608891  40.7273517  28.4006685
  28.1004004  40.9016737  28.7860417  26.1050778  21.8826106  33.2542495
  25.4619096  21.7323752  33.8227634  25.7650185  21.6368451  32.4891600
  25.9595855  21.8238229  33.2245511  30.6950124  29.8385533  32.6772504
  30.0241314  30.3815235  32.5485570  31.3889875  30.3080388  32.4354199
  30.6978992  29.9883804  32.6228032  24.7436858  41.9782245  37.9084262
  24.5202513  41.2201074  38.2768289  24.2546701  42.0080266  37.1864702
  24.6380307  41.8704469  37.8561003  30.8578252  26.2941417  35.5862877
  31.2105862  25.8671139  36.2608676  29.9993053  26.2092260  35.7163954
  30.7827696  26.2186157  35.7057888  19.5561937  28.9248936  33.6445724
  18.8373926  29.3413069  33.9118587  19.9274299  29.4903175  33.0937362
  19.5053869  29.0698218  33.6028531  28.8561518  29.5576785  39.5347719
  28.8359445  29.3760080  40.3882498  28.9040718  30.4288804  39.5107303
  28.8596159  29.6593323  39.6571014  26.8007848  36.1463977  45.4596196
  26.7603702  35.5013654  44.8741352  27.6131166  36.0900595  45.7721608
  26.9151001  36.0422944  45.4193145  23.3915315  42.1982703  35.3621347
  22.9775714  41.5356833  34.9725189  24.0762689  42.3460562  34.8417041
  23.4313687  42.1223361  35.2277844  26.7580609  41.3572788  36.1144963
  26.3596892  41.4675059  35.3465784  26.1431829  41.5654855  36.6971523
  26.6079498  41.4046356  36.0876263  25.3308511  27.9646936  28.9819103
  24.7373350  28.2863933  28.4303670  25.3683789  27.1188032  28.7740209
  25.2482900  27.8871264  28.8701874  32.2902312  21.4159828  36.5147190
  31.7833177  20.7088968  36.4468367  33.0869746  21.0853017  36.6448266
  32.3329551  21.2632980  36.5246185  28.2066328  27.9226441  32.4120853
  27.9780021  27.9459142  31.5699212  28.4664404  27.0983908  32.5315864
  28.2112516  27.8042521  32.3046051  22.4885556  29.7760914  42.0145954
  21.9764459  29.1682097  42.3730985  22.3165052  30.4917506  42.4819929
  22.3875193  29.7924213  42.1362177  17.3351271  28.2198489  44.6648315
  17.1653861  28.8799864  44.1196522  16.8917221  28.4305050  45.3860805
  17.2450605  28.3484471  44.6909945  21.2611090  26.4602987  33.7075049
  21.7368457  26.8220067  33.0725230  20.7599690  27.1159455  33.9875192
  21.2576449  26.6097176  33.6551790  34.4922452  35.9324755  29.4988054
  34.8756058  36.6816111  29.7286151  33.6966565  36.1790575  29.2400043
  34.4316234  36.0794449  29.4945628  26.3654627  27.6985158  44.4548209
  26.9226057  27.4698968  43.8226675  26.0415692  28.4590824  44.1783422
  26.4001037  27.7768995  44.3204706  14.2353335  31.1245355  39.9236805
  13.6880055  30.4546000  40.0417674  15.0245714  30.7575202  39.9880273
  14.2705519  30.9710341  39.9505506  24.0837744  30.7852812  45.4200216
  24.8349071  31.1004488  45.7339770  24.2760320  30.5831983  44.5934138
  24.2229158  30.8020193  45.3443612  23.3037743  28.6044187  27.0748433
  23.6836708  28.6223816  26.2899548  22.5630339  29.0498176  26.9539280
  23.2506581  28.6725961  26.9412001  30.9323034  26.9126378  32.6624012
  30.9317260  26.7575035  33.5208288  30.7279214  27.7589365  32.6065397
  30.9022812  27.0146999  32.7811951  12.9940305  30.3366162  37.0782828
  12.8162066  29.8842771  37.8037744  12.7059327  31.1392324  37.2621306
  12.9253258  30.3888720  37.2126331  28.6563886  31.5923880  36.3160219
  29.1517551  30.8746875  36.2764239  27.8463662  31.2894677  36.2014706
  28.6107779  31.4421526  36.2933944  24.1022498  35.4421693  28.4657223
  23.2933820  35.1188367  28.4190533  24.6097406  34.7354915  28.3985472
  24.0572164  35.2903009  28.4487517  14.7312775  32.8693886  34.1904587
  13.8658294  32.8579577  34.0787359  14.8311591  32.6824109  35.0375727
  14.6186942  32.8399947  34.2993532  30.7215705  34.3427567  39.0037347
  31.1470776  33.8201989  38.4507772  30.3572625  34.9408405  38.4825970
  30.7302307  34.3537794  38.8446357  20.3569785  42.6391785  37.7634693
  20.6716344  43.4528173  37.7712475  20.7663198  42.2542003  38.4316852
  20.4637883  42.7020487  37.8638785  27.3094304  38.0561832  35.3338505
  27.7805483  38.7702094  35.5028490  27.6454483  37.4560582  35.8698374
  27.4289419  38.0733296  35.4370881  29.3971289  39.6663145  47.5130577
  29.5068254  38.8771705  47.8687324  29.7262186  39.5769081  46.7104915
  29.4623695  39.5368998  47.4472968  24.2263799  22.8289302  42.2896600
  24.3591705  22.0320296  42.6177575  24.6108952  23.3555705  42.8694875
  24.3020128  22.7889219  42.4240103  27.9468251  37.8479766  42.0966197
  27.3989197  37.2237649  41.8286263  28.4081279  38.0374038  41.3810277
  27.9335460  37.7838816  41.9516629  27.2996154  19.7519628  38.8877693
  26.4942118  19.6417358  39.2045531  27.1702890  19.8532084  38.0307559
  27.1616287  19.7503298  38.8085733  30.7562115  25.9165120  39.4817390
  30.1725104  26.4174327  39.0694957  31.0766409  25.4094676  38.8481713
  30.7175290  25.9156955  39.3275897  23.2956914  24.8305715  29.7576065
  24.1172609  25.0004028  29.5157759  22.8326565  24.9852976  29.0342362
  23.3488076  24.8787448  29.6147709  21.8852246  22.8248477  40.5374493
  22.4296659  22.4839604  41.1278835  21.9389182  23.6833939  40.6795778
  21.9741365  22.9003737  40.6456367  17.6982805  36.5864893  37.4113301
  18.3027662  36.5460727  36.7827122  17.4910117  37.4336045  37.4417357
  17.7571702  36.7052896  37.3229418  27.5126577  38.8530838  38.6275539
  28.3324951  38.7093804  38.8891834  27.2320655  39.4777037  39.1691977
  27.5923320  38.9241190  38.7463478  12.9334087  35.5699511  37.2812224
  12.8358365  34.7595782  37.5902281  13.7162957  35.5491304  36.8958493
  13.0350224  35.4466601  37.2699087  43.9840227  46.5095690  31.5918415
  43.9534232  47.3640327  31.7636684  44.5821576  46.2090983  32.1504559
  44.0677385  46.5912187  31.6993217  37.1839912  45.5971341  36.3471345
  36.3277808  45.7579839  36.3980462  37.2307566  44.7263405  36.3676406
  37.0639024  45.4922143  36.3577411  31.5681052  55.1334059  32.1108577
  30.8163951  54.7549597  31.8824622  32.0167064  55.1652493  31.3627387
  31.5230719  55.0819666  31.9666079  40.4933629  51.8657867  45.9531802
  41.2000396  51.3709897  46.0818736  40.6821564  52.3066948  45.2234460
  40.6261534  51.8576217  45.8640847  37.0206012  55.5559428  27.5394124
  36.6857380  56.2336350  27.1038346  37.5332882  55.1664740  26.9510996
  37.0471593  55.5984007  27.3880916  36.5610303  57.5073697  33.4805236
  36.9449682  58.0760596  32.9410011  36.4969444  56.7823207  33.0011052
  36.6083730  57.4849161  33.3299098  40.0291733  47.6563385  38.9902997
  40.5747693  48.3348472  39.0496967  39.9708610  47.5150846  38.1304579
  40.1007648  47.7355387  38.8715058  33.1465808  55.1452451  34.3771350
  33.2476171  54.3352805  34.6868477  32.5507553  55.0509398  33.7471028
  33.0738347  55.0117479  34.3297588  41.8056802  49.0847992  29.8636725
  41.6896328  49.8355678  30.2928863  42.6012689  48.8271945  30.1132812
  41.9061391  49.1582839  29.9640817  32.9866548  60.0630040  35.7786206
  33.6304003  60.5043204  36.1682364  33.3122803  59.2583466  35.6916464
  33.1298376  60.0095235  35.8231683  26.3430852  51.1672738  34.0023683
  26.1081037  50.3340390  33.8955952  26.4816493  51.4477403  33.1884884
  26.3286515  51.0856241  33.8666038  28.6420940  43.3358468  36.9007991
  28.0225971  42.7451116  36.7318006  28.5404803  43.9269903  36.2672314
  28.5358615  43.3362551  36.7812980  33.6887127  53.0742015  31.1506067
  34.0102968  53.6147222  30.5467375  34.3359224  52.5038787  31.2828357
  33.8313183  53.0701190  31.0813103  35.7388835  45.0758010  31.2340454
  36.4369000  45.2546138  31.7261917  36.0541168  44.5528349  30.6110843
  35.8884173  45.0251782  31.2142464  28.3690073  46.8810750  39.1451560
  28.2448770  47.4673195  39.7801379  29.0208357  46.3870946  39.4463835
  28.4463722  46.8949554  39.2837489  35.9276771  51.4628455  31.2220245
  36.3670406  50.8545556  31.6675018  35.7781434  51.0835828  30.4505710
  35.9698237  51.3166926  31.1739413  33.3948414  50.0572467  38.4239071
  34.0397416  49.5644910  38.1050019  33.6350191  50.1997254  39.2505149
  33.5258999  50.0049909  38.4988604  35.9334505  52.9027373  38.0745964
  36.2157748  52.1078779  37.8532719  36.6620666  53.3807960  38.0951025
  36.0824069  52.8561970  38.0448979  33.9115699  40.4450407  35.3161729
  33.5819029  40.8961550  34.6465427  33.2360701  40.3666570  35.8634735
  33.7626135  40.5001542  35.2984952  39.5286107  49.8155636  28.1751015
  39.4437402  50.6716603  28.3200584  40.0170491  49.5399960  28.8433174
  39.5875005  49.9012958  28.2953096  41.1192107  36.4335930  33.5611339
  40.8045548  37.1239408  33.9931762  40.6019048  36.3780712  32.8596840
  40.9956577  36.5270818  33.5208288  40.4604541  46.4340431  29.6748750
  39.9316012  46.6500064  30.3346056  40.9829561  47.1276569  29.5949719
  40.4592994  46.5683567  29.7604349  45.9152594  52.0086735  35.0481794
  45.0850297  52.2197379  35.2115211  45.8661846  51.1823790  34.7724078
  45.7859329  51.9176341  35.0319160  32.3504148  50.3303647  28.4756218
  31.7661364  50.8353679  28.8822082  31.9474244  50.1046034  27.7352810
  32.2043452  50.3711896  28.4261243  27.9048177  56.0458408  35.2779889
  27.4215755  56.7708898  35.2539473  28.7171495  56.3434539  35.3890047
  27.9538925  56.1960762  35.2907169  33.9762331  54.8390589  37.8829704
  33.4589273  54.4798004  37.2791012  34.6736722  54.3152764  37.8935770
  34.0027912  54.7088277  37.7959962  37.6325923  55.2885403  43.8445877
  37.7209269  55.1011544  44.6924087  38.0615636  54.6422833  43.4450724
  37.7088025  55.1648411  43.9117628  35.1996383  54.5716563  42.8263539
  34.6367218  54.1589173  43.3503200  35.9617406  54.4969469  43.2456682
  35.2290831  54.4993964  42.9656539  36.8081363  46.5769299  26.9525138
  37.0477367  46.7847283  26.1400481  37.1297204  45.7726808  27.0614083
  36.8918521  46.4883401  26.8485691  32.1171653  38.5062695  30.7984676
  32.8717621  38.8741012  30.5601727  31.9399188  38.8802250  31.5663856
  32.2026131  38.6160883  30.8769565  30.7592374  56.5614584  35.4300169
  31.4612954  56.0466573  35.4872926  30.6789857  56.8888736  36.2347044
  30.8516135  56.5328811  35.5572961  45.4106552  44.6557136  38.8432216
  44.5734973  44.7259323  39.0779810  45.3794783  44.6581630  37.9706518
  45.2824834  44.6667363  38.7491764  31.8071281  46.7990171  44.5580584
  31.9791785  46.6896066  45.4065866  32.3440638  47.4444577  44.3211777
  31.9116285  46.8782173  44.6485681  30.4728718  40.9133014  27.4962789
  30.2904291  41.1304895  26.6703782  31.3354331  41.0272027  27.5521404
  30.5733307  40.9622912  27.3817276  30.0843150  52.7520936  34.9385777
  30.9232049  52.9843869  34.9859539  30.1154919  51.8825248  34.8692813
  30.2124867  52.6577883  34.9350422  30.7095853  53.1721812  39.2399083
  31.2494078  53.0292943  39.9102455  30.0265799  53.5718562  39.6083109
  30.6888007  53.2101482  39.3933504  36.1528437  37.9159425  30.5311813
  36.8814597  37.7375380  30.0849969  36.2423330  38.7577505  30.7418991
  36.2735099  38.0143303  30.4965331  40.1336738  48.8512812  34.4344107
  40.8894253  49.2844327  34.4733016  40.2399062  48.2017582  35.0078743
  40.2606908  48.8190296  34.5242133  43.1716909  52.6786089  35.1846510
  42.7352141  52.6822832  35.9405482  42.8379824  53.3591588  34.7526088
  43.0579529  52.7798545  35.2327343  37.7445982  54.7194422  46.5089660
  38.5286399  54.8325270  46.8745403  37.5442577  53.8935559  46.7048346
  37.8312008  54.6141142  46.5924046  26.1132998  49.3922102  39.3933504
  25.8471413  48.5761219  39.5524495  26.1271562  49.4375258  38.5229020
  26.0757720  49.2779007  39.2886986  43.0914392  39.7199917  37.4275938
  43.7340300  39.7898022  38.0137853  43.3437412  39.0529140  36.9255480
  43.2236524  39.6326266  37.4403217  30.0190745  44.1907187  26.0085262
  29.3048922  43.9045366  26.4207695  30.5034713  44.5303813  26.6491650
  29.9850108  44.1988836  26.1640897  30.8631604  42.9300481  42.0400512
  30.1703401  42.4597460  42.2861244  31.4791931  42.7038785  42.6142219
  30.8516134  42.8267612  42.1609665  37.9016376  56.6304524  40.1556116
  37.1031621  56.3904024  40.4129985  38.3502387  56.6818917  40.9023164
  37.8490987  56.6026915  40.3041040  46.3061255  49.3967009  34.0766147
  46.9677689  48.8357678  33.9762056  45.6652667  48.9019040  34.4018838
  46.3090122  49.2403418  34.1098488  37.1938063  52.6937141  26.3847071
  37.6089211  52.3622165  25.6931566  36.3629992  52.4606043  26.2567207
  37.1326071  52.6108397  26.2637918  26.5226411  50.1780882  36.6745249
  26.3401985  50.1527768  35.8217541  27.2576080  50.6479820  36.7134157
  26.6040475  50.2442244  36.5543167  42.5926086  50.4132392  33.8178136
  42.8281675  50.5577591  32.9904987  42.7415649  51.1774800  34.2109650
  42.6491889  50.5471446  33.7541740  29.5872163  46.8965885  43.1827357
  30.3112135  46.8818915  43.6692252  29.6888300  47.6061240  42.6849325
  29.7090372  46.9990588  43.1806144  44.4216542  49.2534058  31.6547740
  44.7524759  49.7861698  31.0487835  44.9949630  49.3072945  32.3109691
  44.5550222  49.3403627  31.6625522  36.9617113  50.3764969  48.0476304
  36.1690093  50.6908481  48.2328924  37.0766040  50.5916438  47.2097089
  36.8612523  50.4548806  47.9514639  39.6348431  47.0998960  32.3371320
  39.7295286  47.8388254  32.7910946  39.0107275  46.6716436  32.7705885
  39.5557462  47.1460281  32.4679468  37.8900905  50.2785173  42.9861601
  38.4639767  49.6412417  43.1410165  37.8115709  50.2789255  42.1171259
  37.9634140  50.1850284  42.8808012  26.4897322  47.0574382  36.8244315
  27.0670824  46.9210833  37.4636560  25.7911384  46.6010167  37.0789899
  26.4718343  46.9696649  36.9566605  39.8871453  48.9447700  25.5708272
  39.8051615  49.0149887  26.4363259  40.5251173  49.5077444  25.3792013
  39.9691290  49.0386671  25.6698222  33.2464624  48.7108438  35.0382798
  32.9883868  47.8780173  35.0114098  33.3013107  48.9366051  34.1975299
  33.2164402  48.6206209  34.9102935  38.3265674  40.8136889  35.1386891
  37.6222001  40.3246074  35.2970810  38.3750648  40.8259363  34.2675335
  38.2295726  40.7426537  35.0326231  32.2199336  46.2646201  35.5247693
  31.6448927  46.4238369  36.1611654  31.8435012  45.6281610  35.0616144
  32.0802148  46.1944014  35.5502251  35.8872625  44.7369550  40.3840072
  35.4987058  44.3123768  39.7292263  35.2227323  44.9851699  40.8917098
  35.7319553  44.7108271  40.3627939  45.5295894  44.4944555  33.1587902
  45.2732459  43.6824496  32.9685784  46.3725208  44.5022122  32.9318089
  45.6161919  44.3756552  33.0972719  21.9656155  45.9086275  33.5392134
  22.0516407  45.5318144  34.3205664  22.5931952  45.5346721  33.0612092
  22.0712706  45.7971758  33.5837611  39.7098986  38.4344179  37.8964056
  40.0909498  37.7522350  38.2831930  38.9062271  38.1453781  37.7139720
  39.6475448  38.2911227  37.9268112  36.9911563  48.9668154  28.5816878
  37.8052202  49.2583047  28.4699650  36.9270704  48.3128017  28.0075171
  37.1014302  48.9133349  28.4805716  43.2121053  51.6494151  42.9946454
  42.9759691  50.8182215  42.8758515  43.8564282  51.5979758  43.5801298
  43.2715724  51.5191839  43.0632348  32.8619471  52.4389672  33.7089191
  33.4993418  52.2001419  34.2540984  33.2874543  52.6426831  32.9742351
  33.0195638  52.4340682  33.6806348  27.5532114  54.6778008  37.5923494
  27.5936259  54.9492859  36.7643274  28.1126638  55.2019916  38.0081282
  27.6415460  54.7953763  37.5315383  33.5022286  47.6591962  28.0464080
  33.8867439  47.4399668  28.7980625  33.2533907  48.4854907  28.1765156
  33.5224359  47.7490108  28.1765156  33.6690827  40.9398377  47.7626664
  33.3544268  41.7097940  47.4996227  33.3480759  40.3768633  47.1778891
  33.5749746  40.9708646  47.6368014  44.2357474  51.4338599  39.0574749
  43.9303291  52.1666656  39.4188064  43.5163689  51.0276529  38.7767535
  44.0844816  51.4820332  39.0687886  35.2440943  52.9162095  35.3882977
  35.3179952  52.7537266  36.2424827  36.0610450  53.1052284  35.1443458
  35.3757302  52.9198837  35.4781002  49.9359266  48.0731600  38.3843093
  49.8683766  48.0927559  37.5145679  49.9214928  48.9161927  38.6098763
  49.9238022  48.2005335  38.2895570  29.0046700  53.2619957  32.4177420
  28.1784818  53.5081695  32.2911699  29.0658691  53.1832038  33.2839478
  28.8920867  53.2864906  32.5266365  31.2222724  39.3288898  33.3772860
  30.3545149  39.4011498  33.4430470  31.5097928  40.1310977  33.5660836
  31.1362472  39.4583045  33.4147627  40.3455612  39.4766758  41.7084182
  41.0909204  39.2876568  41.2947608  39.9292917  40.0024996  41.1498039
  40.3940587  39.5268903  41.5648756  33.7845529  55.8796838  30.1196450
  34.0743827  55.4885819  29.3955677  34.5149010  56.0613542  30.5601726
  33.9352413  55.8490651  30.0779257  47.7217883  46.8475986  36.6589687
  48.2725805  46.2144055  36.8986779  47.7061999  47.3791379  37.3505192
  47.8003080  46.8324934  36.7968545  34.3740274  50.6814583  41.2049581
  33.8751968  51.3930351  41.2834469  35.1840498  51.0015250  41.1667743
  34.4196381  50.8341432  41.2106149  31.7251445  57.8564220  33.1856600
  31.5051740  57.5661575  33.9783267  31.5045967  57.1979175  32.6574512
  31.6599039  57.7163928  33.2245509  30.6368392  49.9437536  35.4512302
  30.3481640  49.3175008  35.9858029  31.5051740  49.8857824  35.5176982
  30.7228644  49.8425081  35.5403256  41.4246290  45.0872320  35.7694283
  41.0811055  44.3662655  36.1201533  41.5239332  44.8786171  34.9272642
  41.3888332  44.9496523  35.6965964  33.8919400  59.2293610  31.9687292
  34.5443458  58.6970052  32.1978318  33.1945009  58.8762262  32.3555166
  33.8850118  59.0983133  32.0599460  30.8400665  51.5832788  31.3754667
  31.5946633  51.9645827  31.5890129  30.2471278  52.0343931  31.8301363
  30.8637379  51.7061615  31.4737545  41.8859319  51.5498024  31.3118272
  42.4517351  52.2091234  31.2276815  41.2387222  51.8947722  31.7834674
  41.8738075  51.6979965  31.3691028  33.3007332  43.5395628  46.5011879
  32.4907108  43.8453408  46.3901721  33.7782019  44.2601210  46.6164463
  33.2510811  43.6910229  46.5018950  32.1598892  52.7541349  36.7494782
  31.6379645  52.8941641  37.4346647  32.5472912  51.9952013  36.9396899
  32.1402593  52.6626873  36.8795859  29.1490076  42.8047158  30.8189737
  28.8614871  42.4348428  30.0821684  29.8360544  43.2742013  30.5573442
  29.2078973  42.8194127  30.6704812  38.3565897  54.4936808  30.7355351
  38.1152573  53.7604669  30.3282416  38.5367230  55.0423665  30.0821684
  38.3473521  54.4659199  30.5785574  33.5865217  49.7845368  32.1476273
  33.3908000  50.3920102  31.5536576  33.8099563  49.0913312  31.6667947
  33.5899858  49.7722893  31.9892354  31.9843747  46.6700106  32.2657141
  32.7066399  46.8341264  31.8060947  31.5051740  47.3909771  32.1596481
  32.0207478  46.7998335  32.1822755  39.9437255  43.0063905  37.6453826
  39.1048356  43.0325184  37.4092090  40.0141622  43.6534640  38.2259173
  39.8305648  43.1060030  37.6962943  29.6351364  49.0758178  41.3711281
  30.1472461  49.3542432  40.7220041  29.3487707  49.8147472  41.7374094
  29.6686227  49.2260532  41.3301159  38.3906533  39.9049282  32.3781442
  39.0932886  39.7057030  31.9001401  38.1250722  39.1325224  32.6850286
  38.4553165  39.7612248  32.3526884  43.8194779  48.2131891  34.9315068
  43.7328753  48.3687317  35.7849847  43.3645259  48.8569967  34.5574473
  43.7398035  48.3307647  35.0022175  26.7218270  43.5828370  31.6675018
  26.8234407  44.3854532  31.9955993  27.5174157  43.3815706  31.3698098
  26.8546176  43.6714269  31.6710373  33.1535089  41.1684567  41.4312323
  32.9618286  41.1839701  42.2811746  34.0033685  41.3648241  41.4078978
  33.2510811  41.1998918  41.5535618  27.5382002  43.6975548  39.4096139
  27.3967494  42.8459489  39.5340647  27.8222566  43.7404209  38.5858345
  27.5589849  43.5775298  39.3063763  37.6920595  45.5342639  33.5540628
  37.4455309  45.4538389  34.3877417  38.0205718  44.7496106  33.3603155
  37.7041838  45.4068904  33.6488151  41.5868644  52.2425998  37.3427409
  41.4483003  52.9407044  37.8476151  40.8068642  52.0874654  36.9863591
  41.4511870  52.3226165  37.3653683  39.9246729  48.5422373  43.5949791
  39.9194767  47.6702190  43.5992217  40.6307723  48.7410542  43.1219246
  40.0291733  48.4426247  43.5256826  33.6517622  48.2699357  42.9663611
  33.7960998  48.8500565  42.3306721  33.9993271  48.6475654  43.6713465
  33.7245083  48.4120061  42.9762606  35.8237539  47.4689525  40.7488742
  35.0760853  47.6620540  40.3437020  35.9779065  46.6434745  40.5112864
  35.7359967  47.3754637  40.6534148  32.7245377  56.4602129  39.8324638
  32.8734941  55.9005045  39.1798042  33.5045379  56.5394131  40.2157156
  32.8619471  56.3887694  39.7921587  43.0822016  51.6004252  28.1043908
  42.7028825  50.8141390  28.0973197  42.4188262  52.1491109  27.9615552
  42.9280491  51.5649076  28.0824705  35.2498678  56.6316772  41.1109128
  35.1742349  55.9625582  41.6659917  35.1788537  57.3334560  41.6249795
  35.2279285  56.6361679  41.2685976  36.0639316  41.3640076  41.6384146
  36.5211931  42.0964051  41.7656938  36.1395645  40.9406541  42.3971402
  36.1430286  41.4097314  41.7685223  28.3072308  41.6105896  42.7273590
  27.7714497  40.9986254  43.0434357  28.3690072  42.1854032  43.3807256
  28.2367940  41.6052824  42.8709016  40.5366642  34.5429951  35.5077989
  40.6550211  35.0006415  34.7745292  40.3628818  33.7375213  35.2214207
  40.5285813  34.4923724  35.3578923  35.9068925  55.1517771  31.9432734
  36.6718816  54.8827414  31.6215399  35.8047015  54.6667781  32.6602797
  36.0050420  55.0407335  32.0012562  33.9421694  43.3542180  38.4825970
  33.1517769  43.1733640  38.8043306  34.3382317  42.5769133  38.4656265
  33.8838571  43.2129641  38.5278518  38.4287585  52.1829954  23.9232684
  39.1960570  52.2430079  23.5138535  37.9818894  51.6110396  23.4389002
  38.4761012  52.1066530  23.7910394  39.3265381  50.9884610  36.2085416
  38.6510382  50.7569843  36.7098803  39.3357757  50.3805793  35.5827521
  39.2283885  50.8643535  36.1901568  36.4559525  45.8302439  42.9649469
  36.3918666  46.6912396  42.8369606  36.5956712  45.5134432  42.1645020
  36.4674995  45.9102606  42.8277682  41.3282115  53.8449743  28.4395594
  41.4101953  54.6516729  28.1157045  41.8131857  53.8645702  29.1636367
  41.4119273  53.9670405  28.4982493  35.1378619  48.5234579  37.1065672
  34.7140868  48.7239078  36.3704690  34.9623474  47.6763427  37.2189972
  35.0489499  48.4283360  37.0139362  34.6390312  60.0385092  39.5687129
  35.1286242  59.3395881  39.3862794  34.0674544  59.7408962  40.1563187
  34.6274842  59.8911315  39.6288170  30.4261064  49.0186630  32.5393644
  30.5825683  48.9533433  33.3949636  30.7661657  49.7935183  32.3272324
  30.4994298  49.1235828  32.6348239  36.9640208  48.3944514  31.4087008
  37.5055754  47.8914895  31.8725628  37.2786767  48.3409708  30.5976493
  37.0904605  48.3123935  31.3570820  40.8357316  52.6047161  48.5213920
  41.6492181  52.3332310  48.6819052  40.6752282  52.3054701  47.7174116
  40.9327264  52.5202087  48.4259326  35.1326658  53.7861865  28.6927036
  35.2019478  52.9276404  28.8320036  35.9115113  54.0033746  28.3646060
  35.2579508  53.6914729  28.6644193  38.1129478  43.2880818  41.4609308
  38.3271447  42.6491732  40.9072662  37.4963377  43.7326642  41.0317170
  38.0534807  43.2590962  41.3159739  39.5234145  56.2099566  32.9063529
  39.1313937  55.9066282  32.1886395  39.6787218  57.0468656  32.7168483
  39.4887735  56.2883403  32.7720026  26.9995325  46.2021580  32.8554412
  27.3794290  46.6206125  32.1914679  26.4250690  46.7835036  33.1623255
  26.9706650  46.3499439  32.8031153  40.2768566  44.8969883  42.3992615
  39.4645247  44.5895774  42.4805788  40.7358500  44.4168883  42.9635327
  40.2248950  44.7806376  42.4947209  39.6873820  52.7749555  32.8469560
  39.3288475  52.9464198  33.6233592  39.2012531  53.2362761  32.2897558
  39.5632517  52.8688526  32.8794829  37.5044206  36.3980754  36.4496651
  36.6337764  36.3719475  36.4029960  37.7584547  36.2257946  35.6322497
  37.4137766  36.3690897  36.3216788  34.4762186  48.4548721  25.3869794
  34.7654710  49.2313603  25.6613368  34.5633984  47.9437452  26.0884293
  34.5316442  48.4940639  25.5312292  37.3722073  46.3029955  47.1821317
  37.8421704  46.9272071  47.5689192  37.4183953  45.6346930  47.7414532
  37.4489949  46.2964635  47.3221389  34.5293347  38.4086982  37.9070121
  34.0131835  37.7167174  38.0321700  33.9687276  39.0757759  37.8532720
  34.3699860  38.4050240  37.9176187  36.5985580  38.9479942  39.7362974
  36.2117333  38.9728974  40.5176504  36.1118517  38.3821621  39.2837490
  36.4698089  38.8675693  39.7850878  40.8478560  53.6653451  43.7936760
  41.4858280  53.1713647  43.4599216  40.2052651  53.5930852  43.2088987
  40.8472786  53.5812460  43.6579115  42.5735560  45.5142597  38.3602676
  42.1463168  45.4268946  37.6050776  41.9361613  45.6220373  38.9457520
  42.4165167  45.5175257  38.3348118  36.2642722  35.8346928  42.0273234
  36.8935840  36.3707228  41.7494304  36.4328585  35.7424287  42.8786799
  36.3820516  35.9008290  42.1121762  36.0656637  40.6218122  44.2999645
  36.8930066  40.3503271  44.3558260  36.0864483  41.4178964  44.6563463
  36.1909487  40.6997877  44.3614828  40.9032816  54.3573260  40.4342117
  41.6925194  54.0062324  40.5544199  41.0776414  55.1709648  40.1718751
  41.0453098  54.4259117  40.4129985  30.6426127  47.7681985  37.4869906
  29.8014133  47.6685859  37.6948800  30.8516135  48.5377466  37.8384227
  30.5490819  47.8674029  37.5697221  28.1201694  45.3901522  35.3154657
  27.7258391  45.4644534  34.5404766  27.5641810  45.7759469  35.8663018
  27.9804506  45.4583297  35.2822316  39.7566640  38.3682816  34.9958536
  39.9616234  38.3005124  35.8415533  39.4293064  39.1741637  34.9279713
  39.7381888  38.4768757  35.1118191  34.4542791  45.6963384  36.7367504
  34.1505929  45.1419373  37.3377911  33.7522212  45.8755594  36.2495538
  34.3059001  45.6408167  36.7537209  33.5108889  43.0063904  31.3012205
  33.7868623  42.2882817  30.8889773  34.1107558  43.6048824  31.0933311
  33.6402153  42.9884275  31.2092967  32.5161142  52.9113105  41.4439601
  32.4081497  52.9215167  42.3101659  32.7256924  53.7367886  41.2544555
  32.5311254  53.0354180  41.5443693  43.0100328  38.9214580  34.4761301
  42.3974642  39.4084983  34.8615033  43.1064503  38.2458071  35.0198952
  42.9338226  38.8932889  34.6140159  37.0119409  40.6777422  29.5758800
  37.4663156  40.8487982  30.3006645  37.4859455  40.0645532  29.1756576
  37.1487729  40.6128307  29.6232562  30.5334934  50.1625748  38.9061539
  29.9422868  50.8035246  38.8764554  31.2955958  50.5863365  38.8792838
  30.5583195  50.3201586  38.8976686  30.9295557  41.3227745  39.5729556
  31.3897039  41.3966675  40.3104680  30.9751664  42.1208999  39.2229378
  31.0046113  41.4521892  39.6302313  32.5778907  41.9894440  44.1401584
  32.1864472  41.3427787  44.5757361  32.7464770  42.5805875  44.7595839
  32.5449817  41.9808708  44.2964290  46.6525356  49.9931517  39.9038817
  46.7108480  50.4418166  40.6498794  46.0191824  50.4030330  39.4668897
  46.5676651  50.1205252  39.9491365  40.2924451  55.6135059  36.3393563
  40.0944139  56.1025874  35.6449775  39.6712162  55.8176301  36.9177697
  40.1712015  55.7151597  36.3216787  34.3532429  47.3819956  30.6803808
  35.0974474  47.7694232  30.9186758  34.4993125  46.5377381  30.8444295
  34.4843014  47.3150429  30.7397777  36.2712004  39.1770215  35.7135669
  35.4248050  39.3493023  35.5877019  36.2683137  38.3719559  36.0501497
  36.1459154  39.0831244  35.7446796  37.3410305  42.9545429  36.5797727
  36.8670259  42.4287191  37.0903038  37.7128441  42.4074902  36.0112588
  37.3260194  42.7961426  36.5712874  27.7183335  44.9516936  41.9481273
  28.5808948  44.8512645  41.8618603  27.3875118  44.3711645  41.3866845
  27.7968531  44.8508563  41.8526679  43.6047035  48.0147805  37.9904507
  43.3645258  47.1754220  37.9946934  44.0839043  48.0947972  38.7145281
  43.6399219  47.9029205  38.0979310  39.2693805  43.8481984  29.6423481
  38.7416823  43.9310728  28.9529190  39.7289513  44.5899855  29.6388125
  39.2595655  43.9702646  29.5398176  45.6052222  44.7949262  35.9433767
  45.3661992  44.7545096  35.1054551  45.7686124  45.6420414  36.0699488
  45.5942526  44.9141347  35.8387249  42.2098253  49.1799211  41.8738812
  42.9332451  48.7271738  41.6949832  41.9448215  49.4603877  41.0911140
  42.2779526  49.1550180  41.7317527  31.0785121  43.7759385  38.6091691
  30.4538191  43.7877777  38.0017644  30.7430716  44.2519560  39.2582931
  30.9370613  43.8477902  38.6148259  31.2626870  42.1184503  24.6664376
  30.9139674  42.7704229  25.1295925  30.7823316  42.1041617  23.9388247
  31.1397114  42.2127557  24.6275467  27.7910797  51.8359845  40.0495455
  27.2610721  51.1452284  40.0990430  28.0635890  51.8270030  39.2208164
  27.7535519  51.7326977  39.9342871  38.8230887  52.4185547  28.7733138
  39.5465086  52.8843660  28.6297711  38.3831478  52.4859157  28.0230735
  38.8646579  52.4969384  28.6417919  37.9917042  49.2783090  40.0233827
  37.3774035  48.7341140  40.3182462  38.5084327  48.7647326  39.5439643
  37.9772705  49.1219499  39.9958055  37.2313339  50.3487360  37.7578125
  36.8040947  49.7237078  37.3243561  37.2238284  50.0662282  38.5837133
  37.1672480  50.2140140  37.8157953  30.3475866  45.3852533  40.8266559
  30.5069353  44.6295857  41.2318281  30.1668760  45.9343472  41.4807297
  30.3441225  45.3546347  40.9829265  38.2896169  37.5513768  41.3817349
  37.7936731  37.7477443  40.6908916  39.0465231  37.9506437  41.2106151
  38.3282994  37.6391502  41.2537486  35.5599049  41.2256114  37.9720659
  35.5841536  40.6916227  37.2833439  35.8110523  40.7173423  38.6346250
  35.6008968  41.0717018  37.9685304  23.0706639  48.5087609  37.4063803
  22.9650088  48.4634454  36.5415888  22.3206859  48.8541390  37.6878088
  22.9442242  48.5528517  37.3201133  31.8400371  39.9526932  37.3526404
  31.8798743  40.4536139  38.0661111  31.0150036  40.0437326  37.0832327
  31.7239897  40.0408749  37.4176942  34.0229984  49.5187672  45.4546698
  33.1725615  49.6559387  45.5904343  34.1858112  48.7851451  45.8994400
  33.9213848  49.4301774  45.5402298  33.2614735  46.4687442  39.6500303
  32.4306664  46.6361260  39.4435551  33.2066252  46.0923393  40.4349188
  33.1304149  46.4377174  39.7348831  31.0698518  39.9596335  45.2856713
  31.6951221  39.4158468  45.5586146  30.6148998  39.4791253  44.7164504
  31.0946778  39.8085817  45.2418307  31.6350778  44.7443034  30.1790420
  31.7753739  45.2415498  30.8819062  32.1333311  44.0429328  30.3204634
  31.7291859  44.7145013  30.3041999  31.6651001  45.6110145  27.5082997
  32.2996080  46.2070570  27.4432459  31.7476612  45.3113602  28.3228867
  31.7707552  45.6551053  27.6186084  44.6433567  48.1425622  40.3769361
  45.2351407  48.7822873  40.4087560  45.0792561  47.4448659  40.6661428
  44.7951998  48.1343973  40.4250194  33.2429984  41.5424120  27.4828439
  33.5645825  41.0627203  26.8287702  33.5056927  42.3523766  27.2919251
  33.3296009  41.5914018  27.3583931  36.4726956  52.5642995  41.0027255
  35.9652048  53.1178841  41.4467886  36.1753603  52.6251285  40.1846030
  36.3531841  52.6549306  40.9475712  38.6389139  40.9296314  39.8451918
  39.0644210  40.4768841  39.2335445  38.0246132  40.3756385  40.1216706
  38.6117784  40.7810290  39.7956944  28.1703989  47.8077986  30.7772543
  28.6796218  48.4042493  31.1583849  28.6438261  47.5403959  30.0948963
  28.3147364  47.8563801  30.7327066  39.0834737  56.4806252  28.9331199
  38.3664046  56.3067115  28.4678436  39.7341474  56.2458825  28.4006685
  39.0736587  56.4202045  28.7860417  37.0783361  37.4011414  33.2542495
  36.4351679  37.2509060  33.8227634  36.7382768  37.1553759  32.4891600
  36.9328439  37.3423537  33.2245511  41.6682708  45.3570841  32.6772504
  40.9973898  45.9000543  32.5485570  42.3622458  45.8265696  32.4354199
  41.6711575  45.5069112  32.6228032  35.7169442  57.4967553  37.9084262
  35.4935096  56.7386382  38.2768289  35.2279285  57.5265574  37.1864702
  35.6112891  57.3889777  37.8561003  41.8310835  41.8126724  35.5862877
  42.1838446  41.3856447  36.2608676  40.9725637  41.7277568  35.7163954
  41.7560280  41.7371465  35.7057888  30.5294520  44.4434244  33.6445724
  29.8106510  44.8598377  33.9118587  30.9006883  45.0088483  33.0937362
  30.4786452  44.5883526  33.6028531  39.8294101  45.0762093  39.5347719
  39.8092029  44.8945388  40.3882498  39.8773302  45.9474112  39.5107303
  39.8328742  45.1778631  39.6571014  37.7740431  51.6649285  45.4596196
  37.7336286  51.0198962  44.8741352  38.5863749  51.6085902  45.7721608
  37.8883585  51.5608252  45.4193145  34.3647899  57.7168011  35.3621347
  33.9508297  57.0542141  34.9725189  35.0495273  57.8645870  34.8417041
  34.4046270  57.6408669  35.2277844  37.7313193  56.8758096  36.1144963
  37.3329476  56.9860367  35.3465784  37.1164412  57.0840163  36.6971523
  37.5812082  56.9231664  36.0876263  36.3041095  43.4832244  28.9819103
  35.7105934  43.8049241  28.4303670  36.3416372  42.6373340  28.7740209
  36.2215484  43.4056572  28.8701874  43.2634896  36.9345136  36.5147190
  42.7565760  36.2274276  36.4468367  44.0602329  36.6038325  36.6448266
  43.3062135  36.7818288  36.5246185  39.1798911  43.4411749  32.4120853
  38.9512604  43.4644450  31.5699212  39.4396988  42.6169216  32.5315864
  39.1845099  43.3227829  32.3046051  33.4618140  45.2946222  42.0145954
  32.9497043  44.6867405  42.3730985  33.2897636  46.0102814  42.4819929
  33.3607777  45.3109521  42.1362177  28.3083855  43.7383797  44.6648315
  28.1386445  44.3985172  44.1196522  27.8649804  43.9490358  45.3860805
  28.2183188  43.8669779  44.6909945  32.2343674  41.9788295  33.7075049
  32.7101040  42.3405375  33.0725230  31.7332274  42.6344762  33.9875192
  32.2309033  42.1282484  33.6551790  45.4655035  51.4510063  29.4988054
  45.8488641  52.2001419  29.7286151  44.6699149  51.6975883  29.2400043
  45.4048818  51.5979757  29.4945628  37.3387210  43.2170466  44.4548209
  37.8958640  42.9884276  43.8226675  37.0148275  43.9776132  44.1783422
  37.3733620  43.2954303  44.3204706  25.2085919  46.6430663  39.9236805
  24.6612638  45.9731308  40.0417674  25.9978297  46.2760510  39.9880273
  25.2438103  46.4895649  39.9505506  35.0570327  46.3038120  45.4200216
  35.8081654  46.6189796  45.7339770  35.2492904  46.1017290  44.5934138
  35.1961742  46.3205501  45.3443612  34.2770327  44.1229495  27.0748433
  34.6569292  44.1409124  26.2899548  33.5362923  44.5683484  26.9539280
  34.2239165  44.1911269  26.9412001  41.9055618  42.4311686  32.6624012
  41.9049844  42.2760342  33.5208288  41.7011798  43.2774673  32.6065397
  41.8755395  42.5332307  32.7811951  23.9672888  45.8551470  37.0782828
  23.7894650  45.4028079  37.8037744  23.6791911  46.6577632  37.2621306
  23.8985842  45.9074028  37.2126331  39.6296470  47.1109188  36.3160219
  40.1250135  46.3932183  36.2764239  38.8196245  46.8079985  36.2014706
  39.5840363  46.9606834  36.2933944  35.0755081  50.9607001  28.4657223
  34.2666404  50.6373674  28.4190533  35.5829990  50.2540223  28.3985472
  35.0304748  50.8088317  28.4487517  25.7045358  48.3879194  34.1904587
  24.8390878  48.3764885  34.0787359  25.8044174  48.2009417  35.0375727
  25.5919525  48.3585255  34.2993532  41.6948288  49.8612875  39.0037347
  42.1203360  49.3387297  38.4507772  41.3305208  50.4593713  38.4825970
  41.7034891  49.8723102  38.8446357  31.3302368  58.1577093  37.7634693
  31.6448927  58.9713481  37.7712475  31.7395782  57.7727311  38.4316852
  31.4370466  58.2205795  37.8638785  38.2826888  53.5747139  35.3338505
  38.7538066  54.2887402  35.5028490  38.6187066  52.9745890  35.8698374
  38.4022003  53.5918604  35.4370881  40.3703872  55.1848453  47.5130577
  40.4800838  54.3957013  47.8687324  40.6994769  55.0954389  46.7104915
  40.4356278  55.0554306  47.4472968  35.1996383  38.3474610  42.2896600
  35.3324288  37.5505603  42.6177575  35.5841536  38.8741013  42.8694875
  35.2752712  38.3074527  42.4240103  38.9200834  53.3665074  42.0966197
  38.3721780  52.7422957  41.8286263  39.3813863  53.5559346  41.3810277
  38.9068044  53.3024124  41.9516629  38.2728738  35.2704936  38.8877693
  37.4674702  35.1602666  39.2045531  38.1435474  35.3717392  38.0307559
  38.1348871  35.2688606  38.8085733  41.7294699  41.4350428  39.4817390
  41.1457687  41.9359635  39.0694957  42.0498993  40.9279984  38.8481713
  41.6907874  41.4342263  39.3275897  34.2689498  40.3491023  29.7576065
  35.0905192  40.5189336  29.5157759  33.8059149  40.5038284  29.0342362
  34.3220660  40.3972756  29.6147709  32.8584830  38.3433785  40.5374493
  33.4029243  38.0024912  41.1278835  32.9121765  39.2019247  40.6795778
  32.9473949  38.4189044  40.6456367  28.6715388  52.1050201  37.4113301
  29.2760246  52.0646035  36.7827122  28.4642701  52.9521353  37.4417357
  28.7304286  52.2238204  37.3229418  38.4859161  54.3716146  38.6275539
  39.3057534  54.2279112  38.8891834  38.2053238  54.9962345  39.1691977
  38.5655904  54.4426498  38.7463478  23.9066671  51.0884819  37.2812224
  23.8090949  50.2781090  37.5902281  24.6895540  51.0676612  36.8958493
  24.0082807  50.9651909  37.2699087  54.9572811  62.0280998  31.5918415
  54.9266815  62.8825635  31.7636684  55.5554160  61.7276291  32.1504559
  55.0409969  62.1097495  31.6993217  48.1572496  61.1156649  36.3471345
  47.3010391  61.2765147  36.3980462  48.2040149  60.2448713  36.3676406
  48.0371607  61.0107451  36.3577411  42.5413635  70.6519367  32.1108577
  41.7896535  70.2734905  31.8824622  42.9899647  70.6837800  31.3627387
  42.4963302  70.6004974  31.9666079  51.4666212  67.3843175  45.9531802
  52.1732980  66.8895205  46.0818736  51.6554148  67.8252256  45.2234460
  51.5994118  67.3761525  45.8640847  47.9938595  71.0744736  27.5394124
  47.6589964  71.7521658  27.1038346  48.5065466  70.6850048  26.9510996
  48.0204176  71.1169315  27.3880916  47.5342887  73.0259005  33.4805236
  47.9182266  73.5945904  32.9410011  47.4702028  72.3008515  33.0011052
  47.5816314  73.0034468  33.3299098  51.0024317  63.1748693  38.9902997
  51.5480277  63.8533780  39.0496967  50.9441193  63.0336154  38.1304579
  51.0740231  63.2540695  38.8715058  44.1198392  70.6637759  34.3771350
  44.2208755  69.8538113  34.6868477  43.5240137  70.5694705  33.7471028
  44.0470930  70.5302787  34.3297588  52.7789385  64.6033300  29.8636725
  52.6628911  65.3540986  30.2928863  53.5745272  64.3457253  30.1132812
  52.8793975  64.6768147  29.9640817  43.9599131  75.5815348  35.7786206
  44.6036587  76.0228512  36.1682364  44.2855387  74.7768774  35.6916464
  44.1030960  75.5280543  35.8231683  37.3163436  66.6858046  34.0023683
  37.0813620  65.8525698  33.8955952  37.4549077  66.9662711  33.1884884
  37.3019098  66.6041549  33.8666038  39.6153523  58.8543776  36.9007991
  38.9958555  58.2636423  36.7318006  39.5137387  59.4455211  36.2672314
  39.5091199  58.8547859  36.7812980  44.6619711  68.5927323  31.1506067
  44.9835552  69.1332530  30.5467375  45.3091807  68.0224094  31.2828357
  44.8045766  68.5886498  31.0813103  46.7121419  60.5943318  31.2340454
  47.4101584  60.7731446  31.7261917  47.0273752  60.0713657  30.6110843
  46.8616756  60.5437090  31.2142464  39.3422656  62.3996058  39.1451560
  39.2181353  62.9858503  39.7801379  39.9940941  61.9056254  39.4463835
  39.4196306  62.4134862  39.2837489  46.9009354  66.9813763  31.2220245
  47.3402990  66.3730864  31.6675018  46.7514017  66.6021136  30.4505710
  46.9430820  66.8352234  31.1739413  44.3680997  65.5757775  38.4239071
  45.0130000  65.0830218  38.1050019  44.6082774  65.7182561  39.2505149
  44.4991583  65.5235217  38.4988604  46.9067089  68.4212681  38.0745964
  47.1890332  67.6264086  37.8532719  47.6353249  68.8993268  38.0951025
  47.0556652  68.3747278  38.0448979  44.8848283  55.9635715  35.3161729
  44.5551613  56.4146858  34.6465427  44.2093284  55.8851878  35.8634735
  44.7358719  56.0186850  35.2984952  50.5018691  65.3340944  28.1751015
  50.4169986  66.1901911  28.3200584  50.9903074  65.0585268  28.8433174
  50.5607588  65.4198266  28.2953096  52.0924690  51.9521238  33.5611339
  51.7778131  52.6424716  33.9931762  51.5751632  51.8966020  32.8596840
  51.9689161  52.0456126  33.5208288  51.4337124  61.9525739  29.6748750
  50.9048596  62.1685372  30.3346056  51.9562144  62.6461877  29.5949719
  51.4325577  62.0868875  29.7604349  56.8885177  67.5272043  35.0481794
  56.0582880  67.7382687  35.2115211  56.8394429  66.7009098  34.7724078
  56.7591912  67.4361649  35.0319160  43.3236732  65.8488955  28.4756218
  42.7393947  66.3538987  28.8822082  42.9206827  65.6231342  27.7352810
  43.1776036  65.8897204  28.4261243  38.8780761  71.5643716  35.2779889
  38.3948339  72.2894206  35.2539473  39.6904079  71.8619846  35.3890047
  38.9271508  71.7146070  35.2907169  44.9494915  70.3575897  37.8829704
  44.4321856  69.9983312  37.2791012  45.6469306  69.8338072  37.8935770
  44.9760496  70.2273585  37.7959962  48.6058507  70.8070711  43.8445877
  48.6941852  70.6196852  44.6924087  49.0348219  70.1608141  43.4450724
  48.6820609  70.6833719  43.9117628  46.1728966  70.0901871  42.8263539
  45.6099801  69.6774481  43.3503200  46.9349990  70.0154777  43.2456682
  46.2023415  70.0179272  42.9656539  47.7813946  62.0954607  26.9525138
  48.0209950  62.3032591  26.1400481  48.1029787  61.2912116  27.0614083
  47.8651104  62.0068709  26.8485691  43.0904237  54.0248003  30.7984676
  43.8450205  54.3926320  30.5601727  42.9131771  54.3987557  31.5663856
  43.1758715  54.1346191  30.8769565  41.7324958  72.0799892  35.4300169
  42.4345537  71.5651881  35.4872926  41.6522441  72.4074044  36.2347044
  41.8248718  72.0514119  35.5572961  56.3839135  60.1742444  38.8432216
  55.5467556  60.2444631  39.0779810  56.3527366  60.1766938  37.9706518
  56.2557418  60.1852671  38.7491764  42.7803864  62.3175479  44.5580584
  42.9524368  62.2081374  45.4065866  43.3173222  62.9629885  44.3211777
  42.8848868  62.3967481  44.6485681  41.4461301  56.4318322  27.4962789
  41.2636875  56.6490203  26.6703782  42.3086914  56.5457335  27.5521404
  41.5465891  56.4808220  27.3817276  41.0575733  68.2706244  34.9385777
  41.8964633  68.5029177  34.9859539  41.0887502  67.4010556  34.8692813
  41.1857451  68.1763191  34.9350422  41.6828436  68.6907119  39.2399083
  42.2226661  68.5478251  39.9102455  40.9998383  69.0903870  39.6083109
  41.6620590  68.7286790  39.3933504  47.1261021  53.4344733  30.5311813
  47.8547181  53.2560688  30.0849969  47.2155913  54.2762813  30.7418991
  47.2467683  53.5328611  30.4965331  51.1069321  64.3698120  34.4344107
  51.8626836  64.8029634  34.4733016  51.2131646  63.7202890  35.0078743
  51.2339492  64.3375604  34.5242133  54.1449492  68.1971397  35.1846510
  53.7084724  68.2008140  35.9405482  53.8112408  68.8776896  34.7526088
  54.0312112  68.2983853  35.2327343  48.7178566  70.2379730  46.5089660
  49.5018983  70.3510578  46.8745403  48.5175160  69.4120867  46.7048346
  48.8044591  70.1326450  46.5924046  37.0865581  64.9107410  39.3933504
  36.8203997  64.0946527  39.5524495  37.1004146  64.9560566  38.5229020
  37.0490304  64.7964315  39.2886986  54.0646975  55.2385225  37.4275938
  54.7072884  55.3083330  38.0137853  54.3169996  54.5714448  36.9255480
  54.1969107  55.1511574  37.4403217  40.9923328  59.7092495  26.0085262
  40.2781505  59.4230674  26.4207695  41.4767297  60.0489121  26.6491650
  40.9582692  59.7174144  26.1640897  41.8364188  58.4485789  42.0400512
  41.1435985  57.9782768  42.2861244  42.4524515  58.2224093  42.6142219
  41.8248718  58.3452920  42.1609665  48.8748959  72.1489832  40.1556116
  48.0764205  71.9089332  40.4129985  49.3234971  72.2004225  40.9023164
  48.8223570  72.1212223  40.3041040  57.2793839  64.9152317  34.0766147
  57.9410273  64.3542986  33.9762056  56.6385250  64.4204348  34.4018838
  57.2822706  64.7588726  34.1098488  48.1670646  68.2122449  26.3847071
  48.5821795  67.8807472  25.6931566  47.3362576  67.9791351  26.2567207
  48.1058655  68.1293705  26.2637918  37.4958995  65.6966190  36.6745249
  37.3134568  65.6713076  35.8217541  38.2308664  66.1665128  36.7134157
  37.5773059  65.7627552  36.5543167  53.5658669  65.9317700  33.8178136
  53.8014258  66.0762899  32.9904987  53.7148233  66.6960108  34.2109650
  53.6224472  66.0656754  33.7541740  40.5604747  62.4151193  43.1827357
  41.2844719  62.4004223  43.6692252  40.6620883  63.1246548  42.6849325
  40.6822956  62.5175896  43.1806144  55.3949126  64.7719366  31.6547740
  55.7257343  65.3047006  31.0487835  55.9682214  64.8258253  32.3109691
  55.5282805  64.8588934  31.6625522  47.9349696  65.8950277  48.0476304
  47.1422677  66.2093789  48.2328924  48.0498623  66.1101746  47.2097089
  47.8345107  65.9734114  47.9514639  50.6081015  62.6184268  32.3371320
  50.7027869  63.3573562  32.7910946  49.9839859  62.1901744  32.7705885
  50.5290045  62.6645589  32.4679468  48.8633489  65.7970481  42.9861601
  49.4372351  65.1597725  43.1410165  48.7848293  65.7974563  42.1171259
  48.9366724  65.7035592  42.8808012  37.4629905  62.5759690  36.8244315
  38.0403408  62.4396141  37.4636560  36.7643967  62.1195475  37.0789899
  37.4450927  62.4881957  36.9566605  50.8604036  64.4633008  25.5708272
  50.7784199  64.5335195  26.4363259  51.4983757  65.0262752  25.3792013
  50.9423874  64.5571979  25.6698222  44.2197208  64.2293746  35.0382798
  43.9616452  63.3965481  35.0114098  44.2745690  64.4551359  34.1975299
  44.1896985  64.1391517  34.9102935  49.2998258  56.3322197  35.1386891
  48.5954584  55.8431382  35.2970810  49.3483232  56.3444671  34.2675335
  49.2028309  56.2611845  35.0326231  43.1931920  61.7831508  35.5247693
  42.6181511  61.9423677  36.1611654  42.8167596  61.1466918  35.0616144
  43.0534732  61.7129321  35.5502251  46.8605208  60.2554858  40.3840072
  46.4719641  59.8309076  39.7292263  46.1959907  60.5037007  40.8917098
  46.7052136  60.2293579  40.3627939  56.5028477  60.0129862  33.1587902
  56.2465042  59.2009804  32.9685784  57.3457791  60.0207430  32.9318089
  56.5894503  59.8941860  33.0972719  32.9388739  61.4271583  33.5392134
  33.0248990  61.0503452  34.3205664  33.5664536  61.0532029  33.0612092
  33.0445290  61.3157065  33.5837611  50.6831570  53.9529487  37.8964056
  51.0642082  53.2707658  38.2831930  49.8794854  53.6639089  37.7139720
  50.6208032  53.8096535  37.9268112  47.9644147  64.4853462  28.5816878
  48.7784785  64.7768355  28.4699650  47.9003288  63.8313325  28.0075171
  48.0746886  64.4318657  28.4805716  54.1853637  67.1679459  42.9946454
  53.9492274  66.3367523  42.8758515  54.8296866  67.1165066  43.5801298
  54.2448308  67.0377146  43.0632348  43.8352055  67.9574980  33.7089191
  44.4726002  67.7186727  34.2540984  44.2607126  68.1612139  32.9742351
  43.9928221  67.9525990  33.6806348  38.5264697  70.1963316  37.5923494
  38.5668843  70.4678167  36.7643274  39.0859221  70.7205224  38.0081282
  38.6148043  70.3139071  37.5315383  44.4754870  63.1777270  28.0464080
  44.8600023  62.9584976  28.7980625  44.2266490  64.0040215  28.1765156
  44.4956942  63.2675416  28.1765156  44.6423410  56.4583685  47.7626664
  44.3276851  57.2283248  47.4996227  44.3213343  55.8953941  47.1778891
  44.5482329  56.4893953  47.6368014  55.2090057  66.9523907  39.0574749
  54.9035874  67.6851964  39.4188064  54.4896273  66.5461837  38.7767535
  55.0577400  67.0005640  39.0687886  46.2173527  68.4347402  35.3882977
  46.2912535  68.2722574  36.2424827  47.0343033  68.6237592  35.1443458
  46.3489885  68.4384145  35.4781002  60.9091850  63.5916908  38.3843093
  60.8416350  63.6112867  37.5145679  60.8947512  64.4347235  38.6098763
  60.8970606  63.7190643  38.2895570  39.9779284  68.7805265  32.4177420
  39.1517401  69.0267002  32.2911699  40.0391275  68.7017346  33.2839478
  39.8653450  68.8050214  32.5266365  42.1955307  54.8474206  33.3772860
  41.3277733  54.9196806  33.4430470  42.4830512  55.6496285  33.5660836
  42.1095055  54.9768353  33.4147627  51.3188196  54.9952066  41.7084182
  52.0641788  54.8061876  41.2947608  50.9025501  55.5210304  41.1498039
  51.3673170  55.0454211  41.5648756  44.7578113  71.3982145  30.1196450
  45.0476411  71.0071127  29.3955677  45.4881593  71.5798850  30.5601726
  44.9084997  71.3675959  30.0779257  58.6950467  62.3661294  36.6589687
  59.2458388  61.7329363  36.8986779  58.6794582  62.8976687  37.3505192
  58.7735663  62.3510242  36.7968545  45.3472858  66.1999891  41.2049581
  44.8484551  66.9115659  41.2834469  46.1573082  66.5200558  41.1667743
  45.3928964  66.3526740  41.2106149  42.6984028  73.3749528  33.1856600
  42.4784324  73.0846883  33.9783267  42.4778550  72.7164483  32.6574512
  42.6331622  73.2349236  33.2245509  41.6100975  65.4622844  35.4512302
  41.3214224  64.8360316  35.9858029  42.4784323  65.4043132  35.5176982
  41.6961227  65.3610389  35.5403256  52.3978873  60.6057628  35.7694283
  52.0543639  59.8847963  36.1201533  52.4971916  60.3971479  34.9272642
  52.3620916  60.4681831  35.6965964  44.8651984  74.7478918  31.9687292
  45.5176042  74.2155360  32.1978318  44.1677593  74.3947570  32.3555166
  44.8582702  74.6168441  32.0599460  41.8133249  67.1018095  31.3754667
  42.5679217  67.4831135  31.5890129  41.2203861  67.5529239  31.8301363
  41.8369962  67.2246923  31.4737545  52.8591902  67.0683332  31.3118272
  53.4249935  67.7276542  31.2276815  52.2119806  67.4133030  31.7834674
  52.8470659  67.2165273  31.3691028  44.2739916  59.0580936  46.5011879
  43.4639691  59.3638716  46.3901721  44.7514602  59.7786518  46.6164463
  44.2243394  59.2095537  46.5018950  43.1331475  68.2726657  36.7494782
  42.6112229  68.4126949  37.4346647  43.5205496  67.5137321  36.9396899
  43.1135176  68.1812181  36.8795859  40.1222659  58.3232466  30.8189737
  39.8347455  57.9533736  30.0821684  40.8093128  58.7927321  30.5573442
  40.1811557  58.3379435  30.6704812  49.3298480  70.0122116  30.7355351
  49.0885156  69.2789977  30.3282416  49.5099813  70.5608973  30.0821684
  49.3206104  69.9844507  30.5785574  44.5597801  65.3030676  32.1476273
  44.3640584  65.9105410  31.5536576  44.7832146  64.6098620  31.6667947
  44.5632442  65.2908201  31.9892354  42.9576331  62.1885414  32.2657141
  43.6798983  62.3526572  31.8060947  42.4784324  62.9095079  32.1596481
  42.9940062  62.3183643  32.1822755  50.9169839  58.5249213  37.6453826
  50.0780939  58.5510491  37.4092090  50.9874206  59.1719948  38.2259173
  50.8038232  58.6245338  37.6962943  40.6083948  64.5943486  41.3711281
  41.1205045  64.8727739  40.7220041  40.3220290  65.3332780  41.7374094
  40.6418811  64.7445840  41.3301159  49.3639117  55.4234590  32.3781442
  50.0665470  55.2242338  31.9001401  49.0983306  54.6510532  32.6850286
  49.4285749  55.2797556  32.3526884  54.7927362  63.7317199  34.9315068
  54.7061337  63.8872625  35.7849847  54.3377842  64.3755275  34.5574473
  54.7130619  63.8492954  35.0022175  37.6950854  59.1013678  31.6675018
  37.7966990  59.9039839  31.9955993  38.4906741  58.9001014  31.3698098
  37.8278760  59.1899577  31.6710373  44.1267673  56.6869875  41.4312323
  43.9350870  56.7025009  42.2811746  44.9766269  56.8833549  41.4078978
  44.2243395  56.7184226  41.5535618  38.5114586  59.2160856  39.4096139
  38.3700078  58.3644797  39.5340647  38.7955149  59.2589517  38.5858345
  38.5322432  59.0960606  39.3063763  48.6653178  61.0527946  33.5540628
  48.4187893  60.9723697  34.3877417  48.9938301  60.2681414  33.3603155
  48.6774422  60.9254212  33.6488151  52.5601227  67.7611306  37.3427409
  52.4215587  68.4592352  37.8476151  51.7801225  67.6059962  36.9863591
  52.4244454  67.8411472  37.3653683  50.8979312  64.0607681  43.5949791
  50.8927351  63.1887498  43.5992217  51.6040306  64.2595850  43.1219246
  51.0024316  63.9611555  43.5256826  44.6250206  63.7884665  42.9663611
  44.7693581  64.3685873  42.3306721  44.9725854  64.1660962  43.6713465
  44.6977667  63.9305369  42.9762606  46.7970123  62.9874833  40.7488742
  46.0493437  63.1805848  40.3437020  46.9511648  62.1620053  40.5112864
  46.7092551  62.8939945  40.6534148  43.6977961  71.9787437  39.8324638
  43.8467524  71.4190353  39.1798042  44.4777963  72.0579439  40.2157156
  43.8352054  71.9073002  39.7921587  54.0554600  67.1189560  28.1043908
  53.6761409  66.3326697  28.0973197  53.3920845  67.6676417  27.9615552
  53.9013075  67.0834384  28.0824705  46.2231261  72.1502080  41.1109128
  46.1474932  71.4810890  41.6659917  46.1521120  72.8519868  41.6249795
  46.2011868  72.1546987  41.2685976  47.0371900  56.8825384  41.6384146
  47.4944514  57.6149358  41.7656938  47.1128229  56.4591849  42.3971402
  47.1162870  56.9282622  41.7685223  39.2804891  57.1291204  42.7273590
  38.7447081  56.5171562  43.0434357  39.3422656  57.7039340  43.3807256
  39.2100524  57.1238132  42.8709016  51.5099226  50.0615259  35.5077989
  51.6282794  50.5191723  34.7745292  51.3361402  49.2560521  35.2214207
  51.5018397  50.0109031  35.3578923  46.8801508  70.6703079  31.9432734
  47.6451399  70.4012722  31.6215399  46.7779598  70.1853089  32.6602797
  46.9783004  70.5592643  32.0012562  44.9154278  58.8727488  38.4825970
  44.1250353  58.6918948  38.8043306  45.3114901  58.0954441  38.4656265
  44.8571154  58.7314949  38.5278518  49.4020169  67.7015262  23.9232684
  50.1693154  67.7615387  23.5138535  48.9551478  67.1295704  23.4389002
  49.4493596  67.6251838  23.7910394  50.2997964  66.5069918  36.2085416
  49.6242966  66.2755150  36.7098803  50.3090340  65.8991101  35.5827521
  50.2016469  66.3828843  36.1901568  47.4292108  61.3487747  42.9649469
  47.3651249  62.2097704  42.8369606  47.5689296  61.0319740  42.1645020
  47.4407578  61.4287914  42.8277682  52.3014699  69.3635051  28.4395594
  52.3834536  70.1702037  28.1157045  52.7864441  69.3831010  29.1636367
  52.3851857  69.4855713  28.4982493  46.1111202  64.0419887  37.1065672
  45.6873451  64.2424386  36.3704690  45.9356057  63.1948734  37.2189972
  46.0222083  63.9468668  37.0139362  45.6122896  75.5570399  39.5687129
  46.1018826  74.8581189  39.3862794  45.0407128  75.2594269  40.1563187
  45.6007426  75.4096623  39.6288170  41.3993647  64.5371938  32.5393644
  41.5558266  64.4718741  33.3949636  41.7394240  65.3120491  32.3272324
  41.4726882  64.6421136  32.6348239  47.9372792  63.9129822  31.4087008
  48.4788337  63.4100203  31.8725628  48.2519351  63.8595016  30.5976493
  48.0637189  63.8309242  31.3570820  51.8089899  68.1232469  48.5213920
  52.6224764  67.8517618  48.6819052  51.6484865  67.8240009  47.7174116
  51.9059848  68.0387395  48.4259326  46.1059241  69.3047173  28.6927036
  46.1752062  68.4461712  28.8320036  46.8847697  69.5219054  28.3646060
  46.2312092  69.2100037  28.6644193  49.0862061  58.8066126  41.4609308
  49.3004031  58.1677040  40.9072662  48.4695960  59.2511950  41.0317170
  49.0267390  58.7776270  41.3159739  50.4966729  71.7284874  32.9063529
  50.1046521  71.4251590  32.1886395  50.6519801  72.5653964  32.7168483
  50.4620319  71.8068711  32.7720026  37.9727909  61.7206888  32.8554412
  38.3526873  62.1391433  32.1914679  37.3983273  62.3020344  33.1623255
  37.9439233  61.8684747  32.8031153  51.2501149  60.4155191  42.3992615
  50.4377831  60.1081082  42.4805788  51.7091084  59.9354191  42.9635327
  51.1981534  60.2991684  42.4947209  50.6606404  68.2934863  32.8469560
  50.3021059  68.4649506  33.6233592  50.1745115  68.7548069  32.2897558
  50.5365101  68.3873834  32.8794829  48.4776790  51.9166062  36.4496651
  47.6070348  51.8904783  36.4029960  48.7317131  51.7443254  35.6322497
  48.3870350  51.8876205  36.3216788  45.4494769  63.9734029  25.3869794
  45.7387294  64.7498911  25.6613368  45.5366568  63.4622760  26.0884293
  45.5049025  64.0125947  25.5312292  48.3454657  61.8215263  47.1821317
  48.8154288  62.4457379  47.5689192  48.3916537  61.1532238  47.7414532
  48.4222532  61.8149943  47.3221389  45.5025930  53.9272290  37.9070121
  44.9864419  53.2352482  38.0321700  44.9419859  54.5943067  37.8532720
  45.3432443  53.9235548  37.9176187  47.5718164  54.4665250  39.7362974
  47.1849917  54.4914282  40.5176504  47.0851101  53.9006929  39.2837490
  47.4430673  54.3861001  39.7850878  51.8211143  69.1838759  43.7936760
  52.4590864  68.6898955  43.4599216  51.1785235  69.1116160  43.2088987
  51.8205370  69.0997768  43.6579115  53.5468143  61.0327905  38.3602676
  53.1195751  60.9454254  37.6050776  52.9094196  61.1405681  38.9457520
  53.3897750  61.0360565  38.3348118  47.2375305  51.3532236  42.0273234
  47.8668423  51.8892536  41.7494304  47.4061168  51.2609595  42.8786799
  47.3553100  51.4193598  42.1121762  47.0389220  56.1403430  44.2999645
  47.8662650  55.8688579  44.3558260  47.0597066  56.9364272  44.6563463
  47.1642070  56.2183185  44.3614828  51.8765400  69.8758567  40.4342117
  52.6657778  69.5247632  40.5544199  52.0508998  70.6894956  40.1718751
  52.0185681  69.9444425  40.4129985  41.6158710  63.2867293  37.4869906
  40.7746717  63.1871167  37.6948800  41.8248718  64.0562773  37.8384227
  41.5223403  63.3859337  37.5697221  39.0934277  60.9086830  35.3154657
  38.6990975  60.9829842  34.5404766  38.5374394  61.2944776  35.8663018
  38.9537089  60.9768605  35.2822316  50.7299224  53.8868124  34.9958536
  50.9348817  53.8190432  35.8415533  50.4025648  54.6926945  34.9279713
  50.7114472  53.9954065  35.1118191  45.4275375  61.2148692  36.7367504
  45.1238513  60.6604681  37.3377911  44.7254796  61.3940902  36.2495538
  45.2791585  61.1593475  36.7537209  44.4841472  58.5249212  31.3012205
  44.7601206  57.8068125  30.8889773  45.0840141  59.1234132  31.0933311
  44.6134737  58.5069583  31.2092967  43.4893726  68.4298413  41.4439601
  43.3814081  68.4400475  42.3101659  43.6989508  69.2553193  41.2544555
  43.5043837  68.5539488  41.5443693  53.9832912  54.4399888  34.4761301
  53.3707225  54.9270291  34.8615033  54.0797087  53.7643379  35.0198952
  53.9070809  54.4118197  34.6140159  47.9851993  56.1962730  29.5758800
  48.4395739  56.3673290  30.3006645  48.4592038  55.5830840  29.1756576
  48.1220313  56.1313615  29.6232562  41.5067518  65.6811055  38.9061539
  40.9155451  66.3220554  38.8764554  42.2688542  66.1048673  38.8792838
  41.5315779  65.8386894  38.8976686  41.9028141  56.8413053  39.5729556
  42.3629622  56.9151983  40.3104680  41.9484248  57.6394307  39.2229378
  41.9778696  56.9707200  39.6302313  43.5511491  57.5079748  44.1401584
  43.1597056  56.8613095  44.5757361  43.7197353  58.0991183  44.7595839
  43.5182401  57.4994016  44.2964290  57.6257940  65.5116825  39.9038817
  57.6841063  65.9603474  40.6498794  56.9924407  65.9215638  39.4668897
  57.5409235  65.6390560  39.9491365  51.2657034  71.1320367  36.3393563
  51.0676723  71.6211182  35.6449775  50.6444745  71.3361609  36.9177697
  51.1444599  71.2336905  36.3216787  45.3265013  62.9005264  30.6803808
  46.0707058  63.2879540  30.9186758  45.4725709  62.0562689  30.8444295
  45.4575598  62.8335737  30.7397777  47.2444588  54.6955523  35.7135669
  46.3980633  54.8678331  35.5877019  47.2415721  53.8904867  36.0501497
  47.1191738  54.6016552  35.7446796  48.3142888  58.4730737  36.5797727
  47.8402843  57.9472499  37.0903038  48.6861024  57.9260210  36.0112588
  48.2992777  58.3146734  36.5712874  38.6915919  60.4702244  41.9481273
  39.5541532  60.3697953  41.8618603  38.3607702  59.8896953  41.3866845
  38.7701115  60.3693871  41.8526679  54.5779619  63.5333113  37.9904507
  54.3377842  62.6939528  37.9946934  55.0571626  63.6133280  38.7145281
  54.6131803  63.4214513  38.0979310  50.2426388  59.3667292  29.6423481
  49.7149407  59.4496036  28.9529190  50.7022096  60.1085163  29.6388125
  50.2328239  59.4887954  29.5398176  56.5784806  60.3134570  35.9433767
  56.3394576  60.2730404  35.1054551  56.7418707  61.1605722  36.0699488
  56.5675110  60.4326655  35.8387249  53.1830836  64.6984519  41.8738812
  53.9065035  64.2457046  41.6949832  52.9180799  64.9789185  41.0911140
  53.2512110  64.6735488  41.7317527  42.0517705  59.2944693  38.6091691
  41.4270775  59.3063085  38.0017644  41.7163299  59.7704868  39.2582931
  41.9103196  59.3663210  38.6148259  42.2359453  57.6369811  24.6664376
  41.8872258  58.2889537  25.1295925  41.7555899  57.6226924  23.9388247
  42.1129697  57.7312865  24.6275467  38.7643380  67.3545153  40.0495455
  38.2343305  66.6637592  40.0990430  39.0368473  67.3455338  39.2208164
  38.7268102  67.2512285  39.9342871  49.7963471  67.9370855  28.7733138
  50.5197670  68.4028968  28.6297711  49.3564062  68.0044465  28.0230735
  49.8379163  68.0154692  28.6417919  48.9649626  64.7968398  40.0233827
  48.3506619  64.2526448  40.3182462  49.4816911  64.2832634  39.5439643
  48.9505288  64.6404807  39.9958055  48.2045923  65.8672668  37.7578125
  47.7773531  65.2422386  37.3243561  48.1970867  65.5847590  38.5837133
  48.1405064  65.7325448  37.8157953  41.3208450  60.9037841  40.8266559
  41.4801937  60.1481165  41.2318281  41.1401344  61.4528780  41.4807297
  41.3173809  60.8731654  40.9829265  49.2628753  53.0699076  41.3817349
  48.7669314  53.2662750  40.6908916  50.0197815  53.4691745  41.2106151
  49.3015578  53.1576810  41.2537486  46.5331633  56.7441422  37.9720659
  46.5574120  56.2101534  37.2833439  46.7843106  56.2358731  38.6346250
  46.5741551  56.5902326  37.9685304  34.0439222  64.0272917  37.4063803
  33.9382671  63.9819761  36.5415888  33.2939442  64.3726698  37.6878088
  33.9174825  64.0713825  37.3201133  42.8132955  55.4712240  37.3526404
  42.8531326  55.9721447  38.0661111  41.9882619  55.5622634  37.0832327
  42.6972481  55.5594057  37.4176942  44.9962568  65.0372980  45.4546698
  44.1458198  65.1744695  45.5904343  45.1590695  64.3036759  45.8994400
  44.8946431  64.9487082  45.5402298  44.2347318  61.9872750  39.6500303
  43.4039248  62.1546568  39.4435551  44.1798835  61.6108701  40.4349188
  44.1036733  61.9562482  39.7348831  42.0431101  55.4781643  45.2856713
  42.6683805  54.9343776  45.5586146  41.5881581  54.9976561  44.7164504
  42.0679362  55.3271124  45.2418307  42.6083362  60.2628342  30.1790420
  42.7486323  60.7600806  30.8819062  43.1065895  59.5614636  30.3204634
  42.7024443  60.2330321  30.3041999  42.6383584  61.1295453  27.5082997
  43.2728664  61.7255878  27.4432459  42.7209195  60.8298910  28.3228867
  42.7440135  61.1736361  27.6186084  55.6166150  63.6610930  40.3769361
  56.2083990  64.3008181  40.4087560  56.0525145  62.9633967  40.6661428
  55.7684581  63.6529281  40.4250194  44.2162567  57.0609428  27.4828439
  44.5378408  56.5812511  26.8287702  44.4789511  57.8709074  27.2919251
  44.3028593  57.1099326  27.3583931  47.4459540  68.0828303  41.0027255
  46.9384631  68.6364149  41.4467886  47.1486186  68.1436592  40.1846030
  47.3264425  68.1734614  40.9475712  49.6121722  56.4481622  39.8451918
  50.0376794  55.9954149  39.2335445  48.9978715  55.8941693  40.1216706
  49.5850368  56.2995598  39.7956944  39.1436572  63.3263294  30.7772543
  39.6528802  63.9227801  31.1583849  39.6170845  63.0589267  30.0948963
  39.2879948  63.3749109  30.7327066  50.0567320  71.9991560  28.9331199
  49.3396630  71.8252423  28.4678436  50.7074058  71.7644133  28.4006685
  50.0469171  71.9387353  28.7860417  48.0515945  52.9196722  33.2542495
  47.4084263  52.7694368  33.8227634  47.7115352  52.6739067  32.4891600
  47.9061022  52.8608844  33.2245511  52.6415292  60.8756149  32.6772504
  51.9706481  61.4185851  32.5485570  53.3355042  61.3451004  32.4354199
  52.6444159  61.0254420  32.6228032  46.6902025  73.0152861  37.9084262
  46.4667680  72.2571690  38.2768289  46.2011869  73.0450882  37.1864702
  46.5845474  72.9075085  37.8561003  52.8043419  57.3312032  35.5862877
  53.1571029  56.9041755  36.2608676  51.9458220  57.2462876  35.7163954
  52.7292864  57.2556773  35.7057888  41.5027104  59.9619552  33.6445724
  40.7839093  60.3783685  33.9118587  41.8739466  60.5273791  33.0937362
  41.4519036  60.1068834  33.6028531  50.8026685  60.5947401  39.5347719
  50.7824612  60.4130696  40.3882498  50.8505886  61.4659420  39.5107303
  50.8061326  60.6963939  39.6571014  48.7473015  67.1834593  45.4596196
  48.7068870  66.5384270  44.8741352  49.5596333  67.1271210  45.7721608
  48.8616168  67.0793560  45.4193145  45.3380482  73.2353319  35.3621347
  44.9240881  72.5727449  34.9725189  46.0227856  73.3831178  34.8417041
  45.3778854  73.1593977  35.2277844  48.7045776  72.3943404  36.1144963
  48.3062060  72.5045675  35.3465784  48.0896996  72.6025471  36.6971523
  48.5544666  72.4416972  36.0876263  47.2773678  59.0017552  28.9819103
  46.6838518  59.3234549  28.4303670  47.3148956  58.1558647  28.7740209
  47.1948067  58.9241880  28.8701874  54.2367479  52.4530444  36.5147190
  53.7298344  51.7459584  36.4468367  55.0334913  52.1223633  36.6448266
  54.2794718  52.3003596  36.5246185  50.1531495  58.9597057  32.4120853
  49.9245188  58.9829758  31.5699212  50.4129571  58.1354524  32.5315864
  50.1577683  58.8413136  32.3046051  44.4350723  60.8131530  42.0145954
  43.9229626  60.2052713  42.3730985  44.2630220  61.5288122  42.4819929
  44.3340360  60.8294829  42.1362177  39.2816438  59.2569105  44.6648315
  39.1119028  59.9170480  44.1196522  38.8382388  59.4675666  45.3860805
  39.1915772  59.3855087  44.6909945  43.2076257  57.4973603  33.7075049
  43.6833624  57.8590683  33.0725230  42.7064857  58.1530070  33.9875192
  43.2041616  57.6467792  33.6551790  56.4387619  66.9695371  29.4988054
  56.8221225  67.7186727  29.7286151  55.6431732  67.2161191  29.2400043
  56.3781401  67.1165065  29.4945628  48.3119794  58.7355774  44.4548209
  48.8691224  58.5069584  43.8226675  47.9880859  59.4961440  44.1783422
  48.3466204  58.8139611  44.3204706  36.1818503  62.1615970  39.9236805
  35.6345222  61.4916616  40.0417674  36.9710881  61.7945818  39.9880273
  36.2170686  62.0080957  39.9505506  46.0302911  61.8223428  45.4200216
  46.7814238  62.1375104  45.7339770  46.2225487  61.6202598  44.5934138
  46.1694325  61.8390809  45.3443612  45.2502911  59.6414803  27.0748433
  45.6301875  59.6594432  26.2899548  44.5095507  60.0868791  26.9539280
  45.1971748  59.7096577  26.9412001  52.8788201  57.9496994  32.6624012
  52.8782428  57.7945650  33.5208288  52.6744381  58.7959981  32.6065397
  52.8487979  58.0517615  32.7811951  34.9405472  61.3736778  37.0782828
  34.7627233  60.9213387  37.8037744  34.6524494  62.1762940  37.2621306
  34.8718425  61.4259336  37.2126331  50.6029053  62.6294496  36.3160219
  51.0982718  61.9117491  36.2764239  49.7928829  62.3265293  36.2014706
  50.5572946  62.4792142  36.2933944  46.0487665  66.4792309  28.4657223
  45.2398987  66.1558982  28.4190533  46.5562574  65.7725531  28.3985472
  46.0037331  66.3273625  28.4487517  36.6777942  63.9064502  34.1904587
  35.8123461  63.8950192  34.0787359  36.7776758  63.7194725  35.0375727
  36.5652109  63.8770563  34.2993532  52.6680872  65.3798183  39.0037347
  53.0935944  64.8572605  38.4507772  52.3037792  65.9779021  38.4825970
  52.6767475  65.3908410  38.8446357  42.3034952  73.6762401  37.7634693
  42.6181511  74.4898789  37.7712475  42.7128365  73.2912619  38.4316852
  42.4103050  73.7391103  37.8638785  49.2559471  69.0932447  35.3338505
  49.7270650  69.8072710  35.5028490  49.5919650  68.4931198  35.8698374
  49.3754587  69.1103912  35.4370881  51.3436456  70.7033761  47.5130577
  51.4533422  69.9142321  47.8687324  51.6727353  70.6139697  46.7104915
  51.4088862  70.5739614  47.4472968  46.1728966  53.8659918  42.2896600
  46.3056872  53.0690911  42.6177575  46.5574119  54.3926321  42.8694875
  46.2485295  53.8259835  42.4240103  49.8933418  68.8850382  42.0966197
  49.3454364  68.2608265  41.8286263  50.3546447  69.0744654  41.3810277
  49.8800627  68.8209432  41.9516629  49.2461322  50.7890244  38.8877693
  48.4407285  50.6787974  39.2045531  49.1168057  50.8902700  38.0307559
  49.1081454  50.7873914  38.8085733  52.7027282  56.9535736  39.4817390
  52.1190271  57.4544942  39.0694957  53.0231576  56.4465292  38.8481713
  52.6640457  56.9527571  39.3275897  45.2422081  55.8676331  29.7576065
  46.0637776  56.0374644  29.5157759  44.7791732  56.0223592  29.0342362
  45.2953244  55.9158064  29.6147709  43.8317413  53.8619093  40.5374493
  44.3761826  53.5210220  41.1278835  43.8854349  54.7204555  40.6795778
  43.9206533  53.9374352  40.6456367  39.6447972  67.6235509  37.4113301
  40.2492829  67.5831343  36.7827122  39.4375285  68.4706661  37.4417357
  39.7036869  67.7423512  37.3229418  49.4591744  69.8901454  38.6275539
  50.2790118  69.7464420  38.8891834  49.1785822  70.5147653  39.1691977
  49.5388487  69.9611806  38.7463478  34.8799254  66.6070127  37.2812224
  34.7823532  65.7966398  37.5902281  35.6628124  66.5861920  36.8958493
  34.9815391  66.4837217  37.2699087  65.9305394  77.5466306  31.5918415
  65.8999399  78.4010943  31.7636684  66.5286743  77.2461599  32.1504559
  66.0142552  77.6282802  31.6993217  59.1305079  76.6341957  36.3471345
  58.2742975  76.7950455  36.3980462  59.1772733  75.7634021  36.3676406
  59.0104191  76.5292759  36.3577411  53.5146219  86.1704675  32.1108577
  52.7629119  85.7920213  31.8824622  53.9632231  86.2023108  31.3627387
  53.4695886  86.1190282  31.9666079  62.4398796  82.9028483  45.9531802
  63.1465563  82.4080513  46.0818736  62.6286731  83.3437564  45.2234460
  62.5726701  82.8946833  45.8640847  58.9671179  86.5930044  27.5394124
  58.6322547  87.2706966  27.1038346  59.4798049  86.2035356  26.9510996
  58.9936760  86.6354623  27.3880916  58.5075470  88.5444313  33.4805236
  58.8914850  89.1131212  32.9410011  58.4434611  87.8193823  33.0011052
  58.5548897  88.5219776  33.3299098  61.9756900  78.6934001  38.9902997
  62.5212860  79.3719087  39.0496967  61.9173777  78.5521462  38.1304579
  62.0472815  78.7726003  38.8715058  55.0930975  86.1823067  34.3771350
  55.1941338  85.3723421  34.6868477  54.4972720  86.0880013  33.7471028
  55.0203514  86.0488095  34.3297588  63.7521969  80.1218608  29.8636725
  63.6361495  80.8726294  30.2928863  64.5477856  79.8642561  30.1132812
  63.8526558  80.1953455  29.9640817  54.9331715  91.1000656  35.7786206
  55.5769170  91.5413820  36.1682364  55.2587970  90.2954082  35.6916464
  55.0763543  91.0465851  35.8231683  48.2896020  82.2043354  34.0023683
  48.0546204  81.3711006  33.8955952  48.4281660  82.4848019  33.1884884
  48.2751682  82.1226857  33.8666038  50.5886107  74.3729084  36.9007991
  49.9691139  73.7821731  36.7318006  50.4869971  74.9640519  36.2672314
  50.4823782  74.3733167  36.7812980  55.6352295  84.1112631  31.1506067
  55.9568136  84.6517838  30.5467375  56.2824391  83.5409402  31.2828357
  55.7778350  84.1071806  31.0813103  57.6854003  76.1128626  31.2340454
  58.3834167  76.2916753  31.7261917  58.0006335  75.5898965  30.6110843
  57.8349340  76.0622398  31.2142464  50.3155240  77.9181366  39.1451560
  50.1913937  78.5043811  39.7801379  50.9673524  77.4241562  39.4463835
  50.3928889  77.9320170  39.2837489  57.8741938  82.4999071  31.2220245
  58.3135573  81.8916171  31.6675018  57.7246601  82.1206444  30.4505710
  57.9163404  82.3537542  31.1739413  55.3413581  81.0943083  38.4239071
  55.9862584  80.6015526  38.1050019  55.5815358  81.2367869  39.2505149
  55.4724166  81.0420525  38.4988604  57.8799672  83.9397989  38.0745964
  58.1622915  83.1449394  37.8532719  58.6085833  84.4178576  38.0951025
  58.0289236  83.8932586  38.0448979  55.8580866  71.4821023  35.3161729
  55.5284196  71.9332166  34.6465427  55.1825868  71.4037186  35.8634735
  55.7091302  71.5372158  35.2984952  61.4751275  80.8526252  28.1751015
  61.3902570  81.7087219  28.3200584  61.9635658  80.5770576  28.8433174
  61.5340172  80.9383574  28.2953096  63.0657274  67.4706545  33.5611339
  62.7510715  68.1610024  33.9931762  62.5484216  67.4151328  32.8596840
  62.9421744  67.5641434  33.5208288  62.4069708  77.4711046  29.6748750
  61.8781179  77.6870680  30.3346056  62.9294728  78.1647185  29.5949719
  62.4058161  77.6054183  29.7604349  67.8617761  83.0457351  35.0481794
  67.0315464  83.2567995  35.2115211  67.8127013  82.2194405  34.7724078
  67.7324496  82.9546957  35.0319160  54.2969316  81.3674263  28.4756218
  53.7126531  81.8724295  28.8822082  53.8939411  81.1416650  27.7352810
  54.1508619  81.4082511  28.4261243  49.8513344  87.0829024  35.2779889
  49.3680922  87.8079514  35.2539473  50.6636662  87.3805154  35.3890047
  49.9004092  87.2331378  35.2907169  55.9227498  85.8761205  37.8829704
  55.4054440  85.5168620  37.2791012  56.6201889  85.3523379  37.8935770
  55.9493079  85.7458893  37.7959962  59.5791090  86.3256019  43.8445877
  59.6674436  86.1382160  44.6924087  60.0080803  85.6793449  43.4450724
  59.6553193  86.2019027  43.9117628  57.1461550  85.6087179  42.8263539
  56.5832385  85.1959789  43.3503200  57.9082573  85.5340085  43.2456682
  57.1755999  85.5364580  42.9656539  58.7546530  77.6139915  26.9525138
  58.9942534  77.8217899  26.1400481  59.0762371  76.8097424  27.0614083
  58.8383688  77.5254016  26.8485691  54.0636820  69.5433311  30.7984676
  54.8182788  69.9111628  30.5601727  53.8864355  69.9172865  31.5663856
  54.1491299  69.6531499  30.8769565  52.7057541  87.5985200  35.4300169
  53.4078121  87.0837189  35.4872926  52.6255025  87.9259352  36.2347044
  52.7981302  87.5699426  35.5572961  67.3571719  75.6927752  38.8432216
  66.5200140  75.7629939  39.0779810  67.3259950  75.6952246  37.9706518
  67.2290001  75.7037979  38.7491764  53.7536448  77.8360787  44.5580584
  53.9256952  77.7266682  45.4065866  54.2905806  78.4815193  44.3211777
  53.8581452  77.9152789  44.6485681  52.4193885  71.9503630  27.4962789
  52.2369458  72.1675511  26.6703782  53.2819498  72.0642643  27.5521404
  52.5198474  71.9993528  27.3817276  52.0308317  83.7891552  34.9385777
  52.8697216  84.0214485  34.9859539  52.0620086  82.9195864  34.8692813
  52.1590034  83.6948499  34.9350422  52.6561020  84.2092427  39.2399083
  53.1959245  84.0663558  39.9102455  51.9730966  84.6089178  39.6083109
  52.6353174  84.2472098  39.3933504  58.0993604  68.9530041  30.5311813
  58.8279765  68.7745996  30.0849969  58.1888497  69.7948120  30.7418991
  58.2200266  69.0513919  30.4965331  62.0801905  79.8883428  34.4344107
  62.8359420  80.3214942  34.4733016  62.1864229  79.2388198  35.0078743
  62.2072075  79.8560912  34.5242133  65.1182076  83.7156705  35.1846510
  64.6817308  83.7193448  35.9405482  64.7844991  84.3962204  34.7526088
  65.0044696  83.8169161  35.2327343  59.6911149  85.7565038  46.5089660
  60.4751566  85.8695886  46.8745403  59.4907744  84.9306175  46.7048346
  59.7777175  85.6511758  46.5924046  48.0598165  80.4292718  39.3933504
  47.7936580  79.6131835  39.5524495  48.0736729  80.4745874  38.5229020
  48.0222887  80.3149623  39.2886986  65.0379559  70.7570533  37.4275938
  65.6805467  70.8268638  38.0137853  65.2902580  70.0899756  36.9255480
  65.1701691  70.6696882  37.4403217  51.9655912  75.2277803  26.0085262
  51.2514089  74.9415982  26.4207695  52.4499881  75.5674428  26.6491650
  51.9315275  75.2359452  26.1640897  52.8096771  73.9671096  42.0400512
  52.1168568  73.4968076  42.2861244  53.4257099  73.7409401  42.6142219
  52.7981301  73.8638228  42.1609665  59.8481543  87.6675140  40.1556116
  59.0496789  87.4274640  40.4129985  60.2967554  87.7189533  40.9023164
  59.7956154  87.6397531  40.3041040  68.2526422  80.4337625  34.0766147
  68.9142856  79.8728294  33.9762056  67.6117834  79.9389656  34.4018838
  68.2555290  80.2774034  34.1098488  59.1403230  83.7307757  26.3847071
  59.5554378  83.3992780  25.6931566  58.3095159  83.4976659  26.2567207
  59.0791239  83.6479013  26.2637918  48.4691579  81.2151498  36.6745249
  48.2867152  81.1898384  35.8217541  49.2041248  81.6850435  36.7134157
  48.5505642  81.2812860  36.5543167  64.5391253  81.4503008  33.8178136
  64.7746842  81.5948206  32.9904987  64.6880816  82.2145416  34.2109650
  64.5957056  81.5842062  33.7541740  51.5337330  77.9336500  43.1827357
  52.2577303  77.9189531  43.6692252  51.6353467  78.6431856  42.6849325
  51.6555539  78.0361204  43.1806144  66.3681710  80.2904674  31.6547740
  66.6989927  80.8232314  31.0487835  66.9414798  80.3443561  32.3109691
  66.5015389  80.3774242  31.6625522  58.9082280  81.4135585  48.0476304
  58.1155260  81.7279097  48.2328924  59.0231207  81.6287054  47.2097089
  58.8077690  81.4919422  47.9514639  61.5813599  78.1369576  32.3371320
  61.6760453  78.8758870  32.7910946  60.9572442  77.7087052  32.7705885
  61.5022629  78.1830897  32.4679468  59.8366073  81.3155789  42.9861601
  60.4104934  80.6783033  43.1410165  59.7580876  81.3159871  42.1171259
  59.9099307  81.2220900  42.8808012  48.4362489  78.0944998  36.8244315
  49.0135992  77.9581449  37.4636560  47.7376551  77.6380782  37.0789899
  48.4183510  78.0067264  36.9566605  61.8336620  79.9818316  25.5708272
  61.7516783  80.0520503  26.4363259  62.4716340  80.5448060  25.3792013
  61.9156457  80.0757287  25.6698222  55.1929791  79.7479054  35.0382798
  54.9349035  78.9150789  35.0114098  55.2478274  79.9736667  34.1975299
  55.1629569  79.6576825  34.9102935  60.2730841  71.8507505  35.1386891
  59.5687168  71.3616690  35.2970810  60.3215816  71.8629979  34.2675335
  60.1760893  71.7797153  35.0326231  54.1664503  77.3016816  35.5247693
  53.5914095  77.4608985  36.1611654  53.7900180  76.6652226  35.0616144
  54.0267316  77.2314629  35.5502251  57.8337792  75.7740166  40.3840072
  57.4452225  75.3494383  39.7292263  57.1692490  76.0222315  40.8917098
  57.6784720  75.7478887  40.3627939  67.4761061  75.5315170  33.1587902
  67.2197626  74.7195112  32.9685784  68.3190375  75.5392738  32.9318089
  67.5627086  75.4127168  33.0972719  43.9121322  76.9456891  33.5392134
  43.9981574  76.5688760  34.3205664  44.5397120  76.5717337  33.0612092
  44.0177873  76.8342373  33.5837611  61.6564153  69.4714794  37.8964056
  62.0374665  68.7892966  38.2831930  60.8527438  69.1824397  37.7139720
  61.5940615  69.3281843  37.9268112  58.9376730  80.0038770  28.5816878
  59.7517369  80.2953663  28.4699650  58.8735871  79.3498633  28.0075171
  59.0479469  79.9503965  28.4805716  65.1586220  82.6864766  42.9946454
  64.9224858  81.8552831  42.8758515  65.8029449  82.6350374  43.5801298
  65.2180891  82.5562454  43.0632348  54.8084638  83.4760288  33.7089191
  55.4458585  83.2372035  34.2540984  55.2339710  83.6797447  32.9742351
  54.9660805  83.4711298  33.6806348  49.4997281  85.7148624  37.5923494
  49.5401426  85.9863475  36.7643274  50.0591805  86.2390532  38.0081282
  49.5880627  85.8324379  37.5315383  55.4487453  78.6962578  28.0464080
  55.8332606  78.4770284  28.7980625  55.1999074  79.5225523  28.1765156
  55.4689526  78.7860724  28.1765156  55.6155994  71.9768993  47.7626664
  55.3009435  72.7468555  47.4996227  55.2945926  71.4139249  47.1778891
  55.5214913  72.0079261  47.6368014  66.1822641  82.4709215  39.0574749
  65.8768458  83.2037272  39.4188064  65.4628857  82.0647145  38.7767535
  66.0309983  82.5190948  39.0687886  57.1906110  83.9532710  35.3882977
  57.2645119  83.7907882  36.2424827  58.0075617  84.1422900  35.1443458
  57.3222469  83.9569453  35.4781002  71.8824433  79.1102216  38.3843093
  71.8148933  79.1298175  37.5145679  71.8680096  79.9532543  38.6098763
  71.8703190  79.2375951  38.2895570  50.9511867  84.2990573  32.4177420
  50.1249985  84.5452310  32.2911699  51.0123858  84.2202654  33.2839478
  50.8386034  84.3235522  32.5266365  53.1687891  70.3659514  33.3772860
  52.3010316  70.4382114  33.4430470  53.4563095  71.1681593  33.5660836
  53.0827639  70.4953661  33.4147627  62.2920780  70.5137374  41.7084182
  63.0374372  70.3247184  41.2947608  61.8758084  71.0395612  41.1498039
  62.3405754  70.5639519  41.5648756  55.7310696  86.9167453  30.1196450
  56.0208995  86.5256435  29.3955677  56.4614177  87.0984158  30.5601726
  55.8817580  86.8861267  30.0779257  69.6683050  77.8846602  36.6589687
  70.2190972  77.2514671  36.8986779  69.6527166  78.4161995  37.3505192
  69.7468247  77.8695550  36.7968545  56.3205441  81.7185199  41.2049581
  55.8217135  82.4300967  41.2834469  57.1305666  82.0385866  41.1667743
  56.3661548  81.8712048  41.2106149  53.6716612  88.8934836  33.1856600
  53.4516907  88.6032191  33.9783267  53.4511134  88.2349791  32.6574512
  53.6064206  88.7534544  33.2245509  52.5833559  80.9808152  35.4512302
  52.2946808  80.3545624  35.9858029  53.4516907  80.9228440  35.5176982
  52.6693811  80.8795697  35.5403256  63.3711457  76.1242936  35.7694283
  63.0276223  75.4033271  36.1201533  63.4704499  75.9156787  34.9272642
  63.3353500  75.9867139  35.6965964  55.8384567  90.2664226  31.9687292
  56.4908625  89.7340668  32.1978318  55.1410176  89.9132878  32.3555166
  55.8315285  90.1353749  32.0599460  52.7865832  82.6203403  31.3754667
  53.5411800  83.0016442  31.5890129  52.1936445  83.0714547  31.8301363
  52.8102546  82.7432231  31.4737545  63.8324486  82.5868640  31.3118272
  64.3982518  83.2461850  31.2276815  63.1852389  82.9318338  31.7834674
  63.8203242  82.7350581  31.3691028  55.2472499  74.5766244  46.5011879
  54.4372275  74.8824023  46.3901721  55.7247186  75.2971826  46.6164463
  55.1975978  74.7280845  46.5018950  54.1064059  83.7911965  36.7494782
  53.5844812  83.9312256  37.4346647  54.4938079  83.0322629  36.9396899
  54.0867760  83.6997489  36.8795859  51.0955243  73.8417773  30.8189737
  50.8080039  73.4719044  30.0821684  51.7825711  74.3112629  30.5573442
  51.1544140  73.8564743  30.6704812  60.3031064  85.5307424  30.7355351
  60.0617740  84.7975285  30.3282416  60.4832397  86.0794281  30.0821684
  60.2938688  85.5029815  30.5785574  55.5330384  80.8215984  32.1476273
  55.3373167  81.4290718  31.5536576  55.7564730  80.1283928  31.6667947
  55.5365026  80.8093509  31.9892354  53.9308914  77.7070722  32.2657141
  54.6531566  77.8711880  31.8060947  53.4516907  78.4280387  32.1596481
  53.9672645  77.8368951  32.1822755  61.8902422  74.0434520  37.6453826
  61.0513523  74.0695799  37.4092090  61.9606789  74.6905256  38.2259173
  61.7770816  74.1430646  37.6962943  51.5816531  80.1128794  41.3711281
  52.0937628  80.3913047  40.7220041  51.2952874  80.8518088  41.7374094
  51.6151394  80.2631148  41.3301159  60.3371700  70.9419898  32.3781442
  61.0398053  70.7427646  31.9001401  60.0715889  70.1695840  32.6850286
  60.4018333  70.7982864  32.3526884  65.7659946  79.2502507  34.9315068
  65.6793920  79.4057933  35.7849847  65.3110426  79.8940583  34.5574473
  65.6863203  79.3678262  35.0022175  48.6683438  74.6198986  31.6675018
  48.7699574  75.4225147  31.9955993  49.4639324  74.4186322  31.3698098
  48.8011343  74.7084885  31.6710373  55.1000257  72.2055183  41.4312323
  54.9083454  72.2210317  42.2811746  55.9498853  72.4018857  41.4078978
  55.1975979  72.2369534  41.5535618  49.4847170  74.7346164  39.4096139
  49.3432661  73.8830105  39.5340647  49.7687733  74.7774825  38.5858345
  49.5055016  74.6145914  39.3063763  59.6385762  76.5713254  33.5540628
  59.3920476  76.4909005  34.3877417  59.9670885  75.7866722  33.3603155
  59.6507006  76.4439520  33.6488151  63.5333811  83.2796614  37.3427409
  63.3948170  83.9777660  37.8476151  62.7533809  83.1245270  36.9863591
  63.3977038  83.3596780  37.3653683  61.8711896  79.5792989  43.5949791
  61.8659934  78.7072806  43.5992217  62.5772890  79.7781158  43.1219246
  61.9756900  79.4796863  43.5256826  55.5982789  79.3069973  42.9663611
  55.7426165  79.8871181  42.3306721  55.9458438  79.6846270  43.6713465
  55.6710251  79.4490677  42.9762606  57.7702707  78.5060141  40.7488742
  57.0226021  78.6991156  40.3437020  57.9244232  77.6805361  40.5112864
  57.6825134  78.4125253  40.6534148  54.6710544  87.4972745  39.8324638
  54.8200108  86.9375661  39.1798042  55.4510546  87.5764746  40.2157156
  54.8084638  87.4258310  39.7921587  65.0287184  82.6374867  28.1043908
  64.6493992  81.8512005  28.0973197  64.3653429  83.1861724  27.9615552
  64.8745658  82.6019691  28.0824705  57.1963845  87.6687388  41.1109128
  57.1207516  86.9996198  41.6659917  57.1253704  88.3705176  41.6249795
  57.1744452  87.6732295  41.2685976  58.0104484  72.4010692  41.6384146
  58.4677098  73.1334666  41.7656938  58.0860812  71.9777157  42.3971402
  58.0895453  72.4467930  41.7685223  50.2537475  72.6476512  42.7273590
  49.7179664  72.0356870  43.0434357  50.3155240  73.2224648  43.3807256
  50.1833108  72.6423440  42.8709016  62.4831810  65.5800567  35.5077989
  62.6015378  66.0377031  34.7745292  62.3093985  64.7745828  35.2214207
  62.4750981  65.5294339  35.3578923  57.8534092  86.1888387  31.9432734
  58.6183983  85.9198030  31.6215399  57.7512182  85.7038397  32.6602797
  57.9515587  86.0777951  32.0012562  55.8886862  74.3912796  38.4825970
  55.0982936  74.2104256  38.8043306  56.2847484  73.6139749  38.4656265
  55.8303738  74.2500257  38.5278518  60.3752752  83.2200570  23.9232684
  61.1425737  83.2800695  23.5138535  59.9284061  82.6481012  23.4389002
  60.4226180  83.1437146  23.7910394  61.2730548  82.0255226  36.2085416
  60.5975550  81.7940458  36.7098803  61.2822924  81.4176409  35.5827521
  61.1749052  81.9014151  36.1901568  58.4024692  76.8673055  42.9649469
  58.3383833  77.7283012  42.8369606  58.5421880  76.5505048  42.1645020
  58.4140162  76.9473222  42.8277682  63.2747282  84.8820359  28.4395594
  63.3567120  85.6887345  28.1157045  63.7597025  84.9016318  29.1636367
  63.3584440  85.0041021  28.4982493  57.0843786  79.5605194  37.1065672
  56.6606035  79.7609693  36.3704690  56.9088641  78.7134042  37.2189972
  56.9954666  79.4653976  37.0139362  56.5855479  91.0755707  39.5687129
  57.0751409  90.3766497  39.3862794  56.0139711  90.7779577  40.1563187
  56.5740009  90.9281931  39.6288170  52.3726231  80.0557246  32.5393644
  52.5290850  79.9904049  33.3949636  52.7126824  80.8305798  32.3272324
  52.4459466  80.1606444  32.6348239  58.9105375  79.4315129  31.4087008
  59.4520921  78.9285511  31.8725628  59.2251934  79.3780324  30.5976493
  59.0369772  79.3494550  31.3570820  62.7822483  83.6417777  48.5213920
  63.5957348  83.3702926  48.6819052  62.6217449  83.3425317  47.7174116
  62.8792431  83.5572703  48.4259326  57.0791825  84.8232481  28.6927036
  57.1484645  83.9647019  28.8320036  57.8580280  85.0404362  28.3646060
  57.2044675  84.7285345  28.6644193  60.0594645  74.3251434  41.4609308
  60.2736614  73.6862348  40.9072662  59.4428544  74.7697258  41.0317170
  59.9999974  74.2961578  41.3159739  61.4699313  87.2470182  32.9063529
  61.0779104  86.9436897  32.1886395  61.6252385  88.0839272  32.7168483
  61.4352902  87.3254019  32.7720026  48.9460492  77.2392196  32.8554412
  49.3259457  77.6576741  32.1914679  48.3715857  77.8205652  33.1623255
  48.9171817  77.3870055  32.8031153  62.2233733  75.9340499  42.3992615
  61.4110414  75.6266390  42.4805788  62.6823667  75.4539499  42.9635327
  62.1714117  75.8176992  42.4947209  61.6338987  83.8120171  32.8469560
  61.2753642  83.9834814  33.6233592  61.1477698  84.2733377  32.2897558
  61.5097684  83.9059142  32.8794829  59.4509373  67.4351370  36.4496651
  58.5802931  67.4090091  36.4029960  59.7049715  67.2628562  35.6322497
  59.3602933  67.4061513  36.3216788  56.4227353  79.4919337  25.3869794
  56.7119878  80.2684219  25.6613368  56.5099152  78.9808068  26.0884293
  56.4781609  79.5311255  25.5312292  59.3187240  77.3400571  47.1821317
  59.7886871  77.9642687  47.5689192  59.3649120  76.6717546  47.7414532
  59.3955116  77.3335251  47.3221389  56.4758514  69.4457598  37.9070121
  55.9597002  68.7537790  38.0321700  55.9152443  70.1128375  37.8532720
  56.3165027  69.4420856  37.9176187  58.5450747  69.9850558  39.7362974
  58.1582500  70.0099590  40.5176504  58.0583685  69.4192237  39.2837490
  58.4163256  69.9046309  39.7850878  62.7943727  84.7024067  43.7936760
  63.4323447  84.2084263  43.4599216  62.1517818  84.6301468  43.2088987
  62.7937953  84.6183076  43.6579115  64.5200727  76.5513213  38.3602676
  64.0928335  76.4639562  37.6050776  63.8826780  76.6590989  38.9457520
  64.3630334  76.5545873  38.3348118  58.2107889  66.8717544  42.0273234
  58.8401007  67.4077844  41.7494304  58.3793752  66.7794903  42.8786799
  58.3285684  66.9378906  42.1121762  58.0121804  71.6588738  44.2999645
  58.8395233  71.3873887  44.3558260  58.0329650  72.4549580  44.6563463
  58.1374654  71.7368493  44.3614828  62.8497983  85.3943875  40.4342117
  63.6390361  85.0432940  40.5544199  63.0241581  86.2080264  40.1718751
  62.9918265  85.4629732  40.4129985  52.5891294  78.8052601  37.4869906
  51.7479300  78.7056475  37.6948800  52.7981302  79.5748081  37.8384227
  52.4955986  78.9044644  37.5697221  50.0666861  76.4272138  35.3154657
  49.6723558  76.5015150  34.5404766  49.5106978  76.8130084  35.8663018
  49.9269673  76.4953913  35.2822316  61.7031807  69.4053432  34.9958536
  61.9081401  69.3375740  35.8415533  61.3758231  70.2112253  34.9279713
  61.6847055  69.5139373  35.1118191  56.4007959  76.7334000  36.7367504
  56.0971096  76.1789989  37.3377911  55.6987379  76.9126210  36.2495538
  56.2524168  76.6778783  36.7537209  55.4574056  74.0434520  31.3012205
  55.7333790  73.3253433  30.8889773  56.0572725  74.6419440  31.0933311
  55.5867320  74.0254891  31.2092967  54.4626310  83.9483721  41.4439601
  54.3546665  83.9585783  42.3101659  54.6722091  84.7738501  41.2544555
  54.4776421  84.0724796  41.5443693  64.9565495  69.9585196  34.4761301
  64.3439809  70.4455598  34.8615033  65.0529670  69.2828687  35.0198952
  64.8803393  69.9303505  34.6140159  58.9584576  71.7148037  29.5758800
  59.4128323  71.8858598  30.3006645  59.4324622  71.1016148  29.1756576
  59.0952896  71.6498923  29.6232562  52.4800102  81.1996363  38.9061539
  51.8888035  81.8405862  38.8764554  53.2421125  81.6233981  38.8792838
  52.5048362  81.3572202  38.8976686  52.8760724  72.3598361  39.5729556
  53.3362206  72.4337291  40.3104680  52.9216831  73.1579615  39.2229378
  52.9511280  72.4892508  39.6302313  54.5244074  73.0265056  44.1401584
  54.1329639  72.3798403  44.5757361  54.6929937  73.6176491  44.7595839
  54.4914984  73.0179324  44.2964290  68.5990523  81.0302133  39.9038817
  68.6573647  81.4788782  40.6498794  67.9656991  81.4400946  39.4668897
  68.5141818  81.1575868  39.9491365  62.2389618  86.6505675  36.3393563
  62.0409306  87.1396489  35.6449775  61.6177329  86.8546916  36.9177697
  62.1177182  86.7522213  36.3216787  56.2997596  78.4190572  30.6803808
  57.0439641  78.8064848  30.9186758  56.4458292  77.5747997  30.8444295
  56.4308181  78.3521045  30.7397777  58.2177172  70.2140831  35.7135669
  57.3713217  70.3863638  35.5877019  58.2148304  69.4090174  36.0501497
  58.0924322  70.1201860  35.7446796  59.2875472  73.9916045  36.5797727
  58.8135426  73.4657807  37.0903038  59.6593608  73.4445518  36.0112588
  59.2725361  73.8332042  36.5712874  49.6648502  75.9887552  41.9481273
  50.5274115  75.8883261  41.8618603  49.3340285  75.4082261  41.3866845
  49.7433699  75.8879179  41.8526679  65.5512203  79.0518421  37.9904507
  65.3110426  78.2124836  37.9946934  66.0304210  79.1318587  38.7145281
  65.5864386  78.9399820  38.0979310  61.2158972  74.8852600  29.6423481
  60.6881990  74.9681344  28.9529190  61.6754680  75.6270471  29.6388125
  61.2060822  75.0073262  29.5398176  67.5517390  75.8319878  35.9433767
  67.3127160  75.7915712  35.1054551  67.7151291  76.6791030  36.0699488
  67.5407693  75.9511963  35.8387249  64.1563420  80.2169827  41.8738812
  64.8797619  79.7642354  41.6949832  63.8913382  80.4974493  41.0911140
  64.2244693  80.1920796  41.7317527  53.0250288  74.8130001  38.6091691
  52.4003358  74.8248393  38.0017644  52.6895883  75.2890176  39.2582931
  52.8835780  74.8848518  38.6148259  53.2092037  73.1555119  24.6664376
  52.8604841  73.8074845  25.1295925  52.7288483  73.1412232  23.9388247
  53.0862281  73.2498173  24.6275467  49.7375964  82.8730461  40.0495455
  49.2075888  82.1822900  40.0990430  50.0101057  82.8640646  39.2208164
  49.7000686  82.7697593  39.9342871  60.7696054  83.4556163  28.7733138
  61.4930253  83.9214276  28.6297711  60.3296645  83.5229773  28.0230735
  60.8111746  83.5340000  28.6417919  59.9382209  80.3153706  40.0233827
  59.3239202  79.7711756  40.3182462  60.4549494  79.8017942  39.5439643
  59.9237872  80.1590115  39.9958055  59.1778506  81.3857976  37.7578125
  58.7506114  80.7607694  37.3243561  59.1703451  81.1032897  38.5837133
  59.1137648  81.2510756  37.8157953  52.2941034  76.4223149  40.8266559
  52.4534520  75.6666473  41.2318281  52.1133927  76.9714088  41.4807297
  52.2906393  76.3916962  40.9829265  60.2361337  68.5884384  41.3817349
  59.7401898  68.7848058  40.6908916  60.9930399  68.9877052  41.2106151
  60.2748161  68.6762118  41.2537486  57.5064216  72.2626730  37.9720659
  57.5306703  71.7286842  37.2833439  57.7575690  71.7544039  38.6346250
  57.5474135  72.1087634  37.9685304  45.0171806  79.5458225  37.4063803
  44.9115255  79.5005069  36.5415888  44.2672026  79.8912006  37.6878088
  44.8907409  79.5899133  37.3201133  53.7865538  70.9897548  37.3526404
  53.8263910  71.4906755  38.0661111  52.9615203  71.0807942  37.0832327
  53.6705064  71.0779365  37.4176942  55.9695151  80.5558288  45.4546698
  55.1190782  80.6930003  45.5904343  56.1323279  79.8222067  45.8994400
  55.8679015  80.4672390  45.5402298  55.2079902  77.5058058  39.6500303
  54.3771831  77.6731876  39.4435551  55.1531419  77.1294009  40.4349188
  55.0769317  77.4747789  39.7348831  53.0163685  70.9966951  45.2856713
  53.6416388  70.4529084  45.5586146  52.5614165  70.5161869  44.7164504
  53.0411946  70.8456432  45.2418307  53.5815946  75.7813650  30.1790420
  53.7218907  76.2786114  30.8819062  54.0798478  75.0799944  30.3204634
  53.6757026  75.7515628  30.3041999  53.6116168  76.6480761  27.5082997
  54.2461247  77.2441186  27.4432459  53.6941779  76.3484218  28.3228867
  53.7172719  76.6921669  27.6186084  66.5898734  79.1796238  40.3769361
  67.1816574  79.8193489  40.4087560  67.0257728  78.4819275  40.6661428
  66.7417165  79.1714588  40.4250194  55.1895151  72.5794736  27.4828439
  55.5110992  72.0997819  26.8287702  55.4522095  73.3894382  27.2919251
  55.2761176  72.6284634  27.3583931  58.4192124  83.6013610  41.0027255
  57.9117215  84.1549457  41.4467886  58.1218770  83.6621900  40.1846030
  58.2997009  83.6919922  40.9475712  60.5854306  71.9666930  39.8451918
  61.0109377  71.5139457  39.2335445  59.9711299  71.4127001  40.1216706
  60.5582951  71.8180906  39.7956944  50.1169156  78.8448601  30.7772543
  50.6261385  79.4413109  31.1583849  50.5903428  78.5774575  30.0948963
  50.2612532  78.8934417  30.7327066  61.0299904  87.5176868  28.9331199
  60.3129214  87.3437730  28.4678436  61.6806641  87.2829440  28.4006685
  61.0201754  87.4572661  28.7860417  59.0248529  68.4382030  33.2542495
  58.3816847  68.2879676  33.8227634  58.6847936  68.1924375  32.4891600
  58.8793606  68.3794152  33.2245511  63.6147875  76.3941457  32.6772504
  62.9439065  76.9371159  32.5485570  64.3087625  76.8636312  32.4354199
  63.6176743  76.5439728  32.6228032  57.6634609  88.5338169  37.9084262
  57.4400263  87.7756998  38.2768289  57.1744452  88.5636190  37.1864702
  57.5578058  88.4260393  37.8561003  63.7776003  72.8497340  35.5862877
  64.1303613  72.4227063  36.2608676  62.9190804  72.7648184  35.7163954
  63.7025447  72.7742081  35.7057888  52.4759688  75.4804860  33.6445724
  51.7571677  75.8968993  33.9118587  52.8472050  76.0459099  33.0937362
  52.4251619  75.6254141  33.6028531  61.7759268  76.1132709  39.5347719
  61.7557196  75.9316004  40.3882498  61.8238469  76.9844727  39.5107303
  61.7793909  76.2149247  39.6571014  59.7205598  82.7019901  45.4596196
  59.6801453  82.0569578  44.8741352  60.5328916  82.6456518  45.7721608
  59.8348752  82.5978868  45.4193145  56.3113066  88.7538627  35.3621347
  55.8973464  88.0912757  34.9725189  56.9960440  88.9016486  34.8417041
  56.3511437  88.6779285  35.2277844  59.6778360  87.9128712  36.1144963
  59.2794643  88.0230982  35.3465784  59.0629579  88.1210778  36.6971523
  59.5277249  87.9602280  36.0876263  58.2506262  74.5202860  28.9819103
  57.6571101  74.8419856  28.4303670  58.2881540  73.6743955  28.7740209
  58.1680651  74.4427188  28.8701874  65.2100063  67.9715752  36.5147190
  64.7030927  67.2644892  36.4468367  66.0067496  67.6408941  36.6448266
  65.2527302  67.8188904  36.5246185  61.1264079  74.4782364  32.4120853
  60.8977772  74.5015066  31.5699212  61.3862155  73.6539831  32.5315864
  61.1310267  74.3598444  32.3046051  55.4083307  76.3316837  42.0145954
  54.8962210  75.7238020  42.3730985  55.2362803  77.0473430  42.4819929
  55.3072944  76.3480137  42.1362177  50.2549022  74.7754413  44.6648315
  50.0851612  75.4355788  44.1196522  49.8114972  74.9860974  45.3860805
  50.1648355  74.9040395  44.6909945  54.1808841  73.0158911  33.7075049
  54.6566207  73.3775991  33.0725230  53.6797441  73.6715378  33.9875192
  54.1774200  73.1653100  33.6551790  67.4120203  82.4880679  29.4988054
  67.7953808  83.2372035  29.7286151  66.6164316  82.7346498  29.2400043
  67.3513985  82.6350373  29.4945628  59.2852377  74.2541082  44.4548209
  59.8423807  74.0254892  43.8226675  58.9613442  75.0146748  44.1783422
  59.3198787  74.3324919  44.3204706  47.1551086  77.6801278  39.9236805
  46.6077806  77.0101924  40.0417674  47.9443464  77.3131126  39.9880273
  47.1903270  77.5266265  39.9505506  57.0035495  77.3408735  45.4200216
  57.7546822  77.6560412  45.7339770  57.1958071  77.1387906  44.5934138
  57.1426909  77.3576117  45.3443612  56.2235494  75.1600111  27.0748433
  56.6034459  75.1779740  26.2899548  55.4828090  75.6054099  26.9539280
  56.1704332  75.2281885  26.9412001  63.8520785  73.4682302  32.6624012
  63.8515011  73.3130958  33.5208288  63.6476965  74.3145289  32.6065397
  63.8220563  73.5702922  32.7811951  45.9138056  76.8922086  37.0782828
  45.7359817  76.4398695  37.8037744  45.6257078  77.6948248  37.2621306
  45.8451009  76.9444644  37.2126331  61.5761637  78.1479804  36.3160219
  62.0715302  77.4302799  36.2764239  60.7661412  77.8450601  36.2014706
  61.5305530  77.9977450  36.2933944  57.0220248  81.9977617  28.4657223
  56.2131571  81.6744290  28.4190533  57.5295157  81.2910839  28.3985472
  56.9769915  81.8458933  28.4487517  47.6510526  79.4249810  34.1904587
  46.7856045  79.4135500  34.0787359  47.7509341  79.2380033  35.0375727
  47.5384692  79.3955871  34.2993532  63.6413456  80.8983491  39.0037347
  64.0668527  80.3757913  38.4507772  63.2770375  81.4964328  38.4825970
  63.6500058  80.9093718  38.8446357  53.2767535  89.1947709  37.7634693
  53.5914094  90.0084097  37.7712475  53.6860949  88.8097927  38.4316852
  53.3835633  89.2576411  37.8638785  60.2292055  84.6117755  35.3338505
  60.7003233  85.3258018  35.5028490  60.5652234  84.0116505  35.8698374
  60.3487170  84.6289220  35.4370881  62.3169040  86.2219069  47.5130577
  62.4266005  85.4327629  47.8687324  62.6459936  86.1325005  46.7104915
  62.3821445  86.0924922  47.4472968  57.1461550  69.3845226  42.2896600
  57.2789456  68.5876219  42.6177575  57.5306703  69.9111629  42.8694875
  57.2217879  69.3445143  42.4240103  60.8666001  84.4035689  42.0966197
  60.3186947  83.7793573  41.8286263  61.3279030  84.5929961  41.3810277
  60.8533211  84.3394740  41.9516629  60.2193905  66.3075552  38.8877693
  59.4139869  66.1973282  39.2045531  60.0900641  66.4088008  38.0307559
  60.0814038  66.3059222  38.8085733  63.6759866  72.4721044  39.4817390
  63.0922855  72.9730250  39.0694957  63.9964160  71.9650600  38.8481713
  63.6373041  72.4712879  39.3275897  56.2154665  71.3861639  29.7576065
  57.0370359  71.5559952  29.5157759  55.7524316  71.5408900  29.0342362
  56.2685827  71.4343372  29.6147709  54.8049997  69.3804401  40.5374493
  55.3494410  69.0395528  41.1278835  54.8586933  70.2389863  40.6795778
  54.8939116  69.4559660  40.6456367  50.6180556  83.1420817  37.4113301
  51.2225413  83.1016651  36.7827122  50.4107868  83.9891969  37.4417357
  50.6769453  83.2608819  37.3229418  60.4324328  85.4086762  38.6275539
  61.2522701  85.2649728  38.8891834  60.1518405  86.0332961  39.1691977
  60.5121071  85.4797114  38.7463478  45.8531838  82.1255435  37.2812224
  45.7556116  81.3151706  37.5902281  46.6360708  82.1047228  36.8958493
  45.9547974  82.0022525  37.2699087  76.9037978  93.0651614  31.5918415
  76.8731982  93.9196251  31.7636684  77.5019327  92.7646906  32.1504559
  76.9875136  93.1468110  31.6993217  70.1037663  92.1527265  36.3471345
  69.2475558  92.3135763  36.3980462  70.1505317  91.2819329  36.3676406
  69.9836774  92.0478067  36.3577411  64.4878803 101.6889983  32.1108577
  63.7361702 101.3105521  31.8824622  64.9364814 101.7208416  31.3627387
  64.4428469 101.6375590  31.9666079  73.4131379  98.4213790  45.9531802
  74.1198147  97.9265821  46.0818736  73.6019315  98.8622872  45.2234460
  73.5459285  98.4132141  45.8640847  69.9403762 102.1115352  27.5394124
  69.6055131 102.7892274  27.1038346  70.4530633 101.7220664  26.9510996
  69.9669344 102.1539930  27.3880916  69.4808054 104.0629621  33.4805236
  69.8647433 104.6316520  32.9410011  69.4167195 103.3379131  33.0011052
  69.5281481 104.0405084  33.3299098  72.9489484  94.2119309  38.9902997
  73.4945444  94.8904395  39.0496967  72.8906360  94.0706770  38.1304579
  73.0205398  94.2911310  38.8715058  66.0663559 101.7008375  34.3771350
  66.1673922 100.8908729  34.6868477  65.4705304 101.6065321  33.7471028
  65.9936097 101.5673403  34.3297588  74.7254553  95.6403916  29.8636725
  74.6094079  96.3911602  30.2928863  75.5210439  95.3827869  30.1132812
  74.8259142  95.7138763  29.9640817  65.9064298 106.6185964  35.7786206
  66.5501754 107.0599128  36.1682364  66.2320554 105.8139390  35.6916464
  66.0496127 106.5651159  35.8231683  59.2628603  97.7228661  34.0023683
  59.0278788  96.8896314  33.8955952  59.4014244  98.0033327  33.1884884
  59.2484266  97.6412165  33.8666038  61.5618691  89.8914392  36.9007991
  60.9423722  89.3007039  36.7318006  61.4602554  90.4825827  36.2672314
  61.4556366  89.8918475  36.7812980  66.6084878  99.6297939  31.1506067
  66.9300719 100.1703146  30.5467375  67.2556975  99.0594710  31.2828357
  66.7510933  99.6257114  31.0813103  68.6586586  91.6313934  31.2340454
  69.3566751  91.8102061  31.7261917  68.9738919  91.1084273  30.6110843
  68.8081923  91.5807706  31.2142464  61.2887824  93.4366674  39.1451560
  61.1646520  94.0229119  39.7801379  61.9406108  92.9426869  39.4463835
  61.3661473  93.4505478  39.2837489  68.8474522  98.0184379  31.2220245
  69.2868157  97.4101479  31.6675018  68.6979184  97.6391752  30.4505710
  68.8895987  97.8722850  31.1739413  66.3146165  96.6128391  38.4239071
  66.9595167  96.1200834  38.1050019  66.5547942  96.7553177  39.2505149
  66.4456750  96.5605833  38.4988604  68.8532256  99.4583297  38.0745964
  69.1355499  98.6634702  37.8532719  69.5818416  99.9363884  38.0951025
  69.0021820  99.4117893  38.0448979  66.8313450  87.0006331  35.3161729
  66.5016780  87.4517474  34.6465427  66.1558452  86.9222494  35.8634735
  66.6823886  87.0557466  35.2984952  72.4483858  96.3711560  28.1751015
  72.3635153  97.2272527  28.3200584  72.9368241  96.0955884  28.8433174
  72.5072755  96.4568882  28.2953096  74.0389858  82.9891853  33.5611339
  73.7243299  83.6795332  33.9931762  73.5216799  82.9336636  32.8596840
  73.9154328  83.0826742  33.5208288  73.3802291  92.9896354  29.6748750
  72.8513763  93.2055988  30.3346056  73.9027311  93.6832493  29.5949719
  73.3790744  93.1239491  29.7604349  78.8350344  98.5642659  35.0481794
  78.0048047  98.7753302  35.2115211  78.7859597  97.7379713  34.7724078
  78.7057080  98.4732265  35.0319160  65.2701899  96.8859571  28.4756218
  64.6859114  97.3909603  28.8822082  64.8671994  96.6601958  27.7352810
  65.1241203  96.9267819  28.4261243  60.8245928 102.6014332  35.2779889
  60.3413506 103.3264822  35.2539473  61.6369246 102.8990462  35.3890047
  60.8736675 102.7516686  35.2907169  66.8960082 101.3946513  37.8829704
  66.3787023 101.0353928  37.2791012  67.5934473 100.8708687  37.8935770
  66.9225663 101.2644201  37.7959962  70.5523674 101.8441327  43.8445877
  70.6407020 101.6567467  44.6924087  70.9813386 101.1978757  43.4450724
  70.6285776 101.7204335  43.9117628  68.1194134 101.1272487  42.8263539
  67.5564968 100.7145097  43.3503200  68.8815157 101.0525393  43.2456682
  68.1488582 101.0549888  42.9656539  69.7279114  93.1325223  26.9525138
  69.9675117  93.3403207  26.1400481  70.0494955  92.3282732  27.0614083
  69.8116271  93.0439324  26.8485691  65.0369404  85.0618619  30.7984676
  65.7915372  85.4296936  30.5601727  64.8596938  85.4358173  31.5663856
  65.1223882  85.1716807  30.8769565  63.6790125 103.1170508  35.4300169
  64.3810704 102.6022497  35.4872926  63.5987608 103.4444660  36.2347044
  63.7713885 103.0884734  35.5572961  78.3304303  91.2113059  38.8432216
  77.4932724  91.2815247  39.0779810  78.2992533  91.2137554  37.9706518
  78.2022585  91.2223286  38.7491764  64.7269032  93.3546095  44.5580584
  64.8989535  93.2451990  45.4065866  65.2638389  94.0000501  44.3211777
  64.8314036  93.4338097  44.6485681  63.3926468  87.4688938  27.4962789
  63.2102042  87.6860819  26.6703782  64.2552081  87.5827951  27.5521404
  63.4931058  87.5178836  27.3817276  63.0040900  99.3076860  34.9385777
  63.8429800  99.5399793  34.9859539  63.0352670  98.4381172  34.8692813
  63.1322618  99.2133807  34.9350422  63.6293603  99.7277735  39.2399083
  64.1691828  99.5848866  39.9102455  62.9463550 100.1274486  39.6083109
  63.6085757  99.7657406  39.3933504  69.0726188  84.4715349  30.5311813
  69.8012348  84.2931304  30.0849969  69.1621081  85.3133428  30.7418991
  69.1932850  84.5699227  30.4965331  73.0534488  95.4068736  34.4344107
  73.8092003  95.8400250  34.4733016  73.1596813  94.7573506  35.0078743
  73.1804659  95.3746220  34.5242133  76.0914659  99.2342013  35.1846510
  75.6549891  99.2378756  35.9405482  75.7577575  99.9147512  34.7526088
  75.9777279  99.3354469  35.2327343  70.6643733 101.2750346  46.5089660
  71.4484150 101.3881194  46.8745403  70.4640328 100.4491483  46.7048346
  70.7509758 101.1697065  46.5924046  59.0330749  95.9478026  39.3933504
  58.7669164  95.1317143  39.5524495  59.0469313  95.9931182  38.5229020
  58.9955471  95.8334931  39.2886986  76.0112142  86.2755841  37.4275938
  76.6538051  86.3453946  38.0137853  76.2635163  85.6085064  36.9255480
  76.1434274  86.1882190  37.4403217  62.9388495  90.7463111  26.0085262
  62.2246673  90.4601290  26.4207695  63.4232464  91.0859736  26.6491650
  62.9047859  90.7544760  26.1640897  63.7829355  89.4856404  42.0400512
  63.0901152  89.0153384  42.2861244  64.3989682  89.2594709  42.6142219
  63.7713885  89.3823536  42.1609665  70.8214126 103.1860448  40.1556116
  70.0229372 102.9459948  40.4129985  71.2700138 103.2374841  40.9023164
  70.7688738 103.1582839  40.3041040  79.2259006  95.9522933  34.0766147
  79.8875440  95.3913602  33.9762056  78.5850418  95.4574964  34.4018838
  79.2287873  95.7959342  34.1098488  70.1135813  99.2493065  26.3847071
  70.5286962  98.9178088  25.6931566  69.2827743  99.0161967  26.2567207
  70.0523822  99.1664320  26.2637918  59.4424162  96.7336806  36.6745249
  59.2599735  96.7083692  35.8217541  60.1773831  97.2035743  36.7134157
  59.5238226  96.7998168  36.5543167  75.5123836  96.9688316  33.8178136
  75.7479426  97.1133514  32.9904987  75.6613400  97.7330724  34.2109650
  75.5689640  97.1027370  33.7541740  62.5069914  93.4521808  43.1827357
  63.2309886  93.4374839  43.6692252  62.6086050  94.1617164  42.6849325
  62.6288123  93.5546512  43.1806144  77.3414293  95.8089981  31.6547740
  77.6722510  96.3417622  31.0487835  77.9147381  95.8628869  32.3109691
  77.4747972  95.8959550  31.6625522  69.8814863  96.9320893  48.0476304
  69.0887844  97.2464405  48.2328924  69.9963790  97.1472361  47.2097089
  69.7810274  97.0104730  47.9514639  72.5546182  93.6554884  32.3371320
  72.6493037  94.3944178  32.7910946  71.9305026  93.2272360  32.7705885
  72.4755212  93.7016205  32.4679468  70.8098656  96.8341097  42.9861601
  71.3837518  96.1968341  43.1410165  70.7313460  96.8345179  42.1171259
  70.8831891  96.7406208  42.8808012  59.4095073  93.6130306  36.8244315
  59.9868575  93.4766757  37.4636560  58.7109134  93.1566090  37.0789899
  59.3916094  93.5252572  36.9566605  72.8069204  95.5003624  25.5708272
  72.7249366  95.5705811  26.4363259  73.4448924  96.0633368  25.3792013
  72.8889041  95.5942595  25.6698222  66.1662375  95.2664362  35.0382798
  65.9081619  94.4336097  35.0114098  66.2210858  95.4921975  34.1975299
  66.1362153  95.1762133  34.9102935  71.2463425  87.3692813  35.1386891
  70.5419752  86.8801998  35.2970810  71.2948399  87.3815287  34.2675335
  71.1493476  87.2982461  35.0326231  65.1397087  92.8202124  35.5247693
  64.5646678  92.9794293  36.1611654  64.7632763  92.1837533  35.0616144
  64.9999899  92.7499937  35.5502251  68.8070375  91.2925474  40.3840072
  68.4184808  90.8679691  39.7292263  68.1425074  91.5407623  40.8917098
  68.6517303  91.2664195  40.3627939  78.4493645  91.0500478  33.1587902
  78.1930209  90.2380420  32.9685784  79.2922959  91.0578045  32.9318089
  78.5359670  90.9312476  33.0972719  54.8853906  92.4642199  33.5392134
  54.9714158  92.0874067  34.3205664  55.5129703  92.0902645  33.0612092
  54.9910457  92.3527681  33.5837611  72.6296737  84.9900102  37.8964056
  73.0107249  84.3078273  38.2831930  71.8260021  84.7009704  37.7139720
  72.5673199  84.8467151  37.9268112  69.9109314  95.5224078  28.5816878
  70.7249953  95.8138971  28.4699650  69.8468455  94.8683941  28.0075171
  70.0212053  95.4689273  28.4805716  76.1318804  98.2050074  42.9946454
  75.8957441  97.3738139  42.8758515  76.7762033  98.1535682  43.5801298
  76.1913475  98.0747762  43.0632348  65.7817222  98.9945596  33.7089191
  66.4191169  98.7557343  34.2540984  66.2072294  99.1982755  32.9742351
  65.9393388  98.9896606  33.6806348  60.4729864 101.2333932  37.5923494
  60.5134010 101.5048783  36.7643274  61.0324388 101.7575840  38.0081282
  60.5613210 101.3509687  37.5315383  66.4220037  94.2147885  28.0464080
  66.8065190  93.9955592  28.7980625  66.1731657  95.0410831  28.1765156
  66.4422110  94.3046032  28.1765156  66.5888577  87.4954301  47.7626664
  66.2742019  88.2653863  47.4996227  66.2678510  86.9324557  47.1778891
  66.4947497  87.5264569  47.6368014  77.1555225  97.9894523  39.0574749
  76.8501042  98.7222580  39.4188064  76.4361440  97.5832453  38.7767535
  77.0042567  98.0376256  39.0687886  68.1638694  99.4718018  35.3882977
  68.2377702  99.3093190  36.2424827  68.9808200  99.6608208  35.1443458
  68.2955053  99.4754761  35.4781002  82.8557017  94.6287524  38.3843093
  82.7881517  94.6483483  37.5145679  82.8412679  95.4717851  38.6098763
  82.8435773  94.7561258  38.2895570  61.9244451  99.8175881  32.4177420
  61.0982568 100.0637618  32.2911699  61.9856442  99.7387962  33.2839478
  61.8118618  99.8420830  32.5266365  64.1420474  85.8844822  33.3772860
  63.2742900  85.9567422  33.4430470  64.4295679  86.6866901  33.5660836
  64.0560223  86.0138969  33.4147627  73.2653363  86.0322682  41.7084182
  74.0106955  85.8432492  41.2947608  72.8490668  86.5580919  41.1498039
  73.3138337  86.0824827  41.5648756  66.7043280 102.4352761  30.1196450
  66.9941578 102.0441743  29.3955677  67.4346761 102.6169466  30.5601726
  66.8550164 102.4046575  30.0779257  80.6415634  93.4031910  36.6589687
  81.1923556  92.7699979  36.8986779  80.6259749  93.9347303  37.3505192
  80.7200830  93.3880858  36.7968545  67.2938025  97.2370507  41.2049581
  66.7949719  97.9486275  41.2834469  68.1038249  97.5571174  41.1667743
  67.3394132  97.3897356  41.2106149  64.6449195 104.4120144  33.1856600
  64.4249491 104.1217498  33.9783267  64.4243717 103.7535099  32.6574512
  64.5796789 104.2719852  33.2245509  63.5566142  96.4993460  35.4512302
  63.2679391  95.8730932  35.9858029  64.4249491  96.4413748  35.5176982
  63.6426394  96.3981005  35.5403256  74.3444040  91.6428244  35.7694283
  74.0008806  90.9218579  36.1201533  74.4437083  91.4342095  34.9272642
  74.3086083  91.5052447  35.6965964  66.8117151 105.7849534  31.9687292
  67.4641209 105.2525976  32.1978318  66.1142760 105.4318186  32.3555166
  66.8047869 105.6539057  32.0599460  63.7598416  98.1388711  31.3754667
  64.5144384  98.5201750  31.5890129  63.1669029  98.5899855  31.8301363
  63.7835129  98.2617539  31.4737545  74.8057069  98.1053948  31.3118272
  75.3715102  98.7647158  31.2276815  74.1584973  98.4503646  31.7834674
  74.7935826  98.2535889  31.3691028  66.2205083  90.0951552  46.5011879
  65.4104859  90.4009331  46.3901721  66.6979770  90.8157134  46.6164463
  66.1708562  90.2466153  46.5018950  65.0796642  99.3097273  36.7494782
  64.5577396  99.4497564  37.4346647  65.4670663  98.5507937  36.9396899
  65.0600343  99.2182797  36.8795859  62.0687826  89.3603081  30.8189737
  61.7812622  88.9904352  30.0821684  62.7558295  89.8297937  30.5573442
  62.1276724  89.3750051  30.6704812  71.2763647 101.0492732  30.7355351
  71.0350323 100.3160593  30.3282416  71.4564980 101.5979589  30.0821684
  71.2671271 101.0215123  30.5785574  66.5062968  96.3401292  32.1476273
  66.3105751  96.9476026  31.5536576  66.7297314  95.6469236  31.6667947
  66.5097609  96.3278817  31.9892354  64.9041498  93.2256030  32.2657141
  65.6264150  93.3897188  31.8060947  64.4249491  93.9465694  32.1596481
  64.9405229  93.3554259  32.1822755  72.8635006  89.5619828  37.6453826
  72.0246106  89.5881107  37.4092090  72.9339373  90.2090564  38.2259173
  72.7503399  89.6615954  37.6962943  62.5549115  95.6314102  41.3711281
  63.0670212  95.9098355  40.7220041  62.2685457  96.3703396  41.7374094
  62.5883978  95.7816456  41.3301159  71.3104284  86.4605205  32.3781442
  72.0130637  86.2612954  31.9001401  71.0448473  85.6881148  32.6850286
  71.3750916  86.3168171  32.3526884  76.7392529  94.7687815  34.9315068
  76.6526504  94.9243241  35.7849847  76.2843009  95.4125891  34.5574473
  76.6595786  94.8863570  35.0022175  59.6416021  90.1384294  31.6675018
  59.7432158  90.9410455  31.9955993  60.4371908  89.9371630  31.3698098
  59.7743927  90.2270193  31.6710373  66.0732840  87.7240491  41.4312323
  65.8816037  87.7395625  42.2811746  66.9231436  87.9204165  41.4078978
  66.1708562  87.7554842  41.5535618  60.4579753  90.2531472  39.4096139
  60.3165245  89.4015413  39.5340647  60.7420317  90.2960133  38.5858345
  60.4787599  90.1331222  39.3063763  70.6118346  92.0898562  33.5540628
  70.3653060  92.0094313  34.3877417  70.9403469  91.3052030  33.3603155
  70.6239589  91.9624828  33.6488151  74.5066394  98.7981922  37.3427409
  74.3680754  99.4962967  37.8476151  73.7266392  98.6430578  36.9863591
  74.3709621  98.8782088  37.3653683  72.8444480  95.0978297  43.5949791
  72.8392518  94.2258114  43.5992217  73.5505473  95.2966466  43.1219246
  72.9489484  94.9982171  43.5256826  66.5715373  94.8255281  42.9663611
  66.7158749  95.4056489  42.3306721  66.9191021  95.2031578  43.6713465
  66.6442834  94.9675985  42.9762606  68.7435290  94.0245449  40.7488742
  67.9958604  94.2176464  40.3437020  68.8976815  93.1990669  40.5112864
  68.6557718  93.9310561  40.6534148  65.6443128 103.0158053  39.8324638
  65.7932692 102.4560969  39.1798042  66.4243130 103.0950054  40.2157156
  65.7817221 102.9443618  39.7921587  76.0019767  98.1560175  28.1043908
  75.6226576  97.3697313  28.0973197  75.3386013  98.7047032  27.9615552
  75.8478242  98.1204999  28.0824705  68.1696428 103.1872696  41.1109128
  68.0940100 102.5181506  41.6659917  68.0986288 103.8890484  41.6249795
  68.1477035 103.1917603  41.2685976  68.9837067  87.9196000  41.6384146
  69.4409681  88.6519974  41.7656938  69.0593396  87.4962465  42.3971402
  69.0628037  87.9653238  41.7685223  61.2270058  88.1661820  42.7273590
  60.6912248  87.5542178  43.0434357  61.2887823  88.7409956  43.3807256
  61.1565691  88.1608747  42.8709016  73.4564393  81.0985875  35.5077989
  73.5747961  81.5562338  34.7745292  73.2826569  80.2931136  35.2214207
  73.4483564  81.0479647  35.3578923  68.8266675 101.7073694  31.9432734
  69.5916566 101.4383338  31.6215399  68.7244765 101.2223705  32.6602797
  68.9248171 101.5963259  32.0012562  66.8619445  89.9098104  38.4825970
  66.0715520  89.7289564  38.8043306  67.2580068  89.1325056  38.4656265
  66.8036321  89.7685565  38.5278518  71.3485336  98.7385878  23.9232684
  72.1158321  98.7986003  23.5138535  70.9016645  98.1666320  23.4389002
  71.3958763  98.6622454  23.7910394  72.2463131  97.5440534  36.2085416
  71.5708133  97.3125766  36.7098803  72.2555508  96.9361717  35.5827521
  72.1481636  97.4199459  36.1901568  69.3757275  92.3858363  42.9649469
  69.3116417  93.2468319  42.8369606  69.5154463  92.0690356  42.1645020
  69.3872745  92.4658530  42.8277682  74.2479866 100.4005666  28.4395594
  74.3299703 101.2072653  28.1157045  74.7329608 100.4201626  29.1636367
  74.3317024 100.5226329  28.4982493  68.0576369  95.0790502  37.1065672
  67.6338618  95.2795001  36.3704690  67.8821224  94.2319350  37.2189972
  67.9687250  94.9839284  37.0139362  67.5588063 106.5941015  39.5687129
  68.0483993 105.8951805  39.3862794  66.9872295 106.2964885  40.1563187
  67.5472593 106.4467239  39.6288170  63.3458814  95.5742554  32.5393644
  63.5023433  95.5089357  33.3949636  63.6859407  96.3491106  32.3272324
  63.4192049  95.6791752  32.6348239  69.8837959  94.9500437  31.4087008
  70.4253504  94.4470818  31.8725628  70.1984518  94.8965632  30.5976493
  70.0102356  94.8679858  31.3570820  73.7555066  99.1603085  48.5213920
  74.5689932  98.8888234  48.6819052  73.5950033  98.8610625  47.7174116
  73.8525015  99.0758011  48.4259326  68.0524409 100.3417789  28.6927036
  68.1217229  99.4832327  28.8320036  68.8312864 100.5589670  28.3646060
  68.1777259 100.2470653  28.6644193  71.0327228  89.8436742  41.4609308
  71.2469198  89.2047656  40.9072662  70.4161127  90.2882566  41.0317170
  70.9732558  89.8146886  41.3159739  72.4431896 102.7655490  32.9063529
  72.0511688 102.4622205  32.1886395  72.5984968 103.6024580  32.7168483
  72.4085486 102.8439327  32.7720026  59.9193076  92.7577504  32.8554412
  60.2992041  93.1762049  32.1914679  59.3448441  93.3390960  33.1623255
  59.8904401  92.9055363  32.8031153  73.1966316  91.4525807  42.3992615
  72.3842998  91.1451697  42.4805788  73.6556251  90.9724807  42.9635327
  73.1446701  91.3362299  42.4947209  72.6071571  99.3305479  32.8469560
  72.2486226  99.5020122  33.6233592  72.1210282  99.7918685  32.2897558
  72.4830268  99.4244450  32.8794829  70.4241957  82.9536678  36.4496651
  69.5535515  82.9275399  36.4029960  70.6782298  82.7813870  35.6322497
  70.3335517  82.9246821  36.3216788  67.3959936  95.0104644  25.3869794
  67.6852461  95.7869527  25.6613368  67.4831735  94.4993376  26.0884293
  67.4514193  95.0496563  25.5312292  70.2919824  92.8585879  47.1821317
  70.7619455  93.4827995  47.5689192  70.3381704  92.1902854  47.7414532
  70.3687700  92.8520559  47.3221389  67.4491097  84.9642906  37.9070121
  66.9329586  84.2723097  38.0321700  66.8885026  85.6313683  37.8532720
  67.2897611  84.9606164  37.9176187  69.5183331  85.5035866  39.7362974
  69.1315084  85.5284898  40.5176504  69.0316268  84.9377545  39.2837490
  69.3895840  85.4231617  39.7850878  73.7676310 100.2209375  43.7936760
  74.4056031  99.7269571  43.4599216  73.1250402 100.1486775  43.2088987
  73.7670537 100.1368384  43.6579115  75.4933310  92.0698521  38.3602676
  75.0660918  91.9824870  37.6050776  74.8559363  92.1776296  38.9457520
  75.3362918  92.0731181  38.3348118  69.1840473  82.3902852  42.0273234
  69.8133591  82.9263152  41.7494304  69.3526335  82.2980210  42.8786799
  69.3018267  82.4564214  42.1121762  68.9854387  87.1774046  44.2999645
  69.8127817  86.9059195  44.3558260  69.0062234  87.9734888  44.6563463
  69.1107238  87.2553800  44.3614828  73.8230567 100.9129183  40.4342117
  74.6122945 100.5618248  40.5544199  73.9974165 101.7265572  40.1718751
  73.9650849 100.9815040  40.4129985  63.5623877  94.3237909  37.4869906
  62.7211884  94.2241783  37.6948800  63.7713885  95.0933389  37.8384227
  63.4688570  94.4229952  37.5697221  61.0399444  91.9457446  35.3154657
  60.6456142  92.0200458  34.5404766  60.4839561  92.3315392  35.8663018
  60.9002257  92.0139221  35.2822316  72.6764391  84.9238740  34.9958536
  72.8813984  84.8561048  35.8415533  72.3490815  85.7297561  34.9279713
  72.6579639  85.0324680  35.1118191  67.3740542  92.2519308  36.7367504
  67.0703680  91.6975296  37.3377911  66.6719963  92.4311518  36.2495538
  67.2256752  92.1964091  36.7537209  66.4306639  89.5619828  31.3012205
  66.7066374  88.8438741  30.8889773  67.0305309  90.1604748  31.0933311
  66.5599904  89.5440199  31.2092967  65.4358893  99.4669029  41.4439601
  65.3279248  99.4771091  42.3101659  65.6454675 100.2923809  41.2544555
  65.4509004  99.5910104  41.5443693  75.9298079  85.4770504  34.4761301
  75.3172392  85.9640906  34.8615033  76.0262254  84.8013995  35.0198952
  75.8535976  85.4488813  34.6140159  69.9317160  87.2333345  29.5758800
  70.3860906  87.4043906  30.3006645  70.4057206  86.6201456  29.1756576
  70.0685480  87.1684231  29.6232562  63.4532685  96.7181671  38.9061539
  62.8620618  97.3591170  38.8764554  64.2153709  97.1419289  38.8792838
  63.4780946  96.8757510  38.8976686  63.8493308  87.8783669  39.5729556
  64.3094790  87.9522599  40.3104680  63.8949415  88.6764923  39.2229378
  63.9243863  88.0077816  39.6302313  65.4976658  88.5450364  44.1401584
  65.1062223  87.8983711  44.5757361  65.6662520  89.1361799  44.7595839
  65.4647568  88.5364632  44.2964290  79.5723107  96.5487441  39.9038817
  79.6306230  96.9974090  40.6498794  78.9389574  96.9586254  39.4668897
  79.4874402  96.6761176  39.9491365  73.2122201 102.1690983  36.3393563
  73.0141890 102.6581797  35.6449775  72.5909912 102.3732224  36.9177697
  73.0909766 102.2707521  36.3216787  67.2730180  93.9375880  30.6803808
  68.0172225  94.3250156  30.9186758  67.4190876  93.0933305  30.8444295
  67.4040765  93.8706353  30.7397777  69.1909755  85.7326139  35.7135669
  68.3445800  85.9048946  35.5877019  69.1880888  84.9275482  36.0501497
  69.0656905  85.6387168  35.7446796  70.2608056  89.5101353  36.5797727
  69.7868010  88.9843115  37.0903038  70.6326191  88.9630826  36.0112588
  70.2457945  89.3517350  36.5712874  60.6381086  91.5072860  41.9481273
  61.5006699  91.4068569  41.8618603  60.3072869  90.9267569  41.3866845
  60.7166282  91.4064486  41.8526679  76.5244786  94.5703729  37.9904507
  76.2843009  93.7310144  37.9946934  77.0036793  94.6503895  38.7145281
  76.5596970  94.4585128  38.0979310  72.1891555  90.4037908  29.6423481
  71.6614574  90.4866652  28.9529190  72.6487263  91.1455779  29.6388125
  72.1793406  90.5258570  29.5398176  78.5249973  91.3505186  35.9433767
  78.2859743  91.3101020  35.1054551  78.6883874  92.1976338  36.0699488
  78.5140277  91.4697271  35.8387249  75.1296003  95.7355135  41.8738812
  75.8530202  95.2827662  41.6949832  74.8645966  96.0159801  41.0911140
  75.1977277  95.7106104  41.7317527  63.9982872  90.3315309  38.6091691
  63.3735942  90.3433701  38.0017644  63.6628467  90.8075484  39.2582931
  63.8568364  90.4033826  38.6148259  64.1824620  88.6740427  24.6664376
  63.8337425  89.3260152  25.1295925  63.7021066  88.6597540  23.9388247
  64.0594864  88.7683481  24.6275467  60.7108547  98.3915769  40.0495455
  60.1808472  97.7008208  40.0990430  60.9833641  98.3825954  39.2208164
  60.6733270  98.2882901  39.9342871  71.7428638  98.9741471  28.7733138
  72.4662837  99.4399584  28.6297711  71.3029229  99.0415081  28.0230735
  71.7844330  99.0525308  28.6417919  70.9114793  95.8339013  40.0233827
  70.2971786  95.2897064  40.3182462  71.4282078  95.3203250  39.5439643
  70.8970455  95.6775422  39.9958055  70.1511090  96.9043283  37.7578125
  69.7238698  96.2793002  37.3243561  70.1436034  96.6218205  38.5837133
  70.0870231  96.7696064  37.8157953  63.2673617  91.9408457  40.8266559
  63.4267104  91.1851781  41.2318281  63.0866511  92.4899396  41.4807297
  63.2638976  91.9102270  40.9829265  71.2093920  84.1069692  41.3817349
  70.7134481  84.3033366  40.6908916  71.9662982  84.5062360  41.2106151
  71.2480745  84.1947426  41.2537486  68.4796800  87.7812038  37.9720659
  68.5039287  87.2472150  37.2833439  68.7308273  87.2729347  38.6346250
  68.5206718  87.6272942  37.9685304  55.9904390  95.0643533  37.4063803
  55.8847839  95.0190377  36.5415888  55.2404609  95.4097314  37.6878088
  55.8639992  95.1084441  37.3201133  64.7598122  86.5082856  37.3526404
  64.7996494  87.0092063  38.0661111  63.9347787  86.5993250  37.0832327
  64.6437648  86.5964673  37.4176942  66.9427735  96.0743596  45.4546698
  66.0923365  96.2115311  45.5904343  67.1055863  95.3407374  45.8994400
  66.8411598  95.9857697  45.5402298  66.1812485  93.0243366  39.6500303
  65.3504415  93.1917184  39.4435551  66.1264002  92.6479317  40.4349188
  66.0501900  92.9933097  39.7348831  63.9896269  86.5152259  45.2856713
  64.6148972  85.9714392  45.5586146  63.5346748  86.0347177  44.7164504
  64.0144529  86.3641740  45.2418307  64.5548529  91.2998958  30.1790420
  64.6951490  91.7971422  30.8819062  65.0531062  90.5985252  30.3204634
  64.6489610  91.2700936  30.3041999  64.5848752  92.1666069  27.5082997
  65.2193831  92.7626494  27.4432459  64.6674362  91.8669526  28.3228867
  64.6905303  92.2106977  27.6186084  77.5631317  94.6981546  40.3769361
  78.1549158  95.3378797  40.4087560  77.9990312  94.0004583  40.6661428
  77.7149749  94.6899896  40.4250194  66.1627734  88.0980044  27.4828439
  66.4843575  87.6183127  26.8287702  66.4254678  88.9079690  27.2919251
  66.2493760  88.1469942  27.3583931  69.3924707  99.1198918  41.0027255
  68.8849798  99.6734765  41.4467886  69.0951353  99.1807208  40.1846030
  69.2729592  99.2105230  40.9475712  71.5586889  87.4852238  39.8451918
  71.9841961  87.0324764  39.2335445  70.9443882  86.9312309  40.1216706
  71.5315535  87.3366214  39.7956944  61.0901739  94.3633909  30.7772543
  61.5993969  94.9598417  31.1583849  61.5636012  94.0959883  30.0948963
  61.2345115  94.4119725  30.7327066  72.0032487 103.0362176  28.9331199
  71.2861797 102.8623038  28.4678436  72.6539225 102.8014748  28.4006685
  71.9934338 102.9757969  28.7860417  69.9981112  83.9567338  33.2542495
  69.3549430  83.8064984  33.8227634  69.6580519  83.7109683  32.4891600
  69.8526190  83.8979460  33.2245511  74.5880459  91.9126765  32.6772504
  73.9171649  92.4556467  32.5485570  75.2820209  92.3821620  32.4354199
  74.5909326  92.0625036  32.6228032  68.6367192 104.0523477  37.9084262
  68.4132847 103.2942306  38.2768289  68.1477036 104.0821498  37.1864702
  68.5310641 103.9445701  37.8561003  74.7508586  88.3682648  35.5862877
  75.1036196  87.9412371  36.2608676  73.8923388  88.2833492  35.7163954
  74.6758031  88.2927389  35.7057888  63.4492271  90.9990168  33.6445724
  62.7304260  91.4154301  33.9118587  63.8204633  91.5644407  33.0937362
  63.3984203  91.1439449  33.6028531  72.7491852  91.6318017  39.5347719
  72.7289779  91.4501312  40.3882498  72.7971053  92.5030035  39.5107303
  72.7526493  91.7334555  39.6571014  70.6938182  98.2205209  45.4596196
  70.6534037  97.5754886  44.8741352  71.5061500  98.1641826  45.7721608
  70.8081335  98.1164176  45.4193145  67.2845649 104.2723935  35.3621347
  66.8706048 103.6098065  34.9725189  67.9693024 104.4201794  34.8417041
  67.3244021 104.1964593  35.2277844  70.6510943 103.4314020  36.1144963
  70.2527227 103.5416290  35.3465784  70.0362163 103.6396086  36.6971523
  70.5009833 103.4787588  36.0876263  69.2238846  90.0388168  28.9819103
  68.6303685  90.3605164  28.4303670  69.2614123  89.1929263  28.7740209
  69.1413235  89.9612496  28.8701874  76.1832646  83.4901060  36.5147190
  75.6763511  82.7830200  36.4468367  76.9800080  83.1594249  36.6448266
  76.2259885  83.3374212  36.5246185  72.0996662  89.9967672  32.4120853
  71.8710355  90.0200374  31.5699212  72.3594738  89.1725139  32.5315864
  72.1042850  89.8783752  32.3046051  66.3815891  91.8502145  42.0145954
  65.8694794  91.2423328  42.3730985  66.2095387  92.5658738  42.4819929
  66.2805528  91.8665445  42.1362177  61.2281605  90.2939721  44.6648315
  61.0584196  90.9541096  44.1196522  60.7847555  90.5046282  45.3860805
  61.1380939  90.4225703  44.6909945  65.1541425  88.5344219  33.7075049
  65.6298791  88.8961299  33.0725230  64.6530024  89.1900686  33.9875192
  65.1506784  88.6838407  33.6551790  78.3852786  98.0065987  29.4988054
  78.7686392  98.7557343  29.7286151  77.5896899  98.2531806  29.2400043
  78.3246568  98.1535681  29.4945628  70.2584961  89.7726390  44.4548209
  70.8156391  89.5440200  43.8226675  69.9346026  90.5332056  44.1783422
  70.2931371  89.8510227  44.3204706  58.1283670  93.1986586  39.9236805
  57.5810389  92.5287232  40.0417674  58.9176048  92.8316434  39.9880273
  58.1635853  93.0451573  39.9505506  67.9768078  92.8594043  45.4200216
  68.7279405  93.1745720  45.7339770  68.1690655  92.6573214  44.5934138
  68.1159492  92.8761425  45.3443612  67.1968078  90.6785418  27.0748433
  67.5767043  90.6965048  26.2899548  66.4560674  91.1239407  26.9539280
  67.1436916  90.7467193  26.9412001  74.8253368  88.9867610  32.6624012
  74.8247595  88.8316266  33.5208288  74.6209548  89.8330597  32.6065397
  74.7953146  89.0888230  32.7811951  56.8870639  92.4107394  37.0782828
  56.7092400  91.9584003  37.8037744  56.5989661  93.2133555  37.2621306
  56.8183592  92.4629952  37.2126331  72.5494220  93.6665111  36.3160219
  73.0447886  92.9488107  36.2764239  71.7393996  93.3635909  36.2014706
  72.5038114  93.5162758  36.2933944  67.9952832  97.5162925  28.4657223
  67.1864155  97.1929598  28.4190533  68.5027741  96.8096147  28.3985472
  67.9502499  97.3644241  28.4487517  58.6243109  94.9435118  34.1904587
  57.7588629  94.9320808  34.0787359  58.7241925  94.7565341  35.0375727
  58.5117276  94.9141179  34.2993532  74.6146039  96.4168799  39.0037347
  75.0401111  95.8943221  38.4507772  74.2502959  97.0149636  38.4825970
  74.6232642  96.4279026  38.8446357  64.2500119 104.7133016  37.7634693
  64.5646678 105.5269405  37.7712475  64.6593532 104.3283235  38.4316852
  64.3568217 104.7761719  37.8638785  71.2024639 100.1303063  35.3338505
  71.6735817 100.8443326  35.5028490  71.5384817  99.5301813  35.8698374
  71.3219754 100.1474528  35.4370881  73.2901623 101.7404377  47.5130577
  73.3998589 100.9512937  47.8687324  73.6192520 101.6510313  46.7104915
  73.3554029 101.6110230  47.4472968  68.1194134  84.9030534  42.2896600
  68.2522039  84.1061527  42.6177575  68.5039286  85.4296937  42.8694875
  68.1950462  84.8630451  42.4240103  71.8398585  99.9220997  42.0966197
  71.2919531  99.2978881  41.8286263  72.3011614 100.1115269  41.3810277
  71.8265794  99.8580048  41.9516629  71.1926489  81.8260860  38.8877693
  70.3872452  81.7158590  39.2045531  71.0633224  81.9273316  38.0307559
  71.0546622  81.8244530  38.8085733  74.6492449  87.9906352  39.4817390
  74.0655438  88.4915558  39.0694957  74.9696743  87.4835908  38.8481713
  74.6105625  87.9898187  39.3275897  67.1887248  86.9046947  29.7576065
  68.0102943  87.0745260  29.5157759  66.7256899  87.0594208  29.0342362
  67.2418411  86.9528680  29.6147709  65.7782580  84.8989709  40.5374493
  66.3226993  84.5580836  41.1278835  65.8319516  85.7575170  40.6795778
  65.8671700  84.9744968  40.6456367  61.5913139  98.6606125  37.4113301
  62.1957997  98.6201959  36.7827122  61.3840452  99.5077277  37.4417357
  61.6502036  98.7794127  37.3229418  71.4056911 100.9272070  38.6275539
  72.2255285 100.7835036  38.8891834  71.1250989 101.5518269  39.1691977
  71.4853655 100.9982422  38.7463478  56.8264421  97.6440742  37.2812224
  56.7288699  96.8337014  37.5902281  57.6093291  97.6232536  36.8958493
  56.9280558  97.5207833  37.2699087  87.8770562 108.5836922  31.5918415
  87.8464566 109.4381558  31.7636684  88.4751910 108.2832214  32.1504559
  87.9607720 108.6653418  31.6993217  81.0770246 107.6712573  36.3471345
  80.2208142 107.8321071  36.3980462  81.1237900 106.8004637  36.3676406
  80.9569358 107.5663375  36.3577411  75.4611386 117.2075291  32.1108577
  74.7094286 116.8290829  31.8824622  75.9097398 117.2393724  31.3627387
  75.4161053 117.1560898  31.9666079  84.3863963 113.9399098  45.9531802
  85.0930730 113.4451129  46.0818736  84.5751898 114.3808180  45.2234460
  84.5191869 113.9317449  45.8640847  80.9136346 117.6300660  27.5394124
  80.5787715 118.3077582  27.1038346  81.4263217 117.2405971  26.9510996
  80.9401927 117.6725238  27.3880916  80.4540637 119.5814929  33.4805236
  80.8380017 120.1501827  32.9410011  80.3899779 118.8564439  33.0011052
  80.5014065 119.5590392  33.3299098  83.9222068 109.7304617  38.9902997
  84.4678028 110.4089703  39.0496967  83.8638944 109.5892078  38.1304579
  83.9937982 109.8096618  38.8715058  77.0396142 117.2193683  34.3771350
  77.1406505 116.4094037  34.6868477  76.4437888 117.1250629  33.7471028
  76.9668681 117.0858711  34.3297588  85.6987136 111.1589224  29.8636725
  85.5826662 111.9096910  30.2928863  86.4943023 110.9013177  30.1132812
  85.7991726 111.2324071  29.9640817  76.8796882 122.1371272  35.7786206
  77.5234337 122.5784436  36.1682364  77.2053138 121.3324698  35.6916464
  77.0228711 122.0836467  35.8231683  70.2361187 113.2413969  34.0023683
  70.0011371 112.4081622  33.8955952  70.3746827 113.5218635  33.1884884
  70.2216849 113.1597473  33.8666038  72.5351274 105.4099700  36.9007991
  71.9156306 104.8192347  36.7318006  72.4335138 106.0011135  36.2672314
  72.4288950 105.4103782  36.7812980  77.5817462 115.1483247  31.1506067
  77.9033303 115.6888454  30.5467375  78.2289558 114.5780018  31.2828357
  77.7243517 115.1442422  31.0813103  79.6319170 107.1499242  31.2340454
  80.3299334 107.3287369  31.7261917  79.9471502 106.6269581  30.6110843
  79.7814507 107.0993014  31.2142464  72.2620407 108.9551982  39.1451560
  72.1379104 109.5414427  39.7801379  72.9138692 108.4612177  39.4463835
  72.3394056 108.9690786  39.2837489  79.8207105 113.5369687  31.2220245
  80.2600741 112.9286787  31.6675018  79.6711768 113.1577060  30.4505710
  79.8628571 113.3908158  31.1739413  77.2878748 112.1313699  38.4239071
  77.9327751 111.6386142  38.1050019  77.5280525 112.2738485  39.2505149
  77.4189333 112.0791141  38.4988604  79.8264840 114.9768604  38.0745964
  80.1088082 114.1820010  37.8532719  80.5551000 115.4549192  38.0951025
  79.9754403 114.9303201  38.0448979  77.8046033 102.5191638  35.3161729
  77.4749363 102.9702782  34.6465427  77.1291035 102.4407802  35.8634735
  77.6556470 102.5742774  35.2984952  83.4216442 111.8896868  28.1751015
  83.3367737 112.7457835  28.3200584  83.9100825 111.6141192  28.8433174
  83.4805339 111.9754190  28.2953096  85.0122441  98.5077161  33.5611339
  84.6975882  99.1980640  33.9931762  84.4949383  98.4521944  32.8596840
  84.8886912  98.6012050  33.5208288  84.3534875 108.5081662  29.6748750
  83.8246346 108.7241296  30.3346056  84.8759895 109.2017801  29.5949719
  84.3523328 108.6424799  29.7604349  89.8082928 114.0827967  35.0481794
  88.9780631 114.2938610  35.2115211  89.7592180 113.2565021  34.7724078
  89.6789663 113.9917573  35.0319160  76.2434483 112.4044879  28.4756218
  75.6591698 112.9094910  28.8822082  75.8404578 112.1787266  27.7352810
  76.0973787 112.4453127  28.4261243  71.7978511 118.1199640  35.2779889
  71.3146090 118.8450130  35.2539473  72.6101830 118.4175770  35.3890047
  71.8469259 118.2701994  35.2907169  77.8692665 116.9131821  37.8829704
  77.3519607 116.5539236  37.2791012  78.5667057 116.3893995  37.8935770
  77.8958247 116.7829509  37.7959962  81.5256257 117.3626635  43.8445877
  81.6139603 117.1752775  44.6924087  81.9545970 116.7164064  43.4450724
  81.6018360 117.2389643  43.9117628  79.0926717 116.6457795  42.8263539
  78.5297552 116.2330405  43.3503200  79.8547741 116.5710701  43.2456682
  79.1221166 116.5735195  42.9656539  80.7011697 108.6510531  26.9525138
  80.9407701 108.8588515  26.1400481  81.0227538 107.8468040  27.0614083
  80.7848855 108.5624632  26.8485691  76.0101987 100.5803927  30.7984676
  76.7647955 100.9482244  30.5601727  75.8329522 100.9543481  31.5663856
  76.0956466 100.6902115  30.8769565  74.6522709 118.6355816  35.4300169
  75.3543288 118.1207805  35.4872926  74.5720192 118.9629967  36.2347044
  74.7446469 118.6070042  35.5572961  89.3036886 106.7298367  38.8432216
  88.4665307 106.8000554  39.0779810  89.2725117 106.7322862  37.9706518
  89.1755169 106.7408594  38.7491764  75.7001615 108.8731403  44.5580584
  75.8722119 108.7637298  45.4065866  76.2370973 109.5185808  44.3211777
  75.8046619 108.9523405  44.6485681  74.3659052 102.9874246  27.4962789
  74.1834625 103.2046127  26.6703782  75.2284665 103.1013259  27.5521404
  74.4663642 103.0364144  27.3817276  73.9773484 114.8262168  34.9385777
  74.8162383 115.0585101  34.9859539  74.0085253 113.9566479  34.8692813
  74.1055202 114.7319115  34.9350422  74.6026187 115.2463043  39.2399083
  75.1424412 115.1034174  39.9102455  73.9196133 115.6459794  39.6083109
  74.5818341 115.2842714  39.3933504  80.0458771  99.9900657  30.5311813
  80.7744932  99.8116611  30.0849969  80.1353664 100.8318736  30.7418991
  80.1665433 100.0884535  30.4965331  84.0267072 110.9254044  34.4344107
  84.7824587 111.3585558  34.4733016  84.1329396 110.2758814  35.0078743
  84.1537243 110.8931528  34.5242133  87.0647243 114.7527321  35.1846510
  86.6282475 114.7564064  35.9405482  86.7310159 115.4332820  34.7526088
  86.9509863 114.8539777  35.2327343  81.6376317 116.7935654  46.5089660
  82.4216733 116.9066502  46.8745403  81.4372911 115.9676791  46.7048346
  81.7242342 116.6882373  46.5924046  70.0063332 111.4663334  39.3933504
  69.7401747 110.6502451  39.5524495  70.0201896 111.5116490  38.5229020
  69.9688054 111.3520239  39.2886986  86.9844726 101.7941149  37.4275938
  87.6270634 101.8639254  38.0137853  87.2367747 101.1270372  36.9255480
  87.1166858 101.7067498  37.4403217  73.9121079 106.2648418  26.0085262
  73.1979256 105.9786598  26.4207695  74.3965048 106.6045044  26.6491650
  73.8780442 106.2730068  26.1640897  74.7561938 105.0041712  42.0400512
  74.0633735 104.5338692  42.2861244  75.3722266 104.7780017  42.6142219
  74.7446468 104.9008844  42.1609665  81.7946710 118.7045756  40.1556116
  80.9961956 118.4645256  40.4129985  82.2432722 118.7560149  40.9023164
  81.7421321 118.6768147  40.3041040  90.1991589 111.4708241  34.0766147
  90.8608023 110.9098910  33.9762056  89.5583001 110.9760272  34.4018838
  90.2020457 111.3144650  34.1098488  81.0868397 114.7678372  26.3847071
  81.5019545 114.4363396  25.6931566  80.2560327 114.5347275  26.2567207
  81.0256406 114.6849628  26.2637918  70.4156746 112.2522113  36.6745249
  70.2332319 112.2268999  35.8217541  71.1506415 112.7221051  36.7134157
  70.4970810 112.3183476  36.5543167  86.4856420 112.4873623  33.8178136
  86.7212009 112.6318822  32.9904987  86.6345984 113.2516031  34.2109650
  86.5422223 112.6212678  33.7541740  73.4802497 108.9707116  43.1827357
  74.2042470 108.9560147  43.6692252  73.5818634 109.6802472  42.6849325
  73.6020706 109.0731820  43.1806144  88.3146877 111.3275289  31.6547740
  88.6455094 111.8602930  31.0487835  88.8879965 111.3814177  32.3109691
  88.4480556 111.4144858  31.6625522  80.8547447 112.4506201  48.0476304
  80.0620428 112.7649713  48.2328924  80.9696374 112.6657669  47.2097089
  80.7542857 112.5290038  47.9514639  83.5278766 109.1740192  32.3371320
  83.6225620 109.9129486  32.7910946  82.9037609 108.7457668  32.7705885
  83.4487796 109.2201513  32.4679468  81.7831240 112.3526405  42.9861601
  82.3570101 111.7153649  43.1410165  81.7046043 112.3530487  42.1171259
  81.8564475 112.2591516  42.8808012  70.3827656 109.1315614  36.8244315
  70.9601159 108.9952065  37.4636560  69.6841718 108.6751398  37.0789899
  70.3648677 109.0437880  36.9566605  83.7801787 111.0188932  25.5708272
  83.6981950 111.0891119  26.4363259  84.4181508 111.5818676  25.3792013
  83.8621624 111.1127903  25.6698222  77.1394958 110.7849670  35.0382798
  76.8814203 109.9521405  35.0114098  77.1943441 111.0107283  34.1975299
  77.1094736 110.6947441  34.9102935  82.2196008 102.8878121  35.1386891
  81.5152335 102.3987306  35.2970810  82.2680983 102.9000595  34.2675335
  82.1226060 102.8167768  35.0326231  76.1129670 108.3387432  35.5247693
  75.5379262 108.4979601  36.1611654  75.7365347 107.7022841  35.0616144
  75.9732483 108.2685245  35.5502251  79.7802959 106.8110782  40.3840072
  79.3917392 106.3864999  39.7292263  79.1157657 107.0592931  40.8917098
  79.6249887 106.7849503  40.3627939  89.4226228 106.5685786  33.1587902
  89.1662793 105.7565728  32.9685784  90.2655542 106.5763353  32.9318089
  89.5092254 106.4497784  33.0972719  65.8586489 107.9827507  33.5392134
  65.9446741 107.6059375  34.3205664  66.4862287 107.6087953  33.0612092
  65.9643040 107.8712989  33.5837611  83.6029321 100.5085410  37.8964056
  83.9839832  99.8263581  38.2831930  82.7992605 100.2195012  37.7139720
  83.5405782 100.3652459  37.9268112  80.8841897 111.0409386  28.5816878
  81.6982536 111.3324279  28.4699650  80.8201039 110.3869249  28.0075171
  80.9944636 110.9874581  28.4805716  87.1051387 113.7235382  42.9946454
  86.8690025 112.8923447  42.8758515  87.7494616 113.6720989  43.5801298
  87.1646058 113.5933070  43.0632348  76.7549806 114.5130904  33.7089191
  77.3923753 114.2742651  34.2540984  77.1804877 114.7168063  32.9742351
  76.9125972 114.5081914  33.6806348  71.4462448 116.7519240  37.5923494
  71.4866593 117.0234091  36.7643274  72.0056972 117.2761148  38.0081282
  71.5345794 116.8694995  37.5315383  77.3952621 109.7333193  28.0464080
  77.7797773 109.5140900  28.7980625  77.1464241 110.5596139  28.1765156
  77.4154693 109.8231340  28.1765156  77.5621161 103.0139609  47.7626664
  77.2474602 103.7839171  47.4996227  77.2411094 102.4509865  47.1778891
  77.4680080 103.0449877  47.6368014  88.1287808 113.5079831  39.0574749
  87.8233625 114.2407888  39.4188064  87.4094024 113.1017761  38.7767535
  87.9775150 113.5561564  39.0687886  79.1371278 114.9903326  35.3882977
  79.2110286 114.8278498  36.2424827  79.9540784 115.1793516  35.1443458
  79.2687636 114.9940069  35.4781002  93.8289600 110.1472832  38.3843093
  93.7614101 110.1668791  37.5145679  93.8145263 110.9903159  38.6098763
  93.8168357 110.2746566  38.2895570  72.8977034 115.3361189  32.4177420
  72.0715152 115.5822926  32.2911699  72.9589025 115.2573270  33.2839478
  72.7851201 115.3606138  32.5266365  75.1153058 101.4030130  33.3772860
  74.2475483 101.4752730  33.4430470  75.4028262 102.2052209  33.5660836
  75.0292806 101.5324277  33.4147627  84.2385947 101.5507989  41.7084182
  84.9839539 101.3617800  41.2947608  83.8223251 102.0766227  41.1498039
  84.2870921 101.6010135  41.5648756  77.6775863 117.9538069  30.1196450
  77.9674162 117.5627051  29.3955677  78.4079344 118.1354774  30.5601726
  77.8282747 117.9231883  30.0779257  91.6148218 108.9217218  36.6589687
  92.1656139 108.2885287  36.8986779  91.5992333 109.4532611  37.3505192
  91.6933414 108.9066166  36.7968545  78.2670608 112.7555815  41.2049581
  77.7682302 113.4671583  41.2834469  79.0770833 113.0756482  41.1667743
  78.3126715 112.9082664  41.2106149  75.6181779 119.9305452  33.1856600
  75.3982074 119.6402806  33.9783267  75.3976301 119.2720407  32.6574512
  75.5529373 119.7905160  33.2245509  74.5298726 112.0178768  35.4512302
  74.2411975 111.3916239  35.9858029  75.3982074 111.9599056  35.5176982
  74.6158978 111.9166312  35.5403256  85.3176624 107.1613552  35.7694283
  84.9741390 106.4403887  36.1201533  85.4169666 106.9527403  34.9272642
  85.2818667 107.0237755  35.6965964  77.7849735 121.3034842  31.9687292
  78.4373793 120.7711284  32.1978318  77.0875343 120.9503494  32.3555166
  77.7780453 121.1724365  32.0599460  74.7330999 113.6574019  31.3754667
  75.4876967 114.0387058  31.5890129  74.1401612 114.1085163  31.8301363
  74.7567713 113.7802847  31.4737545  85.7789653 113.6239256  31.3118272
  86.3447686 114.2832466  31.2276815  85.1317556 113.9688954  31.7834674
  85.7668409 113.7721197  31.3691028  77.1937666 105.6136860  46.5011879
  76.3837442 105.9194639  46.3901721  77.6712353 106.3342442  46.6164463
  77.1441145 105.7651461  46.5018950  76.0529226 114.8282581  36.7494782
  75.5309980 114.9682872  37.4346647  76.4403246 114.0693245  36.9396899
  76.0332927 114.7368104  36.8795859  73.0420410 104.8788389  30.8189737
  72.7545206 104.5089660  30.0821684  73.7290878 105.3483245  30.5573442
  73.1009307 104.8935359  30.6704812  82.2496231 116.5678040  30.7355351
  82.0082907 115.8345901  30.3282416  82.4297564 117.1164897  30.0821684
  82.2403855 116.5400431  30.5785574  77.4795552 111.8586600  32.1476273
  77.2838334 112.4661334  31.5536576  77.7029897 111.1654544  31.6667947
  77.4830193 111.8464125  31.9892354  75.8774082 108.7441338  32.2657141
  76.5996734 108.9082496  31.8060947  75.3982074 109.4651002  32.1596481
  75.9137812 108.8739567  32.1822755  83.8367589 105.0805136  37.6453826
  82.9978690 105.1066415  37.4092090  83.9071957 105.7275872  38.2259173
  83.7235983 105.1801262  37.6962943  73.5281698 111.1499410  41.3711281
  74.0402795 111.4283663  40.7220041  73.2418041 111.8888704  41.7374094
  73.5616561 111.3001764  41.3301159  82.2836867 101.9790513  32.3781442
  82.9863220 101.7798262  31.9001401  82.0181056 101.2066456  32.6850286
  82.3483500 101.8353479  32.3526884  87.7125113 110.2873123  34.9315068
  87.6259088 110.4428549  35.7849847  87.2575593 110.9311199  34.5574473
  87.6328370 110.4048878  35.0022175  70.6148605 105.6569602  31.6675018
  70.7164741 106.4595763  31.9955993  71.4104491 105.4556938  31.3698098
  70.7476510 105.7455501  31.6710373  77.0465424 103.2425799  41.4312323
  76.8548621 103.2580933  42.2811746  77.8964020 103.4389473  41.4078978
  77.1441146 103.2740150  41.5535618  71.4312337 105.7716780  39.4096139
  71.2897829 104.9200721  39.5340647  71.7152900 105.8145441  38.5858345
  71.4520183 105.6516530  39.3063763  81.5850929 107.6083870  33.5540628
  81.3385643 107.5279621  34.3877417  81.9136052 106.8237338  33.3603155
  81.5972173 107.4810136  33.6488151  85.4798978 114.3167230  37.3427409
  85.3413337 115.0148275  37.8476151  84.6998976 114.1615886  36.9863591
  85.3442205 114.3967396  37.3653683  83.8177063 110.6163605  43.5949791
  83.8125102 109.7443421  43.5992217  84.5238057 110.8151774  43.1219246
  83.9222067 110.5167479  43.5256826  77.5447956 110.3440589  42.9663611
  77.6891332 110.9241797  42.3306721  77.8923605 110.7216886  43.6713465
  77.6175418 110.4861293  42.9762606  79.7167874 109.5430757  40.7488742
  78.9691188 109.7361772  40.3437020  79.8709399 108.7175977  40.5112864
  79.6290301 109.4495869  40.6534148  76.6175711 118.5343361  39.8324638
  76.7665275 117.9746277  39.1798042  77.3975713 118.6135362  40.2157156
  76.7549805 118.4628926  39.7921587  86.9752351 113.6745483  28.1043908
  86.5959160 112.8882621  28.0973197  86.3118596 114.2232340  27.9615552
  86.8210826 113.6390307  28.0824705  79.1429012 118.7058004  41.1109128
  79.0672683 118.0366814  41.6659917  79.0718871 119.4075792  41.6249795
  79.1209619 118.7102911  41.2685976  79.9569651 103.4381308  41.6384146
  80.4142265 104.1705282  41.7656938  80.0325980 103.0147773  42.3971402
  80.0360621 103.4838546  41.7685223  72.2002642 103.6847128  42.7273590
  71.6644831 103.0727486  43.0434357  72.2620407 104.2595264  43.3807256
  72.1298275 103.6794055  42.8709016  84.4296977  96.6171183  35.5077989
  84.5480545  97.0747646  34.7745292  84.2559152  95.8116444  35.2214207
  84.4216148  96.5664955  35.3578923  79.7999259 117.2259002  31.9432734
  80.5649150 116.9568646  31.6215399  79.6977349 116.7409013  32.6602797
  79.8980754 117.1148567  32.0012562  77.8352029 105.4283412  38.4825970
  77.0448103 105.2474872  38.8043306  78.2312652 104.6510364  38.4656265
  77.7768905 105.2870873  38.5278518  83.2195715 113.0625842  36.2085416
  82.5440717 112.8311074  36.7098803  83.2288091 112.4547025  35.5827521
  83.1214220 112.9384767  36.1901568  80.3489859 107.9043671  42.9649469
  80.2849000 108.7653627  42.8369606  80.4887047 107.5875664  42.1645020
  80.3605329 107.9843838  42.8277682  85.2212450 115.9190974  28.4395594
  85.3032287 116.7257961  28.1157045  85.7062192 115.9386934  29.1636367
  85.3049607 116.0411637  28.4982493  79.0308953 110.5975810  37.1065672
  78.6071202 110.7980309  36.3704690  78.8553808 109.7504658  37.2189972
  78.9419833 110.5024592  37.0139362  78.5320646 122.1126323  39.5687129
  79.0216577 121.4137113  39.3862794  77.9604879 121.8150193  40.1563187
  78.5205176 121.9652547  39.6288170  74.3191398 111.0927862  32.5393644
  74.4756017 111.0274665  33.3949636  74.6591991 111.8676414  32.3272324
  74.3924633 111.1977060  32.6348239  80.8570542 110.4685745  31.4087008
  81.3986088 109.9656126  31.8725628  81.1717101 110.4150940  30.5976493
  80.9834940 110.3865166  31.3570820  84.7287650 114.6788393  48.5213920
  85.5422515 114.4073542  48.6819052  84.5682616 114.3795933  47.7174116
  84.8257598 114.5943319  48.4259326  79.0256992 115.8603097  28.6927036
  79.0949812 115.0017635  28.8320036  79.8045447 116.0774978  28.3646060
  79.1509842 115.7655961  28.6644193  82.0059812 105.3622050  41.4609308
  82.2201781 104.7232964  40.9072662  81.3893711 105.8067874  41.0317170
  81.9465141 105.3332194  41.3159739  83.4164480 118.2840798  32.9063529
  83.0244271 117.9807513  32.1886395  83.5717552 119.1209888  32.7168483
  83.3818070 118.3624635  32.7720026  70.8925659 108.2762812  32.8554412
  71.2724624 108.6947357  32.1914679  70.3181024 108.8576268  33.1623255
  70.8636984 108.4240671  32.8031153  84.1698900 106.9711115  42.3992615
  83.3575582 106.6637005  42.4805788  84.6288834 106.4910115  42.9635327
  84.1179285 106.8547607  42.4947209  83.5804155 114.8490787  32.8469560
  83.2218809 115.0205430  33.6233592  83.0942865 115.3103993  32.2897558
  83.4562851 114.9429758  32.8794829  81.3974540  98.4721985  36.4496651
  80.5268098  98.4460707  36.4029960  81.6514882  98.2999178  35.6322497
  81.3068101  98.4432129  36.3216788  78.3692520 110.5289952  25.3869794
  78.6585045 111.3054835  25.6613368  78.4564319 110.0178684  26.0884293
  78.4246776 110.5681871  25.5312292  81.2652407 108.3771186  47.1821317
  81.7352039 109.0013303  47.5689192  81.3114288 107.7088162  47.7414532
  81.3420283 108.3705867  47.3221389  78.4223681 100.4828214  37.9070121
  77.9062170  99.7908405  38.0321700  77.8617610 101.1498991  37.8532720
  78.2630194 100.4791472  37.9176187  80.4915914 101.0221174  39.7362974
  80.1047668 101.0470205  40.5176504  80.0048852 100.4562853  39.2837490
  80.3628423 100.9416925  39.7850878  84.7408894 115.7394683  43.7936760
  85.3788614 115.2454879  43.4599216  84.0982985 115.6672083  43.2088987
  84.7403120 115.6553691  43.6579115  86.4665894 107.5883829  38.3602676
  86.0393502 107.5010177  37.6050776  85.8291947 107.6961604  38.9457520
  86.3095501 107.5916489  38.3348118  80.1573056  97.9088159  42.0273234
  80.7866174  98.4448459  41.7494304  80.3258919  97.8165518  42.8786799
  80.2750851  97.9749522  42.1121762  79.9586971 102.6959354  44.2999645
  80.7860400 102.4244503  44.3558260  79.9794817 103.4920196  44.6563463
  80.0839821 102.7739108  44.3614828  84.7963150 116.4314491  40.4342117
  85.5855529 116.0803556  40.5544199  84.9706748 117.2450880  40.1718751
  84.9383432 116.5000348  40.4129985  74.5356461 109.8423217  37.4869906
  73.6944467 109.7427091  37.6948800  74.7446469 110.6118697  37.8384227
  74.4421153 109.9415260  37.5697221  72.0132028 107.4642754  35.3154657
  71.6188726 107.5385766  34.5404766  71.4572145 107.8500700  35.8663018
  71.8734840 107.5324529  35.2822316  83.6496975 100.4424048  34.9958536
  83.8546568 100.3746356  35.8415533  83.3223399 101.2482869  34.9279713
  83.6312223 100.5509988  35.1118191  78.3473126 107.7704616  36.7367504
  78.0436263 107.2160604  37.3377911  77.6452547 107.9496826  36.2495538
  78.1989336 107.7149398  36.7537209  77.4039223 105.0805136  31.3012205
  77.6798957 104.3624048  30.8889773  78.0037892 105.6790056  31.0933311
  77.5332487 105.0625507  31.2092967  76.4091477 114.9854337  41.4439601
  76.3011832 114.9956399  42.3101659  76.6187258 115.8109117  41.2544555
  76.4241588 115.1095412  41.5443693  86.9030662 100.9955812  34.4761301
  86.2904976 101.4826214  34.8615033  86.9994837 100.3199303  35.0198952
  86.8268560 100.9674121  34.6140159  80.9049743 102.7518653  29.5758800
  81.3593490 102.9229214  30.3006645  81.3789789 102.1386764  29.1756576
  81.0418063 102.6869539  29.6232562  74.4265269 112.2366979  38.9061539
  73.8353202 112.8776477  38.8764554  75.1886292 112.6604597  38.8792838
  74.4513529 112.3942818  38.8976686  74.8225892 103.3968977  39.5729556
  75.2827373 103.4707906  40.3104680  74.8681998 104.1950231  39.2229378
  74.8976447 103.5263124  39.6302313  76.4709241 104.0635672  44.1401584
  76.0794806 103.4169019  44.5757361  76.6395104 104.6547107  44.7595839
  76.4380152 104.0549940  44.2964290  90.5455690 112.0672749  39.9038817
  90.6038814 112.5159398  40.6498794  89.9122158 112.4771562  39.4668897
  90.4606985 112.1946484  39.9491365  84.1854785 117.6876291  36.3393563
  83.9874474 118.1767105  35.6449775  83.5642496 117.8917532  36.9177697
  84.0642349 117.7892829  36.3216787  78.2462763 109.4561188  30.6803808
  78.9904808 109.8435464  30.9186758  78.3923460 108.6118613  30.8444295
  78.3773348 109.3891660  30.7397777  80.1642339 101.2511447  35.7135669
  79.3178384 101.4234254  35.5877019  80.1613471 100.4460790  36.0501497
  80.0389489 101.1572476  35.7446796  81.2340639 105.0286661  36.5797727
  80.7600593 104.5028423  37.0903038  81.6058775 104.4816134  36.0112588
  81.2190528 104.8702658  36.5712874  71.6113669 107.0258168  41.9481273
  72.4739282 106.9253877  41.8618603  71.2805452 106.4452877  41.3866845
  71.6898866 106.9249794  41.8526679  87.4977370 110.0889037  37.9904507
  87.2575593 109.2495452  37.9946934  87.9769377 110.1689203  38.7145281
  87.5329553 109.9770436  38.0979310  83.1624139 105.9223216  29.6423481
  82.6347157 106.0051960  28.9529190  83.6219847 106.6641087  29.6388125
  83.1525989 106.0443878  29.5398176  89.4982557 106.8690494  35.9433767
  89.2592327 106.8286328  35.1054551  89.6616458 107.7161646  36.0699488
  89.4872860 106.9882579  35.8387249  86.1028587 111.2540443  41.8738812
  86.8262786 110.8012970  41.6949832  85.8378549 111.5345109  41.0911140
  86.1709860 111.2291412  41.7317527  74.9715455 105.8500617  38.6091691
  74.3468525 105.8619009  38.0017644  74.6361050 106.3260792  39.2582931
  74.8300947 105.9219134  38.6148259  75.1557204 104.1925735  24.6664376
  74.8070008 104.8445460  25.1295925  74.6753650 104.1782848  23.9388247
  75.0327448 104.2868789  24.6275467  71.6841131 113.9101077  40.0495455
  71.1541055 113.2193516  40.0990430  71.9566224 113.9011262  39.2208164
  71.6465853 113.8068209  39.9342871  82.7161221 114.4926779  28.7733138
  83.4395420 114.9584892  28.6297711  82.2761812 114.5600389  28.0230735
  82.7576914 114.5710616  28.6417919  81.8847376 111.3524321  40.0233827
  81.2704370 110.8082372  40.3182462  82.4014661 110.8388558  39.5439643
  81.8703039 111.1960730  39.9958055  81.1243674 112.4228591  37.7578125
  80.6971282 111.7978310  37.3243561  81.1168618 112.1403513  38.5837133
  81.0602815 112.2881372  37.8157953  74.2406201 107.4593764  40.8266559
  74.3999687 106.7037089  41.2318281  74.0599094 108.0084704  41.4807297
  74.2371560 107.4287578  40.9829265  82.1826504  99.6255000  41.3817349
  81.6867065  99.8218674  40.6908916  82.9395566 100.0247668  41.2106151
  82.2213328  99.7132734  41.2537486  79.4529383 103.2997346  37.9720659
  79.4771870 102.7657458  37.2833439  79.7040857 102.7914655  38.6346250
  79.4939302 103.1458250  37.9685304  66.9636973 110.5828841  37.4063803
  66.8580422 110.5375685  36.5415888  66.2137193 110.9282621  37.6878088
  66.8372576 110.6269749  37.3201133  75.7330705 102.0268164  37.3526404
  75.7729077 102.5277371  38.0661111  74.9080370 102.1178558  37.0832327
  75.6170231 102.1149981  37.4176942  77.9160318 111.5928904  45.4546698
  77.0655949 111.7300618  45.5904343  78.0788446 110.8592682  45.8994400
  77.8144182 111.5043005  45.5402298  77.1545069 108.5428674  39.6500303
  76.3236999 108.7102492  39.4435551  77.0996586 108.1664625  40.4349188
  77.0234484 108.5118405  39.7348831  74.9628852 102.0337567  45.2856713
  75.5881556 101.4899700  45.5586146  74.5079332 101.5532485  44.7164504
  74.9877113 101.8827048  45.2418307  75.5281113 106.8184266  30.1790420
  75.6684074 107.3156730  30.8819062  76.0263646 106.1170560  30.3204634
  75.6222194 106.7886244  30.3041999  75.5581335 107.6851377  27.5082997
  76.1926415 108.2811802  27.4432459  75.6406946 107.3854834  28.3228867
  75.6637886 107.7292285  27.6186084  88.5363901 110.2166854  40.3769361
  89.1281741 110.8564105  40.4087560  88.9722895 109.5189891  40.6661428
  88.6882332 110.2085204  40.4250194  77.1360318 103.6165352  27.4828439
  77.4576159 103.1368435  26.8287702  77.3987262 104.4264998  27.2919251
  77.2226343 103.6655250  27.3583931  80.3657291 114.6384226  41.0027255
  79.8582382 115.1920073  41.4467886  80.0683937 114.6992516  40.1846030
  80.2462176 114.7290538  40.9475712  82.5319473 103.0037546  39.8451918
  82.9574544 102.5510072  39.2335445  81.9176466 102.4497617  40.1216706
  82.5048118 102.8551522  39.7956944  72.0634323 109.8819217  30.7772543
  72.5726552 110.4783725  31.1583849  72.5368595 109.6145191  30.0948963
  72.2077699 109.9305033  30.7327066  82.9765071 118.5547484  28.9331199
  82.2594381 118.3808346  28.4678436  83.6271809 118.3200056  28.4006685
  82.9666922 118.4943277  28.7860417  80.9713696  99.4752646  33.2542495
  80.3282014  99.3250292  33.8227634  80.6313103  99.2294991  32.4891600
  80.8258773  99.4164768  33.2245511  85.5613042 107.4312073  32.6772504
  84.8904232 107.9741775  32.5485570  86.2552793 107.9006928  32.4354199
  85.5641910 107.5810344  32.6228032  79.6099776 119.5708785  37.9084262
  79.3865430 118.8127614  38.2768289  79.1209619 119.6006806  37.1864702
  79.5043225 119.4631009  37.8561003  85.7241170 103.8867956  35.5862877
  86.0768780 103.4597679  36.2608676  84.8655971 103.8018800  35.7163954
  85.6490614 103.8112697  35.7057888  74.4224855 106.5175476  33.6445724
  73.7036844 106.9339608  33.9118587  74.7937217 107.0829715  33.0937362
  74.3716786 106.6624757  33.6028531  83.7224436 107.1503325  39.5347719
  83.7022363 106.9686620  40.3882498  83.7703636 108.0215343  39.5107303
  83.7259077 107.2519863  39.6571014  81.6670765 113.7390517  45.4596196
  81.6266620 113.0940194  44.8741352  82.4794084 113.6827134  45.7721608
  81.7813919 113.6349484  45.4193145  78.2578233 119.7909243  35.3621347
  77.8438632 119.1283373  34.9725189  78.9425607 119.9387101  34.8417041
  78.2976605 119.7149901  35.2277844  81.6243527 118.9499328  36.1144963
  81.2259810 119.0601598  35.3465784  81.0094747 119.1581394  36.6971523
  81.4742416 118.9972896  36.0876263  80.1971429 105.5573476  28.9819103
  79.6036268 105.8790472  28.4303670  80.2346707 104.7114571  28.7740209
  80.1145818 105.4797804  28.8701874  87.1565230  99.0086368  36.5147190
  86.6496094  98.3015508  36.4468367  87.9532664  98.6779557  36.6448266
  87.1992469  98.8559519  36.5246185  83.0729246 105.5152980  32.4120853
  82.8442939 105.5385682  31.5699212  83.3327322 104.6910447  32.5315864
  83.0775434 105.3969060  32.3046051  77.3548474 107.3687453  42.0145954
  76.8427377 106.7608636  42.3730985  77.1827970 108.0844046  42.4819929
  77.2538111 107.3850753  42.1362177  72.2014189 105.8125029  44.6648315
  72.0316779 106.4726403  44.1196522  71.7580139 106.0231590  45.3860805
  72.1113522 105.9411011  44.6909945  76.1274008 104.0529527  33.7075049
  76.6031374 104.4146606  33.0725230  75.6262608 104.7085994  33.9875192
  76.1239367 104.2023715  33.6551790  89.3585370 113.5251295  29.4988054
  89.7418976 114.2742651  29.7286151  88.5629483 113.7717114  29.2400043
  89.2979152 113.6720989  29.4945628  81.2317544 105.2911698  44.4548209
  81.7888975 105.0625508  43.8226675  80.9078609 106.0517364  44.1783422
  81.2663955 105.3695535  44.3204706  69.1016253 108.7171894  39.9236805
  68.5542973 108.0472540  40.0417674  69.8908631 108.3501742  39.9880273
  69.1368437 108.5636881  39.9505506  78.9500662 108.3779351  45.4200216
  79.7011989 108.6931028  45.7339770  79.1423238 108.1758522  44.5934138
  79.0892076 108.3946733  45.3443612  78.1700661 106.1970726  27.0748433
  78.5499626 106.2150356  26.2899548  77.4293257 106.6424715  26.9539280
  78.1169499 106.2652501  26.9412001  85.7985952 104.5052918  32.6624012
  85.7980178 104.3501574  33.5208288  85.5942132 105.3515905  32.6065397
  85.7685730 104.6073538  32.7811951  67.8603223 107.9292702  37.0782828
  67.6824984 107.4769311  37.8037744  67.5722245 108.7318863  37.2621306
  67.7916176 107.9815260  37.2126331  83.5226804 109.1850419  36.3160219
  84.0180469 108.4673414  36.2764239  82.7126580 108.8821217  36.2014706
  83.4770697 109.0348066  36.2933944  78.9685415 113.0348233  28.4657223
  78.1596738 112.7114906  28.4190533  79.4760324 112.3281455  28.3985472
  78.9235082 112.8829549  28.4487517  69.5975693 110.4620426  34.1904587
  68.7321212 110.4506116  34.0787359  69.6974509 110.2750649  35.0375727
  69.4849860 110.4326487  34.2993532  85.5878623 111.9354107  39.0037347
  86.0133694 111.4128529  38.4507772  85.2235543 112.5334944  38.4825970
  85.5965225 111.9464334  38.8446357  75.2232703 120.2318324  37.7634693
  75.5379262 121.0454713  37.7712475  75.6326116 119.8468543  38.4316852
  75.3300801 120.2947027  37.8638785  82.1757222 115.6488371  35.3338505
  82.6468400 116.3628634  35.5028490  82.5117401 115.0487121  35.8698374
  82.2952337 115.6659835  35.4370881  84.2634207 117.2589685  47.5130577
  84.3731172 116.4698245  47.8687324  84.5925103 117.1695621  46.7104915
  84.3286613 117.1295537  47.4472968  79.0926717 100.4215842  42.2896600
  79.2254623  99.6246835  42.6177575  79.4771870 100.9482245  42.8694875
  79.1683046 100.3815758  42.4240103  82.8131169 115.4406305  42.0966197
  82.2652115 114.8164189  41.8286263  83.2744197 115.6300577  41.3810277
  82.7998378 115.3765355  41.9516629  82.1659072  97.3446168  38.8877693
  81.3605036  97.2343898  39.2045531  82.0365808  97.4458624  38.0307559
  82.0279205  97.3429838  38.8085733  85.6225033 103.5091660  39.4817390
  85.0388022 104.0100866  39.0694957  85.9429327 103.0021216  38.8481713
  85.5838208 103.5083495  39.3275897  78.1619832 102.4232255  29.7576065
  78.9835526 102.5930567  29.5157759  77.6989483 102.5779516  29.0342362
  78.2150994 102.4713988  29.6147709  76.7515164 100.4175017  40.5374493
  77.2959577 100.0766144  41.1278835  76.8052100 101.2760478  40.6795778
  76.8404283 100.4930276  40.6456367  72.5645723 114.1791433  37.4113301
  73.1690580 114.1387267  36.7827122  72.3573035 115.0262585  37.4417357
  72.6234620 114.2979435  37.3229418  82.3789495 116.4457378  38.6275539
  83.1987869 116.3020344  38.8891834  82.0983572 117.0703577  39.1691977
  82.4586238 116.5167730  38.7463478  67.7997005 113.1626050  37.2812224
  67.7021283 112.3522322  37.5902281  68.5825875 113.1417844  36.8958493
  67.9013141 113.0393141  37.2699087  92.0502830 123.1897881  36.3471345
  91.1940726 123.3506379  36.3980462  92.0970484 122.3189945  36.3676406
  91.9301942 123.0848683  36.3577411  94.8954651 125.2489925  38.9902997
  95.4410611 125.9275011  39.0496967  94.8371527 125.1077386  38.1304579
  94.9670565 125.3281926  38.8715058  81.2093770 128.7599277  34.0023683
  80.9743955 127.9266930  33.8955952  81.3479411 129.0403943  33.1884884
  81.1949433 128.6782781  33.8666038  83.5083858 120.9285008  36.9007991
  82.8888889 120.3377655  36.7318006  83.4067721 121.5196443  36.2672314
  83.4021533 120.9289090  36.7812980  83.2352991 124.4737290  39.1451560
  83.1111688 125.0599735  39.7801379  83.8871275 123.9797485  39.4463835
  83.3126640 124.4876094  39.2837489  88.2611332 127.6499007  38.4239071
  88.9060334 127.1571450  38.1050019  88.5013109 127.7923793  39.2505149
  88.3921917 127.5976449  38.4988604  90.7997423 130.4953912  38.0745964
  91.0820666 129.7005318  37.8532719  91.5283583 130.9734500  38.0951025
  90.9486987 130.4488509  38.0448979  88.7778617 118.0376946  35.3161729
  88.4481947 118.4888090  34.6465427  88.1023619 117.9593110  35.8634735
  88.6289053 118.0928082  35.2984952  95.9855025 114.0262469  33.5611339
  95.6708466 114.7165948  33.9931762  95.4681966 113.9707252  32.8596840
  95.8619495 114.1197358  33.5208288  82.7711095 133.6384948  35.2779889
  82.2878673 134.3635438  35.2539473  83.5834413 133.9361078  35.3890047
  82.8201843 133.7887302  35.2907169  88.8425249 132.4317129  37.8829704
  88.3252191 132.0724544  37.2791012  89.5399640 131.9079303  37.8935770
  88.8690830 132.3014817  37.7959962  90.0659301 132.1643103  42.8263539
  89.5030136 131.7515713  43.3503200  90.8280324 132.0896008  43.2456682
  90.0953749 132.0920503  42.9656539  86.9834571 116.0989235  30.7984676
  87.7380539 116.4667552  30.5601727  86.8062106 116.4728789  31.5663856
  87.0689049 116.2087423  30.8769565 100.2769470 122.2483675  38.8432216
  99.4397891 122.3185862  39.0779810 100.2457701 122.2508170  37.9706518
 100.1487752 122.2593902  38.7491764  86.6734199 124.3916711  44.5580584
  86.8454702 124.2822606  45.4065866  87.2103556 125.0371116  44.3211777
  86.7779203 124.4708713  44.6485681  84.9506068 130.3447476  34.9385777
  85.7894967 130.5770409  34.9859539  84.9817837 129.4751787  34.8692813
  85.0787785 130.2504422  34.9350422  85.5758771 130.7648351  39.2399083
  86.1156996 130.6219482  39.9102455  84.8928717 131.1645102  39.6083109
  85.5550925 130.8028022  39.3933504  91.0191355 115.5085964  30.5311813
  91.7477515 115.3301919  30.0849969  91.1086248 116.3504044  30.7418991
  91.1398017 115.6069843  30.4965331  80.9795916 126.9848642  39.3933504
  80.7134331 126.1687759  39.5524495  80.9934480 127.0301798  38.5229020
  80.9420638 126.8705547  39.2886986  97.9577310 117.3126457  37.4275938
  98.6003218 117.3824562  38.0137853  98.2100330 116.6455680  36.9255480
  98.0899442 117.2252806  37.4403217  85.7294522 120.5227020  42.0400512
  85.0366319 120.0524000  42.2861244  86.3454849 120.2965325  42.6142219
  85.7179052 120.4194152  42.1609665  81.3889329 127.7707421  36.6745249
  81.2064903 127.7454307  35.8217541  82.1238998 128.2406359  36.7134157
  81.4703393 127.8368784  36.5543167  84.4535081 124.4892424  43.1827357
  85.1775053 124.4745455  43.6692252  84.5551218 125.1987780  42.6849325
  84.5753290 124.5917127  43.1806144  91.8280030 127.9691509  48.0476304
  91.0353011 128.2835021  48.2328924  91.9428958 128.1842977  47.2097089
  91.7275441 128.0475346  47.9514639  92.7563823 127.8711713  42.9861601
  93.3302685 127.2338957  43.1410165  92.6778627 127.8715795  42.1171259
  92.8297058 127.7776824  42.8808012  81.3560240 124.6500922  36.8244315
  81.9333742 124.5137373  37.4636560  80.6574301 124.1936706  37.0789899
  81.3381261 124.5623188  36.9566605  88.1127542 126.3034978  35.0382798
  87.8546786 125.4706713  35.0114098  88.1676025 126.5292591  34.1975299
  88.0827320 126.2132749  34.9102935  93.1928592 118.4063428  35.1386891
  92.4884919 117.9172614  35.2970810  93.2413566 118.4185903  34.2675335
  93.0958644 118.3353076  35.0326231  87.0862254 123.8572740  35.5247693
  86.5111845 124.0164909  36.1611654  86.7097930 123.2208149  35.0616144
  86.9465066 123.7870553  35.5502251  90.7535543 122.3296089  40.3840072
  90.3649975 121.9050307  39.7292263  90.0890241 122.5778239  40.8917098
  90.5982470 122.3034811  40.3627939  76.8319073 123.5012815  33.5392134
  76.9179325 123.1244683  34.3205664  77.4594870 123.1273261  33.0612092
  76.9375624 123.3898297  33.5837611  94.5761904 116.0270718  37.8964056
  94.9572416 115.3448889  38.2831930  93.7725188 115.7380320  37.7139720
  94.5138366 115.8837767  37.9268112  82.4195032 132.2704548  37.5923494
  82.4599177 132.5419399  36.7643274  82.9789556 132.7946456  38.0081282
  82.5078377 132.3880303  37.5315383  88.5353745 118.5324916  47.7626664
  88.2207186 119.3024479  47.4996227  88.2143677 117.9695173  47.1778891
  88.4412664 118.5635185  47.6368014  86.0885642 116.9215438  33.3772860
  85.2208067 116.9938037  33.4430470  86.3760846 117.7237517  33.5660836
  86.0025390 117.0509585  33.4147627  95.2118530 117.0693297  41.7084182
  95.9572122 116.8803108  41.2947608  94.7955835 117.5951535  41.1498039
  95.2603505 117.1195443  41.5648756  89.2403192 128.2741123  41.2049581
  88.7414886 128.9856891  41.2834469  90.0503416 128.5941790  41.1667743
  89.2859299 128.4267972  41.2106149  85.5031310 127.5364076  35.4512302
  85.2144558 126.9101547  35.9858029  86.3714658 127.4784364  35.5176982
  85.5891562 127.4351620  35.5403256  96.2909207 122.6798860  35.7694283
  95.9473973 121.9589195  36.1201533  96.3902250 122.4712711  34.9272642
  96.2551250 122.5423063  35.6965964  88.1670250 121.1322168  46.5011879
  87.3570026 121.4379947  46.3901721  88.6444937 121.8527750  46.6164463
  88.1173729 121.2836769  46.5018950  87.0261810 130.3467889  36.7494782
  86.5042563 130.4868180  37.4346647  87.4135830 129.5878553  36.9396899
  87.0065511 130.2553412  36.8795859  84.0152994 120.3973697  30.8189737
  83.7277789 120.0274968  30.0821684  84.7023462 120.8668553  30.5573442
  84.0741891 120.4120667  30.6704812  86.8506665 124.2626646  32.2657141
  87.5729317 124.4267804  31.8060947  86.3714658 124.9836310  32.1596481
  86.8870396 124.3924875  32.1822755  94.8100173 120.5990444  37.6453826
  93.9711273 120.6251723  37.4092090  94.8804540 121.2461180  38.2259173
  94.6968566 120.6986570  37.6962943  84.5014282 126.6684718  41.3711281
  85.0135379 126.9468971  40.7220041  84.2150625 127.4074012  41.7374094
  84.5349145 126.8187072  41.3301159  93.2569451 117.4975821  32.3781442
  93.9595804 117.2983570  31.9001401  92.9913640 116.7251764  32.6850286
  93.3216083 117.3538787  32.3526884  81.5881188 121.1754910  31.6675018
  81.6897325 121.9781071  31.9955993  82.3837075 120.9742246  31.3698098
  81.7209094 121.2640809  31.6710373  88.0198007 118.7611106  41.4312323
  87.8281204 118.7766241  42.2811746  88.8696603 118.9574781  41.4078978
  88.1173729 118.7925458  41.5535618  82.4044920 121.2902088  39.4096139
  82.2630412 120.4386029  39.5340647  82.6885484 121.3330749  38.5858345
  82.4252766 121.1701838  39.3063763  92.5583513 123.1269178  33.5540628
  92.3118227 123.0464929  34.3877417  92.8868636 122.3422646  33.3603155
  92.5704756 122.9995443  33.6488151  94.7909647 126.1348913  43.5949791
  94.7857685 125.2628729  43.5992217  95.4970641 126.3337082  43.1219246
  94.8954651 126.0352787  43.5256826  88.5180540 125.8625897  42.9663611
  88.6623916 126.4427105  42.3306721  88.8656189 126.2402193  43.6713465
  88.5908001 126.0046601  42.9762606  90.6900457 125.0616065  40.7488742
  89.9423771 125.2547080  40.3437020  90.8441983 124.2361285  40.5112864
  90.6022885 124.9681177  40.6534148  90.9302234 118.9566616  41.6384146
  91.3874848 119.6890590  41.7656938  91.0058563 118.5333081  42.3971402
  91.0093204 119.0023854  41.7685223  83.1735226 119.2032436  42.7273590
  82.6377415 118.5912794  43.0434357  83.2352990 119.7780572  43.3807256
  83.1030858 119.1979363  42.8709016  95.4029560 112.1356491  35.5077989
  95.5213128 112.5932954  34.7745292  95.2291736 111.3301752  35.2214207
  95.3948731 112.0850263  35.3578923  88.8084612 120.9468720  38.4825970
  88.0180687 120.7660180  38.8043306  89.2045235 120.1695672  38.4656265
  88.7501488 120.8056181  38.5278518  91.3222443 123.4228979  42.9649469
  91.2581584 124.2838935  42.8369606  91.4619630 123.1060972  42.1645020
  91.3337913 123.5029146  42.8277682  90.0041536 126.1161118  37.1065672
  89.5803786 126.3165617  36.3704690  89.8286392 125.2689966  37.2189972
  89.9152417 126.0209900  37.0139362  92.9792395 120.8807358  41.4609308
  93.1934365 120.2418272  40.9072662  92.3626295 121.3253182  41.0317170
  92.9197725 120.8517501  41.3159739  81.8658243 123.7948120  32.8554412
  82.2457208 124.2132665  32.1914679  81.2913608 124.3761576  33.1623255
  81.8369568 123.9425979  32.8031153  95.1431483 122.4896423  42.3992615
  94.3308165 122.1822313  42.4805788  95.6021418 122.0095423  42.9635327
  95.0911868 122.3732915  42.4947209  92.3707124 113.9907293  36.4496651
  91.5000682 113.9646015  36.4029960  92.6247465 113.8184486  35.6322497
  92.2800684 113.9617437  36.3216788  92.2384991 123.8956494  47.1821317
  92.7084622 124.5198611  47.5689192  92.2846871 123.2273470  47.7414532
  92.3152867 123.8891175  47.3221389  89.3956265 116.0013522  37.9070121
  88.8794753 115.3093713  38.0321700  88.8350193 116.6684299  37.8532720
  89.2362778 115.9976779  37.9176187  91.4648498 116.5406482  39.7362974
  91.0780251 116.5655513  40.5176504  90.9781435 115.9748161  39.2837490
  91.3361007 116.4602233  39.7850878  97.4398478 123.1069137  38.3602676
  97.0126086 123.0195485  37.6050776  96.8024530 123.2146912  38.9457520
  97.2828085 123.1101797  38.3348118  91.1305640 113.4273467  42.0273234
  91.7598758 113.9633767  41.7494304  91.2991502 113.3350826  42.8786799
  91.2483434 113.4934830  42.1121762  90.9319555 118.2144662  44.2999645
  91.7592984 117.9429811  44.3558260  90.9527401 119.0105504  44.6563463
  91.0572405 118.2924416  44.3614828  85.5089044 125.3608525  37.4869906
  84.6677051 125.2612399  37.6948800  85.7179052 126.1304005  37.8384227
  85.4153737 125.4600568  37.5697221  82.9864611 122.9828062  35.3154657
  82.5921309 123.0571074  34.5404766  82.4304728 123.3686008  35.8663018
  82.8467424 123.0509836  35.2822316  94.6229558 115.9609356  34.9958536
  94.8279152 115.8931664  35.8415533  94.2955982 116.7668177  34.9279713
  94.6044806 116.0695296  35.1118191  89.3205709 123.2889924  36.7367504
  89.0168847 122.7345912  37.3377911  88.6185130 123.4682134  36.2495538
  89.1721919 123.2334706  36.7537209  88.3771806 120.5990444  31.3012205
  88.6531541 119.8809356  30.8889773  88.9770476 121.1975364  31.0933311
  88.5065071 120.5810815  31.2092967  87.3824060 130.5039645  41.4439601
  87.2744415 130.5141707  42.3101659  87.5919842 131.3294425  41.2544555
  87.3974171 130.6280720  41.5443693  97.8763246 116.5141120  34.4761301
  97.2637560 117.0011522  34.8615033  97.9727421 115.8384611  35.0198952
  97.8001144 116.4859429  34.6140159  85.3997852 127.7552287  38.9061539
  84.8085786 128.3961785  38.8764554  86.1618876 128.1789904  38.8792838
  85.4246113 127.9128126  38.8976686  85.7958475 118.9154285  39.5729556
  86.2559957 118.9893214  40.3104680  85.8414582 119.7135539  39.2229378
  85.8709030 119.0448432  39.6302313  87.4441825 119.5820980  44.1401584
  87.0527390 118.9354327  44.5757361  87.6127688 120.1732415  44.7595839
  87.4112735 119.5735248  44.2964290  91.1374922 116.7696755  35.7135669
  90.2910967 116.9419562  35.5877019  91.1346055 115.9646098  36.0501497
  91.0122072 116.6757783  35.7446796  92.2073223 120.5471969  36.5797727
  91.7333177 120.0213731  37.0903038  92.5791359 120.0001442  36.0112588
  92.1923112 120.3887966  36.5712874  82.5846253 122.5443476  41.9481273
  83.4471866 122.4439185  41.8618603  82.2538036 121.9638185  41.3866845
  82.6631449 122.4435102  41.8526679  98.4709953 125.6074345  37.9904507
  98.2308176 124.7680760  37.9946934  98.9501961 125.6874511  38.7145281
  98.5062137 125.4955744  38.0979310  97.0761170 126.7725751  41.8738812
  97.7995369 126.3198277  41.6949832  96.8111133 127.0530417  41.0911140
  97.1442444 126.7476720  41.7317527  85.9448039 121.3685925  38.6091691
  85.3201109 121.3804317  38.0017644  85.6093634 121.8446100  39.2582931
  85.8033531 121.4404442  38.6148259  82.6573714 129.4286385  40.0495455
  82.1273639 128.7378824  40.0990430  82.9298808 129.4196570  39.2208164
  82.6198437 129.3253517  39.9342871  92.8579960 126.8709629  40.0233827
  92.2436953 126.3267680  40.3182462  93.3747245 126.3573866  39.5439643
  92.8435622 126.7146038  39.9958055  92.0976257 127.9413899  37.7578125
  91.6703865 127.3163618  37.3243561  92.0901202 127.6588821  38.5837133
  92.0335398 127.8066680  37.8157953  85.2138784 122.9779072  40.8266559
  85.3732271 122.2222397  41.2318281  85.0331678 123.5270012  41.4807297
  85.2104143 122.9472886  40.9829265  93.1559087 115.1440308  41.3817349
  92.6599649 115.3403982  40.6908916  93.9128149 115.5432976  41.2106151
  93.1945912 115.2318042  41.2537486  90.4261967 118.8182654  37.9720659
  90.4504454 118.2842766  37.2833439  90.6773440 118.3099963  38.6346250
  90.4671886 118.6643558  37.9685304  77.9369557 126.1014149  37.4063803
  77.8313006 126.0560993  36.5415888  77.1869777 126.4467929  37.6878088
  77.8105160 126.1455057  37.3201133  86.7063289 117.5453472  37.3526404
  86.7461661 118.0462679  38.0661111  85.8812954 117.6363866  37.0832327
  86.5902815 117.6335288  37.4176942  88.8892902 127.1114212  45.4546698
  88.0388532 127.2485926  45.5904343  89.0521030 126.3777990  45.8994400
  88.7876765 127.0228313  45.5402298  88.1277652 124.0613982  39.6500303
  87.2969582 124.2287800  39.4435551  88.0729170 123.6849933  40.4349188
  87.9967067 124.0303713  39.7348831  85.9361436 117.5522875  45.2856713
  86.5614139 117.0085008  45.5586146  85.4811916 117.0717792  44.7164504
  85.9609696 117.4012356  45.2418307  86.5013696 122.3369574  30.1790420
  86.6416657 122.8342038  30.8819062  86.9996229 121.6355868  30.3204634
  86.5954777 122.3071552  30.3041999  91.3389874 130.1569534  41.0027255
  90.8314965 130.7105381  41.4467886  91.0416521 130.2177824  40.1846030
  91.2194759 130.2475845  40.9475712  93.5052057 118.5222854  39.8451918
  93.9307128 118.0695380  39.2335445  92.8909050 117.9682925  40.1216706
  93.4780702 118.3736830  39.7956944  91.9446279 114.9937954  33.2542495
  91.3014597 114.8435600  33.8227634  91.6045686 114.7480299  32.4891600
  91.7991357 114.9350076  33.2245511  96.6973753 119.4053264  35.5862877
  97.0501363 118.9782987  36.2608676  95.8388555 119.3204108  35.7163954
  96.6223198 119.3298005  35.7057888  85.3957438 122.0360784  33.6445724
  84.6769427 122.4524916  33.9118587  85.7669801 122.6015023  33.0937362
  85.3449370 122.1810065  33.6028531  94.6957019 122.6688633  39.5347719
  94.6754946 122.4871928  40.3882498  94.7436220 123.5400651  39.5107303
  94.6991660 122.7705171  39.6571014  92.6403349 129.2575825  45.4596196
  92.5999204 128.6125502  44.8741352  93.4526667 129.2012442  45.7721608
  92.7546502 129.1534792  45.4193145  98.1297813 114.5271676  36.5147190
  97.6228678 113.8200816  36.4468367  98.9265247 114.1964865  36.6448266
  98.1725053 114.3744827  36.5246185  88.3281058 122.8872761  42.0145954
  87.8159961 122.2793944  42.3730985  88.1560554 123.6029354  42.4819929
  88.2270695 122.9036061  42.1362177  83.1746772 121.3310337  44.6648315
  83.0049363 121.9911711  44.1196522  82.7312722 121.5416898  45.3860805
  83.0846106 121.4596319  44.6909945  87.1006592 119.5714835  33.7075049
  87.5763958 119.9331914  33.0725230  86.5995191 120.2271302  33.9875192
  87.0971951 119.7209023  33.6551790  92.2050128 120.8097006  44.4548209
  92.7621558 120.5810815  43.8226675  91.8811193 121.5702672  44.1783422
  92.2396538 120.8880843  44.3204706  80.0748837 124.2357202  39.9236805
  79.5275556 123.5657848  40.0417674  80.8641215 123.8687050  39.9880273
  80.1101021 124.0822189  39.9505506  89.9233245 123.8964659  45.4200216
  90.6744572 124.2116336  45.7339770  90.1155822 123.6943830  44.5934138
  90.0624659 123.9132041  45.3443612  78.8335806 123.4478010  37.0782828
  78.6557567 122.9954619  37.8037744  78.5454829 124.2504171  37.2621306
  78.7648760 123.5000568  37.2126331  94.4959387 124.7035727  36.3160219
  94.9913053 123.9858722  36.2764239  93.6859163 124.4006525  36.2014706
  94.4503281 124.5533374  36.2933944  80.5708276 125.9805734  34.1904587
  79.7053796 125.9691424  34.0787359  80.6707092 125.7935957  35.0375727
  80.4582443 125.9511795  34.2993532  96.5611206 127.4539415  39.0037347
  96.9866278 126.9313837  38.4507772  96.1968126 128.0520252  38.4825970
  96.5697809 127.4649642  38.8446357  90.0659301 115.9401150  42.2896600
  90.1987206 115.1432143  42.6177575  90.4504453 116.4667553  42.8694875
  90.1415630 115.9001066  42.4240103  93.1391656 112.8631476  38.8877693
  92.3337620 112.7529205  39.2045531  93.0098391 112.9643932  38.0307559
  93.0011789 112.8615146  38.8085733  96.5957616 119.0276968  39.4817390
  96.0120605 119.5286174  39.0694957  96.9161911 118.5206524  38.8481713
  96.5570792 119.0268803  39.3275897  89.1352416 117.9417563  29.7576065
  89.9568110 118.1115875  29.5157759  88.6722067 118.0964823  29.0342362
  89.1883578 117.9899295  29.6147709  87.7247748 115.9360325  40.5374493
  88.2692160 115.5951452  41.1278835  87.7784683 116.7945786  40.6795778
  87.8136867 116.0115584  40.6456367  83.5378306 129.6976741  37.4113301
  84.1423164 129.6572575  36.7827122  83.3305619 130.5447893  37.4417357
  83.5967204 129.8164743  37.3229418  78.7729589 128.6811358  37.2812224
  78.6753867 127.8707630  37.5902281  79.5558458 128.6603152  36.8958493
  78.8745725 128.5578448  37.2699087  29.2151869  13.2850690  32.8871848
  29.9218636  12.7902721  33.0158783  29.4039805  13.7259771  32.1574506
  29.3479775  13.2769040  32.7980894  26.3544163  16.7078226  30.7785924
  26.4427509  16.5204367  31.6264134  26.7833876  16.0615656  30.3790770
  26.4306266  16.5841234  30.8457675  23.9214623  15.9909386  29.7603586
  23.3585458  15.5781996  30.2843247  24.6835647  15.9162292  30.1796729
  23.9509072  15.9186787  29.8996586  26.4664223  16.1387246  33.4429707
  27.2504639  16.2518093  33.8085449  26.2660817  15.3128383  33.6388393
  26.5530248  16.0333965  33.5264093  25.6835353  11.7957792  34.9816351
  24.8908334  12.1101304  35.1668971  25.7984280  12.0109261  34.1437136
  25.5830763  11.8741629  34.8854686  31.9339294  13.0686974  29.9286501
  31.6977931  12.2375039  29.8098562  32.5782522  13.0172581  30.5141345
  31.9933964  12.9384662  29.9972395  29.5575556  14.0239984  35.4553967
  30.3710421  13.7525133  35.6159099  29.3970522  13.7247524  34.6514163
  29.6545504  13.9394910  35.3599373  26.0940313   7.7222778  34.1161364
  26.5639945   8.3464894  34.5029238  26.1402194   7.0539754  34.6754579
  26.1708189   7.7157458  34.2561436  29.5696800  15.0846274  30.7276807
  30.2076520  14.5906470  30.3939263  28.9270891  15.0123675  30.1429034
  29.5691026  15.0005283  30.5919162  29.6251057  15.7766083  27.3682164
  30.4143435  15.4255147  27.4884246  29.7994654  16.5902471  27.1058798
  29.7671338  15.8451940  27.3470032  26.4958671  13.0842108  32.3936243
  26.4554526  12.4391785  31.8081399  27.3081990  13.0278726  32.7061655
  26.6101825  12.9801075  32.3533192  29.0922113  16.6041276  34.4470624
  29.2019078  15.8149837  34.8027371  29.4213009  16.5147212  33.6444962
  29.1574519  16.4747129  34.3813014  43.6791051  23.4473821  18.5258462
  43.6485056  24.3018458  18.6976731  44.2772400  23.1469114  19.0844605
  43.7628209  23.5290318  18.6333264  36.8790736  22.5349472  23.2811392
  36.0228632  22.6957971  23.3320509  36.9258390  21.6641536  23.3016453
  36.7589848  22.4300274  23.2917458  31.2631876  32.0712190  19.0448624
  30.5114775  31.6927728  18.8164669  31.7117888  32.1030624  18.2967434
  31.2181543  32.0197797  18.9006126  40.1884453  28.8035998  32.8871848
  40.8951220  28.3088029  33.0158783  40.3772388  29.2445079  32.1574506
  40.3212358  28.7954348  32.7980894  36.2561127  34.4451828  20.4145282
  36.6400506  35.0138727  19.8750058  36.1920268  33.7201339  19.9351099
  36.3034554  34.4227292  20.2639145  39.7242557  24.5941516  25.9243044
  40.2698517  25.2726603  25.9837014  39.6659433  24.4528977  25.0644625
  39.7958471  24.6733518  25.8055104  32.8416632  32.0830582  21.3111396
  32.9426995  31.2730936  21.6208524  32.2458377  31.9887529  20.6811075
  32.7689171  31.9495610  21.2637635  41.5007626  26.0226123  16.7976772
  41.3847152  26.7733809  17.2268910  42.2963512  25.7650077  17.0472859
  41.6012215  26.0960970  16.8980863  32.6817372  37.0008171  22.7126252
  33.3254827  37.4421335  23.1022411  33.0073627  36.1961598  22.6256511
  32.8249200  36.9473366  22.7571730  33.3837951  30.0120146  18.0846114
  33.7053792  30.5525354  17.4807422  34.0310048  29.4416918  18.2168404
  33.5264006  30.0079321  18.0153149  28.0640897  23.8188881  26.0791607
  27.9399594  24.4051327  26.7141426  28.7159181  23.3249077  26.3803882
  28.1414546  23.8327686  26.2177536  33.0899238  26.9950598  25.3579118
  33.7348240  26.5023041  25.0390066  33.3301015  27.1375385  26.1845196
  33.2209823  26.9428040  25.4328651  35.6285329  29.8405504  25.0086010
  35.9108572  29.0456910  24.7872766  36.3571490  30.3186091  25.0291071
  35.7774893  29.7940101  24.9789025  45.6103417  28.9464866  21.9821841
  44.7801121  29.1575510  22.1455258  45.5612670  28.1201921  21.7064125
  45.4810153  28.8554472  21.9659207  27.5999001  32.9836540  22.2119936
  27.1166579  33.7087029  22.1879520  28.4122319  33.2812670  22.3230094
  27.6489749  33.1338893  22.2247215  33.6713155  31.7768720  24.8169751
  33.1540097  31.4176135  24.2131059  34.3687546  31.2530895  24.8275817
  33.6978736  31.6466408  24.7300009  37.3276747  32.2263534  30.7785924
  37.4160093  32.0389675  31.6264134  37.7566460  31.5800964  30.3790770
  37.4038849  32.1026542  30.8457675  34.8947207  31.5094694  29.7603586
  34.3318042  31.0967304  30.2843247  35.6568230  31.4347600  30.1796729
  34.9241655  31.4372095  29.8996586  30.4543198  33.4992716  22.3640216
  31.1563778  32.9844705  22.4212973  30.3740681  33.8266867  23.1687091
  30.5466959  33.4706942  22.4913008  45.1057376  21.5935267  25.7772262
  44.2685797  21.6637454  26.0119857  45.0745607  21.5959762  24.9046565
  44.9775658  21.6045494  25.6831810  31.5022105  23.7368302  31.4920631
  31.6742609  23.6274197  32.3405912  32.0391462  24.3822708  31.2551823
  31.6067109  23.8160304  31.5825728  29.7793974  29.6899068  21.8725824
  30.6182873  29.9222000  21.9199586  29.8105743  28.8203379  21.8032859
  29.9075691  29.5956014  21.8690469  30.4046677  30.1099943  26.1739130
  30.9444902  29.9671074  26.8442502  29.7216623  30.5096694  26.5423156
  30.3838831  30.1479614  26.3273551  39.8287562  25.7890943  21.3684154
  40.5845077  26.2222458  21.4073063  39.9349886  25.1395713  21.9418790
  39.9557732  25.7568427  21.4582180  42.8667733  29.6164221  22.1186557
  42.4302965  29.6200963  22.8745528  42.5330648  30.2969720  21.6866134
  42.7530353  29.7176676  22.1667389  37.4396806  31.6572553  33.4429707
  38.2237223  31.7703401  33.8085449  37.2393401  30.8313691  33.6388393
  37.5262832  31.5519273  33.5264093  25.8083822  26.3300234  26.3273551
  25.5422237  25.5139350  26.4864541  25.8222386  26.3753389  25.4569067
  25.7708544  26.2157138  26.2227033  42.7865216  16.6578048  24.3615985
  43.4291124  16.7276153  24.9477900  43.0388236  15.9907271  23.8595527
  42.9187348  16.5704397  24.3743264  30.5582428  19.8678612  28.9740559
  29.8654225  19.3975592  29.2201290  31.1742755  19.6416916  29.5482266
  30.5466958  19.7645744  29.0949711  37.5967200  33.5682655  27.0896163
  36.7982445  33.3282156  27.3470031  38.0453211  33.6197048  27.8363210
  37.5441811  33.5405047  27.2381087  46.0012079  26.3345140  21.0106194
  46.6628513  25.7735809  20.9102103  45.3603491  25.8397171  21.3358885
  46.0040946  26.1781550  21.0438534  26.2177235  27.1159013  23.6085295
  26.0352809  27.0905899  22.7557588  26.9526904  27.5857951  23.6474204
  26.2991299  27.1820375  23.4883214  42.2876910  27.3510523  20.7518183
  42.5232499  27.4955722  19.9245034  42.4366473  28.1152931  21.1449697
  42.3442713  27.4849577  20.6881787  29.2822987  23.8344016  30.1167404
  30.0062959  23.8197046  30.6032299  29.3839124  24.5439371  29.6189372
  29.4041196  23.9368719  30.1146191  44.1167366  26.1912189  18.5887787
  44.4475583  26.7239829  17.9827882  44.6900454  26.2451077  19.2449738
  44.2501045  26.2781758  18.5965568  36.6567936  27.3143100  34.9816351
  35.8640917  27.6286612  35.1668971  36.7716864  27.5294569  34.1437136
  36.5563347  27.3926937  34.8854686  39.3299255  24.0377092  19.2711367
  39.4246110  24.7766386  19.7250992  38.7058099  23.6094567  19.7045931
  39.2508286  24.0838412  19.4019514  37.5851729  27.2163304  29.9201648
  38.1590591  26.5790548  30.0750212  37.5066533  27.2167387  29.0511305
  37.6584964  27.1228416  29.8148059  32.9415448  25.6486569  21.9722845
  32.6834692  24.8158304  21.9454145  32.9963931  25.8744182  21.1315346
  32.9115226  25.5584341  21.8442982  35.5823449  21.6747681  27.3180118
  35.1937881  21.2501899  26.6632310  34.9178147  21.9229831  27.8257145
  35.4270376  21.6486402  27.2967986  45.2246718  21.4322686  20.0927948
  44.9683283  20.6202627  19.9025831  46.0676032  21.4400253  19.8658136
  45.3112743  21.3134683  20.0312765  39.4049810  15.3722310  24.8304103
  39.7860322  14.6900481  25.2171977  38.6013095  15.0831912  24.6479767
  39.3426272  15.2289358  24.8608158  42.9071877  28.5872282  29.9286501
  42.6710515  27.7560347  29.8098562  43.5515106  28.5357889  30.5141345
  42.9666548  28.4569970  29.9972395  32.5570295  29.3767803  20.6429237
  33.1944242  29.1379551  21.1881031  32.9825367  29.5804962  19.9082398
  32.7146461  29.3718813  20.6146395  27.2482938  31.6156140  24.5263541
  27.2887083  31.8870991  23.6983321  27.8077462  32.1398048  24.9421329
  27.3366284  31.7331895  24.4655429  33.3641651  17.8776508  34.6966711
  33.0495092  18.6476071  34.4336274  33.0431583  17.3146764  34.1118938
  33.2700570  17.9086777  34.5708061  43.9308298  28.3716731  25.9914795
  43.6254115  29.1044787  26.3528111  43.2114513  27.9654660  25.7107581
  43.7795640  28.4198463  26.0027933  34.9391767  29.8540226  22.3223024
  35.0130775  29.6915398  23.1764874  35.7561274  30.0430415  22.0783505
  35.0708126  29.8576968  22.4121049  49.6310090  25.0109731  25.3183140
  49.5634590  25.0305690  24.4485726  49.6165752  25.8540058  25.5438810
  49.6188846  25.1383466  25.2235617  40.0406436  16.4144889  28.6424229
  40.7860028  16.2254699  28.2287655  39.6243741  16.9403127  28.0838085
  40.0891411  16.4647034  28.4988802  33.4796353  32.8174969  17.0536497
  33.7694651  32.4263950  16.3295724  34.2099834  32.9991674  17.4941772
  33.6303237  32.7868783  17.0119304  47.4168707  23.7854117  23.5929734
  47.9676629  23.1522186  23.8326826  47.4012823  24.3169510  24.2845238
  47.4953904  23.7703066  23.7308592  34.0691098  27.6192715  28.1389628
  33.5702792  28.3308482  28.2174516  34.8791322  27.9393381  28.1007790
  34.1147205  27.7719563  28.1446196  31.4202268  34.7942351  20.1196647
  31.2002564  34.5039706  20.9123314  31.1996791  34.1357306  19.5914559
  31.3549863  34.6542060  20.1585555  30.3319216  26.8815668  22.3852348
  30.0432464  26.2553139  22.9198076  31.2002564  26.8235955  22.4517029
  30.4179468  26.7803212  22.4743303  41.1197113  22.0250451  22.7034330
  40.7761879  21.3040786  23.0541580  41.2190156  21.8164302  21.8612689
  41.0839156  21.8874654  22.6306010  33.5870224  36.1671741  18.9027339
  34.2394282  35.6348183  19.1318365  32.8895833  35.8140393  19.2895213
  33.5800942  36.0361264  18.9939507  41.5810143  28.4876155  18.2458318
  42.1468175  29.1469365  18.1616861  40.9338046  28.8325853  18.7174721
  41.5688899  28.6358096  18.3031075  32.9958156  20.4773759  33.4351926
  32.1857932  20.7831539  33.3241768  33.4732843  21.1979341  33.5504510
  32.9461635  20.6288360  33.4358997  31.8549716  29.6919480  23.6834829
  31.3330469  29.8319772  24.3686694  32.2423736  28.9330144  23.8736946
  31.8353417  29.6005004  23.8135905  38.0516721  31.4314939  17.6695398
  37.8103397  30.6982800  17.2622463  38.2318054  31.9801796  17.0161731
  38.0424345  31.4037330  17.5125621  39.6388079  19.9442036  24.5793873
  38.7999179  19.9703315  24.3432136  39.7092446  20.5912771  25.1599220
  39.5256472  20.0438162  24.6302990  29.3302188  26.0136309  28.3051328
  29.8423285  26.2920563  27.6560088  29.0438531  26.7525603  28.6714141
  29.3637051  26.1638663  28.2641206  43.5145603  25.1510023  21.8655115
  43.4279577  25.3065449  22.7189894  43.0596083  25.7948098  21.4914520
  43.4348859  25.2685778  21.9362222  32.8485913  18.1062698  28.3652370
  32.6569110  18.1217832  29.2151793  33.6984509  18.3026372  28.3419025
  32.9461635  18.1377049  28.4875664  27.2332826  20.6353679  26.3436186
  27.0918318  19.7837620  26.4680694  27.5173390  20.6782340  25.5198392
  27.2540672  20.5153430  26.2403810  41.2819468  29.1804129  24.2767456
  41.1433827  29.8785175  24.7816198  40.5019465  29.0252786  23.9203637
  41.1462694  29.2604296  24.2993730  39.6197553  25.4800504  30.5289837
  39.6145591  24.6080321  30.5332264  40.3258547  25.6788674  30.0559293
  39.7242557  25.3804379  30.4596873  33.3468446  25.2077488  29.9003658
  33.4911822  25.7878696  29.2646768  33.6944095  25.5853785  30.6053512
  33.4195907  25.3498192  29.9102652  35.5188363  24.4067657  27.6828789
  34.7711677  24.5998671  27.2777067  35.6729889  23.5812876  27.4452910
  35.4310791  24.3132768  27.5874195  32.4196201  33.3980260  26.7664684
  32.5685765  32.8383176  26.1138089  33.1996203  33.4772262  27.1497203
  32.5570295  33.3265826  26.7261634  34.9449502  33.5694903  28.0449175
  34.8693173  32.9003714  28.5999963  34.8739361  34.2712691  28.5589841
  34.9230109  33.5739810  28.2026023  35.7590140  18.3018207  28.5724193
  36.2162755  19.0342182  28.6996985  35.8346469  17.8784673  29.3311449
  35.8381110  18.3475445  28.7025269  28.0023132  18.5484027  29.6613637
  27.4665321  17.9364385  29.9774404  28.0640896  19.1232163  30.3147303
  27.9318764  18.5430955  29.8049063  35.6019749  32.0895902  18.8772781
  36.3669640  31.8205546  18.5555445  35.4997839  31.6045912  19.5942844
  35.7001244  31.9785467  18.9352609  33.6372518  20.2920311  25.4166017
  32.8468593  20.1111771  25.7383353  34.0333141  19.5147264  25.3996311
  33.5789395  20.1507772  25.4618565  39.0216205  27.9262741  23.1425463
  38.3461206  27.6947974  23.6438850  39.0308581  27.3183924  22.5167568
  38.9234709  27.8021667  23.1241615  36.1510349  22.7680570  29.8989516
  36.0869490  23.6290527  29.7709652  36.2907536  22.4512564  29.0985067
  36.1625819  22.8480737  29.7617729  41.0232939  30.7827874  15.3735641
  41.1052777  31.5894860  15.0497092  41.5082681  30.8023833  16.0976414
  41.1070097  30.9048536  15.4322539  34.8329443  25.4612710  24.0405719
  34.4091692  25.6617209  23.3044737  34.6574298  24.6141558  24.1530019
  34.7440323  25.3661491  23.9479409  34.3341136  36.9763223  26.5027176
  34.8237066  36.2774012  26.3202841  33.7625368  36.6787093  27.0903233
  34.3225666  36.8289446  26.5628217  40.5308140  29.5425292  35.4553967
  41.3443005  29.2710441  35.6159099  40.3703106  29.2432832  34.6514163
  40.6278088  29.4580218  35.3599373  37.8080301  20.2258949  28.3949355
  38.0222271  19.5869863  27.8412709  37.1914201  20.6704773  27.9657217
  37.7485631  20.1969093  28.2499786  39.2184969  33.1477698  19.8403576
  38.8264761  32.8444413  19.1226442  39.3738042  33.9846788  19.6508530
  39.1838559  33.2261534  19.7060073  39.9719389  21.8348014  29.3332662
  39.1596071  21.5273905  29.4145835  40.4309324  21.3547015  29.8975374
  39.9199774  21.7184507  29.4287256  39.3824644  29.7127686  19.7809606
  39.0239299  29.8842329  20.5573639  38.8963355  30.1740892  19.2237605
  39.2583341  29.8066658  19.8134875  37.0672897  23.2408086  34.1161364
  37.5372528  23.8650202  34.5029238  37.1134777  22.5725061  34.6754579
  37.1440773  23.2342766  34.2561436  36.2936404  15.8858073  26.6703021
  35.9068157  15.9107105  27.4516551  35.8069341  15.3199752  26.2177537
  36.1648913  15.8053824  26.7190924  40.5429384  30.6031582  30.7276807
  41.1809104  30.1091778  30.3939263  39.9003475  30.5308983  30.1429034
  40.5423610  30.5190591  30.5919162  42.2686384  22.4520728  25.2942723
  41.8413992  22.3647077  24.5390822  41.6312437  22.5598504  25.8797567
  42.1115991  22.4553388  25.2688164  35.9593546  12.7725059  28.9613281
  36.5886664  13.3085359  28.6834351  36.1279409  12.6802418  29.8126846
  36.0771340  12.8386421  29.0461809  35.7607461  17.5596254  31.2339692
  36.5880890  17.2881402  31.2898307  35.7815307  18.3557095  31.5903510
  35.8860311  17.6376008  31.2954875  40.5983640  31.2951391  27.3682164
  41.3876018  30.9440455  27.4884246  40.7727238  32.1087779  27.1058798
  40.7403922  31.3637248  27.3470032  30.3376951  24.7060116  24.4209953
  29.4964957  24.6063991  24.6288847  30.5466958  25.4755597  24.7724273
  30.2441643  24.8052160  24.5037268  34.1493615  22.6341516  23.6707550
  33.8456753  22.0797504  24.2717958  33.4473036  22.8133726  23.1835585
  34.0009825  22.5786298  23.6877256  32.2111966  29.8491236  28.3779648
  32.1032321  29.8593298  29.2441706  32.4207748  30.6746017  28.1884602
  32.2262077  29.9732311  28.4783740  30.2285758  27.1003879  25.8401586
  29.6373692  27.7413377  25.8104601  30.9906782  27.5241496  25.8132885
  30.2534019  27.2579717  25.8316733  30.6246381  18.2605876  26.5069603
  31.0847863  18.3344806  27.2444727  30.6702488  19.0587131  26.1569425
  30.6996937  18.3900024  26.5642360  32.2729731  18.9272571  31.0741630
  31.8815296  18.2805918  31.5097408  32.4415594  19.5184007  31.6935886
  32.2400641  18.9186839  31.2304336  46.3476180  26.9309648  26.8378864
  46.4059304  27.3796297  27.5838840  45.7142648  27.3408461  26.4008944
  46.2627475  27.0583383  26.8831412  39.9875275  32.5513190  23.2733610
  39.7894963  33.0404005  22.5789821  39.3662986  32.7554432  23.8517744
  39.8662839  32.6529729  23.2556833  37.0361129  19.8923560  23.5137774
  36.5621083  19.3665322  24.0243085  37.4079265  19.3453033  22.9452635
  37.0211018  19.7339557  23.5052921  27.4134159  21.8895067  28.8821320
  28.2759772  21.7890776  28.7958649  27.0825942  21.3089776  28.3206892
  27.4919355  21.7886694  28.7866725  43.2997859  24.9525936  24.9244554
  43.0596082  24.1132351  24.9286981  43.7789867  25.0326103  25.6485328
  43.3350043  24.8407336  25.0319357  45.3003046  21.7327393  22.8773813
  45.0612816  21.6923227  22.0394598  45.4636948  22.5798545  23.0039534
  45.2893350  21.8519478  22.7727295  41.9049077  26.1177343  28.8078859
  42.6283275  25.6649869  28.6289878  41.6399039  26.3982008  28.0251186
  41.9730350  26.0928311  28.6657574  30.7735945  20.7137516  25.5431738
  30.1489015  20.7255908  24.9357690  30.4381540  21.1897691  26.1922978
  30.6321437  20.7856033  25.5488306  27.4861620  28.7737976  26.9835502
  26.9561545  28.0830415  27.0330477  27.7586714  28.7648162  26.1548211
  27.4486343  28.6705108  26.8682918  37.6867866  26.2161221  26.9573874
  37.0724859  25.6719271  27.2522509  38.2035151  25.7025457  26.4779690
  37.6723528  26.0597630  26.9298102  36.9264163  27.2865491  24.6918172
  36.4991771  26.6615210  24.2583608  36.9189108  27.0040413  25.5177179
  36.8623304  27.1518272  24.7498000  30.0426690  22.3230664  27.7606606
  30.2020177  21.5673988  28.1658328  29.8619584  22.8721603  28.4147344
  30.0392049  22.2924478  27.9169312  37.9846993  14.4891899  28.3157396
  37.4887555  14.6855574  27.6248962  38.7416055  14.8884568  28.1446197
  38.0233818  14.5769633  28.1877532  35.2549873  18.1634245  24.9060706
  35.2792360  17.6294358  24.2173486  35.5061347  17.6551554  25.5686297
  35.2959792  18.0095149  24.9025351  33.7180808  26.4565804  32.3886745
  32.8676439  26.5937518  32.5244390  33.8808936  25.7229582  32.8334447
  33.6164672  26.3679905  32.4742344  32.9565559  23.4065573  26.5840350
  32.1257488  23.5739391  26.3775598  32.9017076  23.0301524  27.3689235
  32.8254973  23.3755305  26.6688878  30.7649342  16.8974466  32.2196760
  31.3902045  16.3536599  32.4926193  30.3099822  16.4169384  31.6504551
  30.7897602  16.7463948  32.1758354  44.3384391  25.0803753  27.3109408
  44.9302231  25.7201004  27.3427606  44.7743385  24.3826790  27.6001475
  44.4902822  25.0722104  27.3590241  36.1677780  29.5021126  27.9367302
  35.6602871  30.0556973  28.3807933  35.8704427  29.5629416  27.1186077
  36.0482665  29.5927437  27.8815759  38.3339963  17.8674445  26.7791965
  38.7595034  17.4146972  26.1675492  37.7196956  17.3134516  27.0556753
  38.3068608  17.7188422  26.7296990  38.7785561  33.4184384  15.8671246
  38.0614870  33.2445246  15.4018483  39.4292298  33.1836956  15.3346732
  38.7687411  33.3580176  15.7200464  41.3633532  22.2948972  19.6112551
  40.6924722  22.8378674  19.4825616  42.0573282  22.7643827  19.3694246
  41.3662399  22.4447243  19.5568079  35.4120266  34.4345684  24.8424309
  35.1885920  33.6764513  25.2108335  34.9230109  34.4643705  24.1204749
  35.3063715  34.3267909  24.7901050  41.5261659  18.7504856  22.5202924
  41.8789269  18.3234579  23.1948723  40.6676461  18.6655699  22.6504000
  41.4511104  18.6749596  22.6397934  39.5244925  22.0140224  26.4687766
  39.5042852  21.8323519  27.3222545  39.5724126  22.8852243  26.4447350
  39.5279566  22.1156763  26.5911061  37.4691255  28.6027416  32.3936243
  37.4287110  27.9577093  31.8081399  38.2814573  28.5464034  32.7061655
  37.5834409  28.4986383  32.3533192  34.0598723  34.6546142  22.2961394
  33.6459121  33.9920272  21.9065235  34.7446097  34.8024001  21.7757088
  34.0997094  34.5786800  22.1617891  37.4264017  33.8136227  23.0485010
  37.0280300  33.9238498  22.2805831  36.8115236  34.0218294  23.6311570
  37.2762906  33.8609795  23.0216310  33.1568964  22.2324353  28.9486000
  32.6447867  21.6245536  29.3071032  32.9848460  22.9480945  29.4159976
  33.0558601  22.2487652  29.0702224  28.0034678  20.6761928  31.5988362
  27.8337269  21.3363303  31.0536569  27.5600628  20.8868489  32.3200851
  27.9134012  20.8047910  31.6249992  45.1605859  28.3888194  16.4328101
  45.5439465  29.1379550  16.6626198  44.3649973  28.6354014  16.1740090
  45.0999642  28.5357888  16.4285674  37.0338034  20.1548597  31.3888256
  37.5909464  19.9262407  30.7566721  36.7099099  20.9154263  31.1123468
  37.0684444  20.2332434  31.2544753  24.9036743  23.5808794  26.8576852
  24.3563462  22.9109439  26.9757720  25.6929121  23.2138642  26.9220319
  24.9388927  23.4273780  26.8845553  34.7521151  23.2416251  32.3540263
  35.5032478  23.5567928  32.6679817  34.9443728  23.0395422  31.5274185
  34.8912566  23.2583633  32.2783659  39.3247294  24.0487319  23.2500265
  39.8200959  23.3310314  23.2104286  38.5147069  23.7458117  23.1354752
  39.2791187  23.8984965  23.2273991  41.3899112  26.7991006  25.9377394
  41.8154184  26.2765428  25.3847819  41.0256032  27.3971844  25.4166017
  41.3985715  26.8101233  25.7786404  31.0253192  35.0955224  24.6974740
  31.3399751  35.9091612  24.7052521  31.4346606  34.7105443  25.3656899
  31.1321290  35.1583926  24.7978831  37.9777712  30.5125271  22.2678552
  38.4488890  31.2265533  22.4368537  38.3137890  29.9124021  22.8038421
  38.0972827  30.5296735  22.3710928  40.0654696  32.1226584  34.4470624
  40.1751662  31.3335145  34.8027371  40.3945593  32.0332520  33.6444962
  40.1307102  31.9932437  34.3813014  34.8947207  15.2852741  29.2236646
  35.0275112  14.4883735  29.5517622  35.2792360  15.8119144  29.8034922
  34.9703536  15.2452658  29.3580149  38.6151658  30.3043205  29.0306244
  38.0672604  29.6801088  28.7626310  39.0764687  30.4937477  28.3150324
  38.6018868  30.2402255  28.8856675  41.4245523  18.3728559  26.4157437
  40.8408511  18.8737766  26.0035004  41.7449817  17.8658115  25.7821760
  41.3858698  18.3720394  26.2615944  32.5535654  15.2811916  27.4714540
  33.0980067  14.9403043  28.0618882  32.6072589  16.1397378  27.6135825
  32.6424773  15.3567176  27.5796414  28.3666212  29.0428332  24.3453348
  28.9711070  29.0024166  23.7167169  28.1593525  29.8899484  24.3757404
  28.4255110  29.1616335  24.2569465  38.1809984  31.3094277  25.5615585
  39.0008358  31.1657244  25.8231881  37.9004062  31.9340476  26.1032023
  38.2606728  31.3804629  25.6803525  23.6017495  28.0262950  24.2152271
  23.5041773  27.2159221  24.5242328  24.3846364  28.0054743  23.8298539
  23.7033631  27.9030040  24.2039134  54.6523635  38.9659129  18.5258462
  54.6217639  39.8203766  18.6976731  55.2504984  38.6654422  19.0844605
  54.7360793  39.0475626  18.6333264  47.8523320  38.0534780  23.2811392
  46.9961215  38.2143278  23.3320509  47.8990973  37.1826844  23.3016453
  47.7322431  37.9485582  23.2917458  42.2364459  47.5897498  19.0448624
  41.4847359  47.2113036  18.8164669  42.6850471  47.6215932  18.2967434
  42.1914126  47.5383105  18.9006126  51.1617036  44.3221306  32.8871848
  51.8683804  43.8273337  33.0158783  51.3504972  44.7630387  32.1574506
  51.2944942  44.3139656  32.7980894  47.6889419  48.0122868  14.4734171
  47.3540788  48.6899789  14.0378393  48.2016290  47.6228179  13.8851043
  47.7155000  48.0547446  14.3220962  47.2293711  49.9637136  20.4145282
  47.6133090  50.5324035  19.8750058  47.1652852  49.2386647  19.9351099
  47.2767138  49.9412600  20.2639145  50.6975141  40.1126824  25.9243044
  51.2431101  40.7911911  25.9837014  50.6392017  39.9714285  25.0644625
  50.7691055  40.1918826  25.8055104  43.8149216  47.6015890  21.3111396
  43.9159579  46.7916244  21.6208524  43.2190961  47.5072837  20.6811075
  43.7421754  47.4680918  21.2637635  52.4740209  41.5411431  16.7976772
  52.3579735  42.2919117  17.2268910  53.2696096  41.2835384  17.0472859
  52.5744799  41.6146278  16.8980863  43.6549955  52.5193479  22.7126252
  44.2987411  52.9606643  23.1022411  43.9806211  51.7146906  22.6256511
  43.7981784  52.4658674  22.7571730  37.0114260  43.6236177  20.9363730
  36.7764444  42.7903829  20.8295999  37.1499901  43.9040842  20.1224931
  36.9969922  43.5419680  20.8006085  39.3104347  35.7921907  23.8348038
  38.6909379  35.2014555  23.6658052  39.2088211  36.3833343  23.2012361
  39.2042023  35.7925990  23.7153027  44.3570535  45.5305454  18.0846114
  44.6786376  46.0710662  17.4807422  45.0042631  44.9602226  18.2168404
  44.4996590  45.5264629  18.0153149  46.4072243  37.5321449  18.1680501
  47.1052408  37.7109577  18.6601964  46.7224575  37.0091789  17.5450890
  46.5567580  37.4815221  18.1482511  39.0373480  39.3374189  26.0791607
  38.9132177  39.9236635  26.7141426  39.6891765  38.8434385  26.3803882
  39.1147130  39.3512994  26.2177536  46.5960178  43.9191894  18.1560292
  47.0353814  43.3108995  18.6015065  46.4464841  43.5399268  17.3845757
  46.6381644  43.7730365  18.1079460  44.0631821  42.5135906  25.3579118
  44.7080824  42.0208349  25.0390066  44.3033598  42.6560693  26.1845196
  44.1942406  42.4613348  25.4328651  46.6017913  45.3590812  25.0086010
  46.8841156  44.5642218  24.7872766  47.3304073  45.8371399  25.0291071
  46.7507476  45.3125409  24.9789025  44.5799107  32.9013846  22.2501775
  44.2502437  33.3524989  21.5805474  43.9044108  32.8230009  22.7974782
  44.4309543  32.9564981  22.2324999  50.1969515  42.2719075  15.1091061
  50.1120810  43.1280042  15.2540630  50.6853898  41.9963400  15.7773221
  50.2558412  42.3576397  15.2293143  51.7875514  28.8899369  20.4951386
  51.4728955  29.5802847  20.9271808  51.2702456  28.8344151  19.7936887
  51.6639985  28.9834257  20.4548335  51.1287948  38.8903870  16.6088797
  50.5999420  39.1063503  17.2686103  51.6512968  39.5840008  16.5289766
  51.1276401  39.0247007  16.6944396  56.5836001  44.4650174  21.9821841
  55.7533704  44.6760818  22.1455258  56.5345253  43.6387229  21.7064125
  56.4542736  44.3739780  21.9659207  43.0187556  42.7867086  15.4096265
  42.4344771  43.2917118  15.8162129  42.6157651  42.5609473  14.6692857
  42.8726860  42.8275335  15.3601290  38.5731585  48.5021848  22.2119936
  38.0899163  49.2272337  22.1879520  39.3854903  48.7997978  22.3230094
  38.6222332  48.6524201  22.2247215  44.6445739  47.2954028  24.8169751
  44.1272680  46.9361443  24.2131059  45.3420130  46.7716203  24.8275817
  44.6711320  47.1651716  24.7300009  48.3009331  47.7448842  30.7785924
  48.3892676  47.5574983  31.6264134  48.7299043  47.0986272  30.3790770
  48.3771433  47.6211850  30.8457675  45.8679790  47.0280002  29.7603586
  45.3050625  46.6152612  30.2843247  46.6300814  46.9532908  30.1796729
  45.8974239  46.9557403  29.8996586  47.4764770  39.0332739  13.8865185
  47.7160774  39.2410722  13.0740528  47.7980611  38.2290247  13.9954130
  47.5601928  38.9446840  13.7825738  42.7855061  30.9626134  17.7324723
  43.5401029  31.3304451  17.4941773  42.6082595  31.3365689  18.5003903
  42.8709539  31.0724322  17.8109612  41.4275782  49.0178023  22.3640216
  42.1296361  48.5030013  22.4212973  41.3473265  49.3452175  23.1687091
  41.5199542  48.9892250  22.4913008  56.0789959  37.1120575  25.7772262
  55.2418380  37.1822762  26.0119857  56.0478190  37.1145070  24.9046565
  55.9508242  37.1230802  25.6831810  42.4754688  39.2553610  31.4920631
  42.6475192  39.1459505  32.3405912  43.0124046  39.9008016  31.2551823
  42.5799692  39.3345612  31.5825728  41.1412125  33.3696453  14.4302836
  40.9587698  33.5868334  13.6043829  42.0037738  33.4835466  14.4861451
  41.2416715  33.4186351  14.3157323  40.7526557  45.2084375  21.8725824
  41.5915457  45.4407308  21.9199586  40.7838326  44.3388687  21.8032859
  40.8808275  45.1141322  21.8690469  41.3779260  45.6285251  26.1739130
  41.9177485  45.4856382  26.8442502  40.6949207  46.0282001  26.5423156
  41.3571414  45.6664922  26.3273551  46.8211844  30.3722864  17.4651860
  47.5498005  30.1938819  17.0190016  46.9106737  31.2140944  17.6759038
  46.9418507  30.4706742  17.4305378  50.8020145  41.3076251  21.3684154
  51.5577660  41.7407766  21.4073063  50.9082470  40.6581021  21.9418790
  50.9290316  41.2753735  21.4582180  53.8400316  45.1349529  22.1186557
  53.4035548  45.1386271  22.8745528  53.5063232  45.8155028  21.6866134
  53.7262936  45.2361984  22.1667389  48.4129390  47.1757861  33.4429707
  49.1969806  47.2888709  33.8085449  48.2125984  46.3498998  33.6388393
  48.4995415  47.0704581  33.5264093  36.7816405  41.8485541  26.3273551
  36.5154821  41.0324658  26.4864541  36.7954969  41.8938697  25.4569067
  36.7441128  41.7342446  26.2227033  53.7597799  32.1763356  24.3615985
  54.4023708  32.2461461  24.9477900  54.0120820  31.5092579  23.8595527
  53.8919931  32.0889705  24.3743264  40.6874152  36.6470626  12.9425309
  39.9732329  36.3608805  13.3547742  41.1718121  36.9867252  13.5831697
  40.6533516  36.6552276  13.0980944  41.5315012  35.3863920  28.9740559
  40.8386808  34.9160899  29.2201290  42.1475339  35.1602224  29.5482266
  41.5199542  35.2831052  29.0949711  48.5699783  49.0867963  27.0896163
  47.7715029  48.8467463  27.3470031  49.0185795  49.1382356  27.8363210
  48.5174394  49.0590355  27.2381087  56.9744662  41.8530448  21.0106194
  57.6361097  41.2921117  20.9102103  56.3336074  41.3582479  21.3358885
  56.9773530  41.6966857  21.0438534  47.8621470  45.1500580  13.3187117
  48.2772619  44.8185604  12.6271613  47.0313400  44.9169482  13.1907254
  47.8009479  45.0671836  13.1977965  37.1909819  42.6344321  23.6085295
  37.0085392  42.6091207  22.7557588  37.9259488  43.1043259  23.6474204
  37.2723883  42.7005683  23.4883214  53.2609493  42.8695831  20.7518183
  53.4965082  43.0141030  19.9245034  53.4099057  43.6338239  21.1449697
  53.3175296  43.0034885  20.6881787  40.2555571  39.3529324  30.1167404
  40.9795543  39.3382354  30.6032299  40.3571707  40.0624679  29.6189372
  40.3773780  39.4554027  30.1146191  55.0899950  41.7097497  18.5887787
  55.4208167  42.2425137  17.9827882  55.6633038  41.7636385  19.2449738
  55.2233629  41.7967066  18.5965568  47.6300520  42.8328408  34.9816351
  46.8373501  43.1471920  35.1668971  47.7449447  43.0479877  34.1437136
  47.5295931  42.9112245  34.8854686  50.3031839  39.5562399  19.2711367
  50.3978693  40.2951694  19.7250992  49.6790683  39.1279875  19.7045931
  50.2240869  39.6023720  19.4019514  48.5584313  42.7348612  29.9201648
  49.1323175  42.0975856  30.0750212  48.4799117  42.7352695  29.0511305
  48.6317548  42.6413723  29.8148059  37.1580729  39.5137822  23.7584362
  37.7354232  39.3774272  24.3976607  36.4594791  39.0573606  24.0129946
  37.1401751  39.4260088  23.8906652  50.5554860  41.4011139  12.5048319
  50.4735023  41.4713326  13.3703306  51.1934581  41.9640883  12.3132059
  50.6374698  41.4950110  12.6038268  43.9148031  41.1671877  21.9722845
  43.6567276  40.3343612  21.9454145  43.9696514  41.3929490  21.1315346
  43.8847809  41.0769648  21.8442982  48.9949082  33.2700328  22.0726938
  48.2905408  32.7809513  22.2310857  49.0434056  33.2822802  21.2015382
  48.8979133  33.1989976  21.9666278  42.8882744  38.7209640  22.4587740
  42.3132335  38.8801808  23.0951701  42.5118420  38.0845049  21.9956190
  42.7485556  38.6507453  22.4842298  46.5556032  37.1932989  27.3180118
  46.1670465  36.7687207  26.6632310  45.8910731  37.4415139  27.8257145
  46.4002960  37.1671710  27.2967986  56.1979301  36.9507994  20.0927948
  55.9415866  36.1387935  19.9025831  57.0408615  36.9585561  19.8658136
  56.2845327  36.8319991  20.0312765  32.6339563  38.3649714  20.4732181
  32.7199814  37.9881583  21.2545710  33.2615360  37.9910160  19.9952139
  32.7396114  38.2535197  20.5177658  50.3782394  30.8907618  24.8304103
  50.7592906  30.2085789  25.2171977  49.5745678  30.6017220  24.6479767
  50.3158856  30.7474666  24.8608158  47.6594971  41.4231594  15.5156925
  48.4735609  41.7146486  15.4039697  47.5954112  40.7691456  14.9415218
  47.7697710  41.3696788  15.4145763  53.8804461  44.1057590  29.9286501
  53.6443098  43.2745654  29.8098562  54.5247690  44.0543197  30.5141345
  53.9399131  43.9755278  29.9972395  43.5302879  44.8953111  20.6429237
  44.1676826  44.6564859  21.1881031  43.9557950  45.0990270  19.9082398
  43.6879045  44.8904121  20.6146395  38.2215521  47.1341448  24.5263541
  38.2619666  47.4056299  23.6983321  38.7810045  47.6583356  24.9421329
  38.3098867  47.2517203  24.4655429  44.1705694  40.1155401  14.9804127
  44.5550847  39.8963107  15.7320672  43.9217314  40.9418346  15.1105203
  44.1907766  40.2053547  15.1105203  44.3374234  33.3961816  34.6966711
  44.0227675  34.1661379  34.4336274  44.0164167  32.8332072  34.1118938
  44.2433153  33.4272085  34.5708061  54.9040881  43.8902038  25.9914795
  54.5986698  44.6230095  26.3528111  54.1847097  43.4839968  25.7107581
  54.7528224  43.9383771  26.0027933  45.9124351  45.3725534  22.3223024
  45.9863359  45.2100705  23.1764874  46.7293857  45.5615723  22.0783505
  46.0440709  45.3762276  22.4121049  60.6042673  40.5295039  25.3183140
  60.5367174  40.5490998  24.4485726  60.5898336  41.3725366  25.5438810
  60.5921430  40.6568774  25.2235617  39.6730107  45.7183396  19.3517467
  38.8468225  45.9645134  19.2251746  39.7342099  45.6395477  20.2179525
  39.5604274  45.7428345  19.4606412  41.8906131  31.7852337  20.3112907
  41.0228557  31.8574937  20.3770517  42.1781336  32.5874416  20.5000882
  41.8045879  31.9146485  20.3487674  51.0139020  31.9330197  28.6424229
  51.7592612  31.7440007  28.2287655  50.5976325  32.4588435  28.0838085
  51.0623994  31.9832342  28.4988802  44.4528936  48.3360277  17.0536497
  44.7427235  47.9449258  16.3295724  45.1832417  48.5176982  17.4941772
  44.6035821  48.3054090  17.0119304  58.3901291  39.3039425  23.5929734
  58.9409212  38.6707494  23.8326826  58.3745406  39.8354818  24.2845238
  58.4686487  39.2888373  23.7308592  45.0423682  43.1378023  28.1389628
  44.5435375  43.8493790  28.2174516  45.8523906  43.4578689  28.1007790
  45.0879788  43.2904871  28.1446196  42.3934852  50.3127659  20.1196647
  42.1735147  50.0225014  20.9123314  42.1729374  49.6542614  19.5914559
  42.3282446  50.1727367  20.1585555  41.3051799  42.4000976  22.3852348
  41.0165048  41.7738447  22.9198076  42.1735147  42.3421263  22.4517029
  41.3912051  42.2988520  22.4743303  52.0929697  37.5435759  22.7034330
  51.7494463  36.8226094  23.0541580  52.1922740  37.3349610  21.8612689
  52.0571740  37.4059962  22.6306010  44.5602808  51.6857049  18.9027339
  45.2126866  51.1533491  19.1318365  43.8628416  51.3325701  19.2895213
  44.5533526  51.5546572  18.9939507  41.5084073  44.0396227  18.3094713
  42.2630041  44.4209266  18.5230176  40.9154685  44.4907370  18.7641410
  41.5320786  44.1625054  18.4077592  52.5542726  44.0061463  18.2458318
  53.1200759  44.6654673  18.1616861  51.9070630  44.3511161  18.7174721
  52.5421483  44.1543404  18.3031075  43.9690740  35.9959067  33.4351926
  43.1590515  36.3016847  33.3241768  44.4465426  36.7164649  33.5504510
  43.9194218  36.1473668  33.4358997  42.8282299  45.2104788  23.6834829
  42.3063053  45.3505080  24.3686694  43.2156320  44.4515452  23.8736946
  42.8086000  45.1190312  23.8135905  39.8173483  35.2610597  17.7529784
  39.5298279  34.8911867  17.0161731  40.5043951  35.7305452  17.4913488
  39.8762381  35.2757566  17.6044859  49.0249304  46.9500247  17.6695398
  48.7835980  46.2168108  17.2622463  49.2050637  47.4987104  17.0161731
  49.0156928  46.9222638  17.5125621  44.2548625  42.2408807  19.0816320
  44.0591407  42.8483542  18.4876623  44.4782970  41.5476751  18.6007994
  44.2583266  42.2286333  18.9232401  42.6527155  39.1263545  19.1997188
  43.3749807  39.2904703  18.7400994  42.1735148  39.8473210  19.0936528
  42.6890886  39.2561775  19.1162802  50.6120662  35.4627344  24.5793873
  49.7731763  35.4888623  24.3432136  50.6825030  36.1098079  25.1599220
  50.4989056  35.5623470  24.6302990  40.3034772  41.5321617  28.3051328
  40.8155868  41.8105871  27.6560088  40.0171114  42.2710911  28.6714141
  40.3369635  41.6823971  28.2641206  49.0589941  32.3612721  19.3121489
  49.7616294  32.1620469  18.8341447  48.7934129  31.5888663  19.6190333
  49.1236573  32.2175687  19.2866931  54.4878186  40.6695331  21.8655115
  54.4012161  40.8250757  22.7189894  54.0328666  41.3133406  21.4914520
  54.4081443  40.7871086  21.9362222  37.3901678  36.0391809  18.6015065
  37.4917814  36.8417971  18.9296040  38.1857565  35.8379145  18.3038145
  37.5229583  36.1277708  18.6050420  43.8218497  33.6248006  28.3652370
  43.6301694  33.6403140  29.2151793  44.6717093  33.8211680  28.3419025
  43.9194219  33.6562357  28.4875664  38.2065410  36.1538987  26.3436186
  38.0650902  35.3022928  26.4680694  38.4905973  36.1967648  25.5198392
  38.2273256  36.0338737  26.2403810  48.3604002  37.9906078  20.4880674
  48.1138717  37.9101829  21.3217463  48.6889125  37.2059545  20.2943202
  48.3725246  37.8632343  20.5828198  52.2552051  44.6989437  24.2767456
  52.1166410  45.3970483  24.7816198  51.4752049  44.5438093  23.9203637
  52.1195278  44.7789604  24.2993730  50.5930136  40.9985812  30.5289837
  50.5878175  40.1265629  30.5332264  51.2991130  41.1973981  30.0559293
  50.6975140  40.8989686  30.4596873  44.3201030  40.7262796  29.9003658
  44.4644405  41.3064004  29.2646768  44.6676678  41.1039093  30.6053512
  44.3928491  40.8683500  29.9102652  46.4920947  39.9252965  27.6828789
  45.7444261  40.1183979  27.2777067  46.6462472  39.0998184  27.4452910
  46.4043375  39.8318076  27.5874195  43.3928785  48.9165568  26.7664684
  43.5418348  48.3568484  26.1138089  44.1728787  48.9957570  27.1497203
  43.5302878  48.8451134  26.7261634  53.7505424  44.0567691  15.0383955
  53.3712233  43.2704829  15.0313244  53.0871669  44.6054548  14.8955599
  53.5963899  44.0212515  15.0164752  45.9182085  49.0880211  28.0449175
  45.8425756  48.4189021  28.5999963  45.8471944  49.7897999  28.5589841
  45.8962692  49.0925118  28.2026023  46.7322724  33.8203515  28.5724193
  47.1895338  34.5527490  28.6996985  46.8079053  33.3969981  29.3311449
  46.8113694  33.8660753  28.7025269  38.9755715  34.0669335  29.6613637
  38.4397905  33.4549693  29.9774404  39.0373480  34.6417471  30.3147303
  38.9051348  34.0616263  29.8049063  51.2050050  26.9993391  22.4418036
  51.3233618  27.4569854  21.7085338  51.0312226  26.1938652  22.1554253
  51.1969221  26.9487163  22.2918969  46.5752332  47.6081210  18.8772781
  47.3402223  47.3390854  18.5555445  46.4730422  47.1231220  19.5942844
  46.6733828  47.4970774  18.9352609  44.6105102  35.8105619  25.4166017
  43.8201177  35.6297079  25.7383353  45.0065725  35.0332572  25.3996311
  44.5521978  35.6693080  25.4618565  49.0970993  44.6393394  10.8572730
  49.8643978  44.6993519  10.4478582  48.6502302  44.0673835  10.3729049
  49.1444420  44.5629969  10.7250441  49.9948788  43.4448049  23.1425463
  49.3193790  43.2133282  23.6438850  50.0041164  42.8369232  22.5167568
  49.8967293  43.3206975  23.1241615  47.1242932  38.2865878  29.8989516
  47.0602073  39.1475835  29.7709652  47.2640120  37.9697872  29.0985067
  47.1358402  38.3666045  29.7617729  51.9965523  46.3013182  15.3735641
  52.0785360  47.1080168  15.0497092  52.4815265  46.3209141  16.0976414
  52.0802681  46.4233844  15.4322539  45.8062026  40.9798018  24.0405719
  45.3824275  41.1802517  23.3044737  45.6306881  40.1326866  24.1530019
  45.7172907  40.8846799  23.9479409  45.3073720  52.4948531  26.5027176
  45.7969650  51.7959320  26.3202841  44.7357952  52.1972401  27.0903233
  45.2958249  52.3474754  26.5628217  41.0944471  41.4750069  19.4733691
  41.2509090  41.4096872  20.3289683  41.4345064  42.2498622  19.2612371
  41.1677706  41.5799267  19.5688285  47.6323616  40.8507953  18.3427054
  48.1739161  40.3478334  18.8065675  47.9470175  40.7973147  17.5316540
  47.7588013  40.7687374  18.2910867  51.5040723  45.0610600  35.4553967
  52.3175588  44.7895749  35.6159099  51.3435689  44.7618140  34.6514163
  51.6010672  44.9765526  35.3599373  45.8010065  46.2425304  15.6267082
  45.8702886  45.3839843  15.7660083  46.5798521  46.4597185  15.2986107
  45.9262915  46.1478168  15.5984240  48.7812885  35.7444257  28.3949355
  48.9954855  35.1055171  27.8412709  48.1646784  36.1890081  27.9657217
  48.7218214  35.7154401  28.2499786  50.1917553  48.6663006  19.8403576
  49.7997345  48.3629721  19.1226442  50.3470625  49.5032095  19.6508530
  50.1571143  48.7446842  19.7060073  37.6678733  38.6585020  19.7894458
  38.0477697  39.0769565  19.1254726  37.0934097  39.2398475  20.0963302
  37.6390057  38.8062878  19.7371199  50.9451973  37.3533322  29.3332662
  50.1328655  37.0459213  29.4145835  51.4041908  36.8732323  29.8975374
  50.8932358  37.2369815  29.4287256  50.3557228  45.2312994  19.7809606
  49.9971882  45.4027637  20.5573639  49.8695938  45.6926200  19.2237605
  50.2315925  45.3251965  19.8134875  48.1727614  28.8544193  23.3836698
  47.3021172  28.8282914  23.3370007  48.4267955  28.6821385  22.5662543
  48.0821174  28.8254337  23.2556834  45.1445593  40.9112160  12.3209841
  45.4338118  41.6877042  12.5953415  45.2317392  40.4000891  13.0224340
  45.1999849  40.9504078  12.4652339  48.0405481  38.7593394  34.1161364
  48.5105112  39.3835510  34.5029238  48.0867361  38.0910369  34.6754579
  48.1173356  38.7528074  34.2561436  45.1976754  30.8650421  24.8410168
  44.6815243  30.1730613  24.9661747  44.6370683  31.5321198  24.7872767
  45.0383267  30.8613679  24.8516234  47.2668988  31.4043381  26.6703021
  46.8800741  31.4292413  27.4516551  46.7801925  30.8385060  26.2177537
  47.1381497  31.3239132  26.7190924  51.5161967  46.1216890  30.7276807
  52.1541688  45.6277086  30.3939263  50.8736059  46.0494291  30.1429034
  51.5156194  46.0375899  30.5919162  53.2418967  37.9706036  25.2942723
  52.8146575  37.8832385  24.5390822  52.6045020  38.0783812  25.8797567
  53.0848574  37.9738696  25.2688164  46.9326129  28.2910367  28.9613281
  47.5619247  28.8270667  28.6834351  47.1011992  28.1987726  29.8126846
  47.0503924  28.3571729  29.0461809  46.7340044  33.0781562  31.2339692
  47.5613474  32.8066710  31.2898307  46.7547890  33.8742403  31.5903510
  46.8592894  33.1561316  31.2954875  51.5716224  46.8136699  27.3682164
  52.3608602  46.4625763  27.4884246  51.7459822  47.6273087  27.1058798
  51.7136505  46.8822556  27.3470032  41.3109534  40.2245424  24.4209953
  40.4697541  40.1249299  24.6288847  41.5199542  40.9940905  24.7724273
  41.2174227  40.3237468  24.5037268  38.7885101  37.8464961  22.2494703
  38.3941799  37.9207973  21.4744813  38.2325218  38.2322908  22.8003065
  38.6487913  37.9146736  22.2162363  50.4250048  30.8246255  21.9298582
  50.6299641  30.7568563  22.7755580  50.0976472  31.6305077  21.8619760
  50.4065296  30.9332196  22.0458238  45.1226199  38.1526824  23.6707550
  44.8189336  37.5982812  24.2717958  44.4205620  38.3319034  23.1835585
  44.9742409  38.0971606  23.6877256  44.1792296  35.4627343  18.2352252
  44.4552030  34.7446256  17.8229820  44.7790965  36.0612263  18.0273358
  44.3085561  35.4447714  18.1433013  43.1844550  45.3676544  28.3779648
  43.0764905  45.3778606  29.2441706  43.3940331  46.1931325  28.1884602
  43.1994661  45.4917619  28.4783740  53.6783736  31.3778020  21.4101348
  53.0658049  31.8648422  21.7955080  53.7747910  30.7021510  21.9538999
  53.6021633  31.3496328  21.5480206  47.6802817  33.1340861  16.5098847
  48.1346563  33.3051421  17.2346692  48.1542862  32.5208971  16.1096623
  47.8171137  33.0691746  16.5572609  41.2018342  42.6189187  25.8401586
  40.6106275  43.2598685  25.8104601  41.9639366  43.0426804  25.8132885
  41.2266603  42.7765025  25.8316733  41.5978965  33.7791184  26.5069603
  42.0580446  33.8530114  27.2444727  41.6435071  34.5772438  26.1569425
  41.6729520  33.9085331  26.5642360  43.2462314  34.4457879  31.0741630
  42.8547880  33.7991226  31.5097408  43.4148177  35.0369315  31.6935886
  43.2133225  34.4372147  31.2304336  57.3208764  42.4494956  26.8378864
  57.3791887  42.8981605  27.5838840  56.6875231  42.8593769  26.4008944
  57.2360059  42.5768691  26.8831412  50.9607858  48.0698498  23.2733610
  50.7627547  48.5589313  22.5789821  50.3395569  48.2739740  23.8517744
  50.8395423  48.1715036  23.2556833  45.0215837  39.8383395  17.6143854
  45.7657881  40.2257671  17.8526804  45.1676533  38.9940820  17.7784342
  45.1526422  39.7713868  17.6737824  46.9395412  31.6333654  22.6475716
  46.0931457  31.8056462  22.5217066  46.9366544  30.8282998  22.9841544
  46.8142562  31.5394683  22.6786843  48.0093712  35.4108868  23.5137774
  47.5353667  34.8850630  24.0243085  48.3811848  34.8638341  22.9452635
  47.9943601  35.2524865  23.5052921  38.3866743  37.4080375  28.8821320
  39.2492356  37.3076084  28.7958649  38.0558526  36.8275084  28.3206892
  38.4651939  37.3072002  28.7866725  54.2730443  40.4711244  24.9244554
  54.0328666  39.6317659  24.9286981  54.7522450  40.5511411  25.6485328
  54.3082627  40.3592644  25.0319357  49.9377212  36.3045423  16.5763528
  49.4100231  36.3874167  15.8869236  50.3972920  37.0463294  16.5728172
  49.9279063  36.4266085  16.4738223  56.2735630  37.2512701  22.8773813
  56.0345400  37.2108535  22.0394598  56.4369531  38.0983853  23.0039534
  56.2625933  37.3704786  22.7727295  52.8781660  41.6362651  28.8078859
  53.6015859  41.1835177  28.6289878  52.6131622  41.9167316  28.0251186
  52.9462933  41.6113619  28.6657574  41.7468529  36.2322824  25.5431738
  41.1221599  36.2441216  24.9357690  41.4114123  36.7082999  26.1922978
  41.6054020  36.3041341  25.5488306  38.4594204  44.2923284  26.9835502
  37.9294129  43.6015723  27.0330477  38.7319297  44.2833469  26.1548211
  38.4218926  44.1890416  26.8682918  49.4914295  44.8748987  15.7073185
  50.2148493  45.3407100  15.5637758  49.0514886  44.9422596  14.9570782
  49.5329987  44.9532823  15.5757966  48.6600450  41.7346529  26.9573874
  48.0457443  41.1904579  27.2522509  49.1767735  41.2210765  26.4779690
  48.6456112  41.5782938  26.9298102  47.8996747  42.8050799  24.6918172
  47.4724355  42.1800517  24.2583608  47.8921691  42.5225721  25.5177179
  47.8355888  42.6703579  24.7498000  41.0159274  37.8415972  27.7606606
  41.1752761  37.0859296  28.1658328  40.8352168  38.3906911  28.4147344
  41.0124633  37.8109786  27.9169312  48.9579577  30.0077207  28.3157396
  48.4620138  30.2040882  27.6248962  49.7148639  30.4069876  28.1446197
  48.9966402  30.0954941  28.1877532  46.2282456  33.6819553  24.9060706
  46.2524944  33.1479666  24.2173486  46.4793930  33.1736862  25.5686297
  46.2692375  33.5280457  24.9025351  33.7390046  40.9651048  24.3403850
  33.6333495  40.9197893  23.4755934  32.9890266  41.3104829  24.6218135
  33.6125649  41.0091956  24.2541180  42.5083779  32.4090372  24.2866451
  42.5482150  32.9099578  25.0001158  41.6833443  32.5000765  24.0172374
  42.3923305  32.4972188  24.3516989  44.6913392  41.9751112  32.3886745
  43.8409022  42.1122826  32.5244390  44.8541519  41.2414890  32.8334447
  44.5897255  41.8865213  32.4742344  43.9298142  38.9250881  26.5840350
  43.0990072  39.0924699  26.3775598  43.8749659  38.5486832  27.3689235
  43.7987557  38.8940613  26.6688878  41.7381925  32.4159774  32.2196760
  42.3634629  31.8721907  32.4926193  41.2832405  31.9354692  31.6504551
  41.7630186  32.2649256  32.1758354  42.3034186  37.2006473  17.1130467
  42.4437147  37.6978937  17.8159109  42.8016719  36.4992767  17.2544681
  42.3975267  37.1708452  17.2382046  42.3334408  38.0673584  14.4423044
  42.9679488  38.6634009  14.3772506  42.4160019  37.7677042  15.2568914
  42.4390959  38.1114492  14.5526131  55.3116974  40.5989061  27.3109408
  55.9034814  41.2386312  27.3427606  55.7475969  39.9012098  27.6001475
  55.4635405  40.5907412  27.3590241  43.9113391  33.9987559  14.4168486
  44.2329232  33.5190642  13.7627748  44.1740335  34.8087205  14.2259298
  43.9979417  34.0477457  14.2923978  47.1410364  45.0206434  27.9367302
  46.6335455  45.5742281  28.3807933  46.8437010  45.0814724  27.1186077
  47.0215249  45.1112745  27.8815759  49.3072546  33.3859753  26.7791965
  49.7327618  32.9332280  26.1675492  48.6929539  32.8319824  27.0556753
  49.2801192  33.2373730  26.7296990  38.8387396  40.2641425  17.7112590
  39.3479626  40.8605932  18.0923896  39.3121668  39.9967398  17.0289010
  38.9830772  40.3127240  17.6667113  49.7518144  48.9369691  15.8671246
  49.0347454  48.7630554  15.4018483  50.4024882  48.7022264  15.3346732
  49.7419995  48.8765484  15.7200464  47.7466769  29.8574853  20.1882542
  47.1035087  29.7072500  20.7567681  47.4066176  29.6117198  19.4231647
  47.6011846  29.7986976  20.1585557  52.3366115  37.8134280  19.6112551
  51.6657305  38.3563982  19.4825616  53.0305866  38.2829135  19.3694246
  52.3394983  37.9632551  19.5568079  46.3852849  49.9530992  24.8424309
  46.1618504  49.1949821  25.2108335  45.8962693  49.9829013  24.1204749
  46.2796298  49.8453216  24.7901050  52.4994243  34.2690164  22.5202924
  52.8521853  33.8419887  23.1948723  51.6409044  34.1841007  22.6504000
  52.4243688  34.1934904  22.6397934  41.1977928  36.8997683  20.5785771
  40.4789917  37.3161816  20.8458634  41.5690290  37.4651922  20.0277409
  41.1469860  37.0446965  20.5368578  50.4977509  37.5325532  26.4687766
  50.4775436  37.3508827  27.3222545  50.5456709  38.4037551  26.4447350
  50.5012150  37.6342070  26.5911061  48.4423839  44.1212724  32.3936243
  48.4019693  43.4762401  31.8081399  49.2547157  44.0649342  32.7061655
  48.5566992  44.0171691  32.3533192  45.0331306  50.1731450  22.2961394
  44.6191705  49.5105580  21.9065235  45.7178680  50.3209309  21.7757088
  45.0729678  50.0972108  22.1617891  48.3996600  49.3321535  23.0485010
  48.0012883  49.4423806  22.2805831  47.7847820  49.5403602  23.6311570
  48.2495490  49.3795103  23.0216310  46.9724502  35.9395683  15.9159150
  46.3789342  36.2612680  15.3643717  47.0099780  35.0936779  15.7080256
  46.8898891  35.8620011  15.8041921  53.9318303  29.3908575  23.4487236
  53.4249168  28.6837715  23.3808414  54.7285737  29.0601764  23.5788313
  53.9745542  29.2381727  23.4586231  49.8482319  35.8975188  19.3460900
  49.6196012  35.9207889  18.5039258  50.1080395  35.0732655  19.4655911
  49.8528507  35.7791268  19.2386098  44.1301547  37.7509661  28.9486000
  43.6180450  37.1430844  29.3071032  43.9581043  38.4666253  29.4159976
  44.0291184  37.7672960  29.0702224  38.9767262  36.1947236  31.5988362
  38.8069852  36.8548611  31.0536569  38.5333212  36.4053797  32.3200851
  38.8866596  36.3233218  31.6249992  42.9027081  34.4351734  20.6415096
  43.3784448  34.7968814  20.0065277  42.4015681  35.0908202  20.9215239
  42.8992440  34.5845923  20.5891837  56.1338443  43.9073502  16.4328101
  56.5172049  44.6564858  16.6626198  55.3382556  44.1539322  16.1740090
  56.0732225  44.0543196  16.4285674  48.0070618  35.6733905  31.3888256
  48.5642048  35.4447715  30.7566721  47.6831683  36.4339571  31.1123468
  48.0417028  35.7517742  31.2544753  35.8769327  39.0994102  26.8576852
  35.3296046  38.4294747  26.9757720  36.6661705  38.7323949  26.9220319
  35.9121510  38.9459088  26.8845553  45.7253735  38.7601559  32.3540263
  46.4765062  39.0753236  32.6679817  45.9176311  38.5580730  31.5274185
  45.8645149  38.7768940  32.2783659  44.9453735  36.5792934  14.0088480
  45.3252699  36.5972563  13.2239595  44.2046331  37.0246923  13.8879327
  44.8922572  36.6474708  13.8752048  52.5739025  34.8875125  19.5964059
  52.5733251  34.7323782  20.4548335  52.3695205  35.7338112  19.5405444
  52.5438803  34.9895746  19.7151998  34.6356296  38.3114909  24.0122875
  34.4578057  37.8591518  24.7377791  34.3475318  39.1141071  24.1961353
  34.5669249  38.3637467  24.1466378  50.2979877  39.5672627  23.2500265
  50.7933542  38.8495622  23.2104286  49.4879653  39.2643424  23.1354752
  50.2523770  39.4170273  23.2273991  45.7438489  43.4170440  15.3997270
  44.9349811  43.0937114  15.3530579  46.2513397  42.7103662  15.3325519
  45.6988155  43.2651756  15.3827564  36.3728766  40.8442633  21.1244634
  35.5074285  40.8328324  21.0127405  36.4727582  40.6572856  21.9715773
  36.2602933  40.8148694  21.2333579  52.3631696  42.3176314  25.9377394
  52.7886768  41.7950736  25.3847819  51.9988616  42.9157152  25.4166017
  52.3718299  42.3286541  25.7786404  41.9985776  50.6140532  24.6974740
  42.3132335  51.4276920  24.7052521  42.4079189  50.2290750  25.3656899
  42.1053874  50.6769234  24.7978831  48.9510295  46.0310579  22.2678552
  49.4221474  46.7450841  22.4368537  49.2870474  45.4309329  22.8038421
  49.0705410  46.0482043  22.3710928  51.0387280  47.6411892  34.4470624
  51.1484245  46.8520453  34.8027371  51.3678177  47.5517828  33.6444962
  51.1039686  47.5117745  34.3813014  45.8679790  30.8038049  29.2236646
  46.0007696  30.0069043  29.5517622  46.2524943  31.3304452  29.8034922
  45.9436119  30.7637966  29.3580149  49.5884242  45.8228513  29.0306244
  49.0405188  45.1986396  28.7626310  50.0497270  46.0122785  28.3150324
  49.5751451  45.7587563  28.8856675  48.9412146  27.7268375  25.8217740
  48.1358109  27.6166105  26.1385578  48.8118881  27.8280831  24.9647605
  48.8032278  27.7252045  25.7425780  52.3978106  33.8913867  26.4157437
  51.8141095  34.3923074  26.0035004  52.7182400  33.3843423  25.7821760
  52.3591281  33.8905702  26.2615944  44.9372905  32.8054462  16.6916111
  45.7588600  32.9752775  16.4497806  44.4742556  32.9601723  15.9682409
  44.9904068  32.8536195  16.5487756  43.5268237  30.7997224  27.4714540
  44.0712650  30.4588351  28.0618882  43.5805173  31.6582686  27.6135825
  43.6157357  30.8752484  27.5796414  39.3398796  44.5613640  24.3453348
  39.9443653  44.5209474  23.7167169  39.1326108  45.4084792  24.3757404
  39.3987693  44.6801643  24.2569465  49.1542568  46.8279585  25.5615585
  49.9740942  46.6842551  25.8231881  48.8736646  47.4525784  26.1032023
  49.2339311  46.8989937  25.6803525  34.5750078  43.5448258  24.2152271
  34.4774356  42.7344529  24.5242328  35.3578948  43.5240051  23.8298539
  34.6766215  43.4215348  24.2039134  65.6256218  54.4844437  18.5258462
  65.5950223  55.3389074  18.6976731  66.2237567  54.1839730  19.0844605
  65.7093376  54.5660934  18.6333264  58.8255903  53.5720088  23.2811392
  57.9693799  53.7328586  23.3320509  58.8723557  52.7012152  23.3016453
  58.7055015  53.4670890  23.2917458  53.2097043  63.1082806  19.0448624
  52.4579943  62.7298344  18.8164669  53.6583055  63.1401240  18.2967434
  53.1646710  63.0568413  18.9006126  62.1349620  59.8406614  32.8871848
  62.8416387  59.3458644  33.0158783  62.3237555  60.2815695  32.1574506
  62.2677525  59.8324964  32.7980894  58.6622003  63.5308175  14.4734171
  58.3273371  64.2085097  14.0378393  59.1748873  63.1413487  13.8851043
  58.6887584  63.5732754  14.3220962  58.2026294  65.4822444  20.4145282
  58.5865673  66.0509343  19.8750058  58.1385435  64.7571954  19.9351099
  58.2499721  65.4597908  20.2639145  61.6707724  55.6312132  25.9243044
  62.2163684  56.3097219  25.9837014  61.6124601  55.4899593  25.0644625
  61.7423639  55.7104134  25.8055104  54.7881799  63.1201198  21.3111396
  54.8892162  62.3101552  21.6208524  54.1923544  63.0258145  20.6811075
  54.7154338  62.9866226  21.2637635  63.4472793  57.0596739  16.7976772
  63.3312319  57.8104425  17.2268910  64.2428680  56.8020692  17.0472859
  63.5477382  57.1331586  16.8980863  54.6282539  68.0378787  22.7126252
  55.2719994  68.4791951  23.1022411  54.9538794  67.2332213  22.6256511
  54.7714367  67.9843982  22.7571730  47.9846843  59.1421485  20.9363730
  47.7497028  58.3089137  20.8295999  48.1232484  59.4226150  20.1224931
  47.9702506  59.0604988  20.8006085  50.2836931  51.3107215  23.8348038
  49.6641963  50.7199863  23.6658052  50.1820794  51.9018651  23.2012361
  50.1774606  51.3111298  23.7153027  55.3303118  61.0490762  18.0846114
  55.6518960  61.5895969  17.4807422  55.9775215  60.4787534  18.2168404
  55.4729174  61.0449937  18.0153149  57.3804827  53.0506757  18.1680501
  58.0784991  53.2294885  18.6601964  57.6957159  52.5277096  17.5450890
  57.5300164  53.0000529  18.1482511  50.0106064  54.8559497  26.0791607
  49.8864761  55.4421943  26.7141426  50.6624348  54.3619693  26.3803882
  50.0879713  54.8698301  26.2177536  57.5692762  59.4377202  18.1560292
  58.0086397  58.8294303  18.6015065  57.4197425  59.0584575  17.3845757
  57.6114228  59.2915673  18.1079460  55.0364405  58.0321214  25.3579118
  55.6813407  57.5393657  25.0390066  55.2766182  58.1746001  26.1845196
  55.1674990  57.9798656  25.4328651  57.5750496  60.8776120  25.0086010
  57.8573739  60.0827526  24.7872766  58.3036657  61.3556707  25.0291071
  57.7240060  60.8310717  24.9789025  55.5531690  48.4199154  22.2501775
  55.2235020  48.8710297  21.5805474  54.8776692  48.3415317  22.7974782
  55.4042126  48.4750289  22.2324999  61.1702098  57.7904383  15.1091061
  61.0853394  58.6465350  15.2540630  61.6586482  57.5148707  15.7773221
  61.2290996  57.8761705  15.2293143  62.7608098  44.4084677  20.4951386
  62.4461539  45.0988155  20.9271808  62.2435040  44.3529459  19.7936887
  62.6372568  44.5019565  20.4548335  62.1020532  54.4089178  16.6088797
  61.5732003  54.6248811  17.2686103  62.6245552  55.1025316  16.5289766
  62.1008985  54.5432314  16.6944396  67.5568585  59.9835482  21.9821841
  66.7266288  60.1946126  22.1455258  67.5077837  59.1572537  21.7064125
  67.4275320  59.8925088  21.9659207  53.9920139  58.3052394  15.4096265
  53.4077355  58.8102426  15.8162129  53.5890235  58.0794781  14.6692857
  53.8459443  58.3460643  15.3601290  49.5464168  64.0207155  22.2119936
  49.0631746  64.7457645  22.1879520  50.3587486  64.3183286  22.3230094
  49.5954916  64.1709509  22.2247215  55.6178322  62.8139336  24.8169751
  55.1005264  62.4546751  24.2131059  56.3152713  62.2901511  24.8275817
  55.6443903  62.6837024  24.7300009  59.2741914  63.2634150  30.7785924
  59.3625260  63.0760291  31.6264134  59.7031627  62.6171580  30.3790770
  59.3504017  63.1397158  30.8457675  56.8412374  62.5465310  29.7603586
  56.2783209  62.1337920  30.2843247  57.6033397  62.4718216  30.1796729
  56.8706823  62.4742711  29.8996586  58.4497354  54.5518046  13.8865185
  58.6893358  54.7596030  13.0740528  58.7713195  53.7475555  13.9954130
  58.5334512  54.4632148  13.7825738  53.7587644  46.4811442  17.7324723
  54.5133612  46.8489759  17.4941773  53.5815179  46.8550997  18.5003903
  53.8442123  46.5909630  17.8109612  52.4008365  64.5363331  22.3640216
  53.1028945  64.0215320  22.4212973  52.3205848  64.8637483  23.1687091
  52.4932126  64.5077558  22.4913008  67.0522543  52.6305883  25.7772262
  66.2150964  52.7008070  26.0119857  67.0210774  52.6330378  24.9046565
  66.9240825  52.6416110  25.6831810  53.4487272  54.7738918  31.4920631
  53.6207776  54.6644813  32.3405912  53.9856629  55.4193324  31.2551823
  53.5532276  54.8530920  31.5825728  52.1144709  48.8881761  14.4302836
  51.9320282  49.1053642  13.6043829  52.9770322  49.0020774  14.4861451
  52.2149298  48.9371659  14.3157323  51.7259141  60.7269683  21.8725824
  52.5648040  60.9592616  21.9199586  51.7570910  59.8573995  21.8032859
  51.8540858  60.6326630  21.8690469  52.3511844  61.1470559  26.1739130
  52.8910069  61.0041690  26.8442502  51.6681790  61.5467309  26.5423156
  52.3303998  61.1850230  26.3273551  57.7944428  45.8908172  17.4651860
  58.5230588  45.7124127  17.0190016  57.8839321  46.7326252  17.6759038
  57.9151090  45.9892050  17.4305378  61.7752729  56.8261559  21.3684154
  62.5310244  57.2593074  21.4073063  61.8815053  56.1766329  21.9418790
  61.9022899  56.7939043  21.4582180  64.8132900  60.6534836  22.1186557
  64.3768132  60.6571579  22.8745528  64.4795815  61.3340335  21.6866134
  64.6995520  60.7547292  22.1667389  59.3861973  62.6943169  33.4429707
  60.1702390  62.8074017  33.8085449  59.1858568  61.8684306  33.6388393
  59.4727999  62.5889889  33.5264093  47.7548989  57.3670849  26.3273551
  47.4887404  56.5509966  26.4864541  47.7687553  57.4124005  25.4569067
  47.7173711  57.2527754  26.2227033  64.7330383  47.6948664  24.3615985
  65.3756291  47.7646769  24.9477900  64.9853403  47.0277887  23.8595527
  64.8652515  47.6075013  24.3743264  51.6606736  52.1655934  12.9425309
  50.9464913  51.8794113  13.3547742  52.1450705  52.5052560  13.5831697
  51.6266099  52.1737583  13.0980944  52.5047595  50.9049228  28.9740559
  51.8119392  50.4346207  29.2201290  53.1207923  50.6787532  29.5482266
  52.4932125  50.8016359  29.0949711  59.5432367  64.6053271  27.0896163
  58.7447613  64.3652771  27.3470031  59.9918378  64.6567664  27.8363210
  59.4906978  64.5775663  27.2381087  67.9477246  57.3715756  21.0106194
  68.6093680  56.8106425  20.9102103  67.3068658  56.8767787  21.3358885
  67.9506114  57.2152165  21.0438534  58.8354054  60.6685888  13.3187117
  59.2505202  60.3370912  12.6271613  58.0045983  60.4354790  13.1907254
  58.7742063  60.5857144  13.1977965  48.1642403  58.1529629  23.6085295
  47.9817976  58.1276515  22.7557588  48.8992071  58.6228567  23.6474204
  48.2456466  58.2190991  23.4883214  64.2342077  58.3881139  20.7518183
  64.4697666  58.5326338  19.9245034  64.3831640  59.1523547  21.1449697
  64.2907880  58.5220193  20.6881787  51.2288154  54.8714632  30.1167404
  51.9528127  54.8567662  30.6032299  51.3304291  55.5809987  29.6189372
  51.3506363  54.9739335  30.1146191  66.0632533  57.2282805  18.5887787
  66.3940751  57.7610445  17.9827882  66.6365622  57.2821692  19.2449738
  66.1966213  57.3152374  18.5965568  58.6033104  58.3513716  34.9816351
  57.8106084  58.6657228  35.1668971  58.7182031  58.5665185  34.1437136
  58.5028514  58.4297553  34.8854686  61.2764423  55.0747707  19.2711367
  61.3711277  55.8137001  19.7250992  60.6523266  54.6465183  19.7045931
  61.1973453  55.1209028  19.4019514  59.5316896  58.2533920  29.9201648
  60.1055758  57.6161164  30.0750212  59.4531700  58.2538002  29.0511305
  59.6050131  58.1599031  29.8148059  48.1313313  55.0323129  23.7584362
  48.7086816  54.8959580  24.3976607  47.4327375  54.5758914  24.0129946
  48.1134334  54.9445396  23.8906652  61.5287444  56.9196447  12.5048319
  61.4467606  56.9898634  13.3703306  62.1667164  57.4826191  12.3132059
  61.6107281  57.0135418  12.6038268  54.8880615  56.6857185  21.9722845
  54.6299859  55.8528920  21.9454145  54.9429098  56.9114798  21.1315346
  54.8580393  56.5954956  21.8442982  59.9681665  48.7885636  22.0726938
  59.2637992  48.2994821  22.2310857  60.0166640  48.8008110  21.2015382
  59.8711717  48.7175284  21.9666278  53.8615327  54.2394948  22.4587740
  53.2864918  54.3987116  23.0951701  53.4851004  53.6030357  21.9956190
  53.7218140  54.1692761  22.4842298  57.5288616  52.7118297  27.3180118
  57.1403049  52.2872515  26.6632310  56.8643314  52.9600447  27.8257145
  57.3735544  52.6857018  27.2967986  67.1711885  52.4693302  20.0927948
  66.9148450  51.6573243  19.9025831  68.0141199  52.4770869  19.8658136
  67.2577910  52.3505299  20.0312765  43.6072146  53.8835022  20.4732181
  43.6932398  53.5066891  21.2545710  44.2347944  53.5095468  19.9952139
  43.7128697  53.7720505  20.5177658  61.3514977  46.4092926  24.8304103
  61.7325489  45.7271097  25.2171977  60.5478262  46.1202528  24.6479767
  61.2891439  46.2659974  24.8608158  58.6327554  56.9416901  15.5156925
  59.4468193  57.2331794  15.4039697  58.5686695  56.2876764  14.9415218
  58.7430293  56.8882096  15.4145763  64.8537044  59.6242898  29.9286501
  64.6175682  58.7930962  29.8098562  65.4980273  59.5728505  30.5141345
  64.9131715  59.4940586  29.9972395  54.5035462  60.4138419  20.6429237
  55.1409409  60.1750166  21.1881031  54.9290534  60.6175578  19.9082398
  54.6611629  60.4089429  20.6146395  49.1948105  62.6526755  24.5263541
  49.2352250  62.9241607  23.6983321  49.7542629  63.1768664  24.9421329
  49.2831451  62.7702511  24.4655429  55.1438277  55.6340709  14.9804127
  55.5283430  55.4148415  15.7320672  54.8949898  56.4603654  15.1105203
  55.1640350  55.7238855  15.1105203  55.3106818  48.9147124  34.6966711
  54.9960259  49.6846687  34.4336274  54.9896750  48.3517380  34.1118938
  55.2165737  48.9457393  34.5708061  65.8773465  59.4087346  25.9914795
  65.5719282  60.1415403  26.3528111  65.1579681  59.0025276  25.7107581
  65.7260807  59.4569079  26.0027933  56.8856934  60.8910842  22.3223024
  56.9595943  60.7286013  23.1764874  57.7026441  61.0801031  22.0783505
  57.0173293  60.8947584  22.4121049  71.5775257  56.0480347  25.3183140
  71.5099757  56.0676306  24.4485726  71.5630919  56.8910674  25.5438810
  71.5654014  56.1754082  25.2235617  50.6462691  61.2368704  19.3517467
  49.8200809  61.4830442  19.2251746  50.7074682  61.1580785  20.2179525
  50.5336858  61.2613653  19.4606412  52.8638715  47.3037645  20.3112907
  51.9961140  47.3760245  20.3770517  53.1513919  48.1059724  20.5000882
  52.7778463  47.4331792  20.3487674  61.9871604  47.4515505  28.6424229
  62.7325196  47.2625315  28.2287655  61.5708908  47.9773743  28.0838085
  62.0356578  47.5017650  28.4988802  55.4261520  63.8545585  17.0536497
  55.7159818  63.4634566  16.3295724  56.1565001  64.0362290  17.4941772
  55.5768404  63.8239398  17.0119304  69.3633874  54.8224733  23.5929734
  69.9141796  54.1892802  23.8326826  69.3477990  55.3540126  24.2845238
  69.4419071  54.8073681  23.7308592  56.0156265  58.6563331  28.1389628
  55.5167959  59.3679098  28.2174516  56.8256490  58.9763997  28.1007790
  56.0612372  58.8090179  28.1446196  53.3667436  65.8312967  20.1196647
  53.1467731  65.5410322  20.9123314  53.1461958  65.1727922  19.5914559
  53.3015030  65.6912675  20.1585555  52.2784383  57.9186284  22.3852348
  51.9897631  57.2923755  22.9198076  53.1467731  57.8606571  22.4517029
  52.3644635  57.8173828  22.4743303  63.0662281  53.0621067  22.7034330
  62.7227046  52.3411402  23.0541580  63.1655323  52.8534918  21.8612689
  63.0304323  52.9245270  22.6306010  55.5335391  67.2042357  18.9027339
  56.1859449  66.6718799  19.1318365  54.8361000  66.8511009  19.2895213
  55.5266109  67.0731880  18.9939507  52.4816656  59.5581535  18.3094713
  53.2362624  59.9394574  18.5230176  51.8887269  60.0092678  18.7641410
  52.5053370  59.6810362  18.4077592  63.5275310  59.5246771  18.2458318
  64.0933342  60.1839981  18.1616861  62.8803213  59.8696469  18.7174721
  63.5154066  59.6728712  18.3031075  54.9423323  51.5144375  33.4351926
  54.1323099  51.8202155  33.3241768  55.4198010  52.2349957  33.5504510
  54.8926802  51.6658976  33.4358997  53.8014883  60.7290096  23.6834829
  53.2795636  60.8690388  24.3686694  54.1888903  59.9700760  23.8736946
  53.7818584  60.6375620  23.8135905  50.7906067  50.7795905  17.7529784
  50.5030863  50.4097175  17.0161731  51.4776535  51.2490760  17.4913488
  50.8494964  50.7942874  17.6044859  59.9981888  62.4685555  17.6695398
  59.7568564  61.7353416  17.2622463  60.1783221  63.0172412  17.0161731
  59.9889512  62.4407946  17.5125621  55.2281208  57.7594115  19.0816320
  55.0323991  58.3668849  18.4876623  55.4515554  57.0662059  18.6007994
  55.2315849  57.7471640  18.9232401  53.6259738  54.6448853  19.1997188
  54.3482390  54.8090011  18.7400994  53.1467731  55.3658518  19.0936528
  53.6623469  54.7747082  19.1162802  61.5853246  50.9812652  24.5793873
  60.7464347  51.0073931  24.3432136  61.6557613  51.6283387  25.1599220
  61.4721639  51.0808778  24.6302990  51.2767355  57.0506925  28.3051328
  51.7888452  57.3291179  27.6560088  50.9903698  57.7896219  28.6714141
  51.3102218  57.2009279  28.2641206  60.0322524  47.8798029  19.3121489
  60.7348877  47.6805777  18.8341447  59.7666713  47.1073971  19.6190333
  60.0969157  47.7360995  19.2866931  65.4610770  56.1880638  21.8655115
  65.3744744  56.3436065  22.7189894  65.0061250  56.8318714  21.4914520
  65.3814026  56.3056394  21.9362222  48.3634261  51.5577117  18.6015065
  48.4650398  52.3603279  18.9296040  49.1590148  51.3564453  18.3038145
  48.4962167  51.6463016  18.6050420  54.7951081  49.1433314  28.3652370
  54.6034278  49.1588448  29.2151793  55.6449676  49.3396988  28.3419025
  54.8926802  49.1747665  28.4875664  49.1797994  51.6724295  26.3436186
  49.0383485  50.8208236  26.4680694  49.4638557  51.7152956  25.5198392
  49.2005840  51.5524045  26.2403810  59.3336586  53.5091386  20.4880674
  59.0871300  53.4287136  21.3217463  59.6621709  52.7244853  20.2943202
  59.3457829  53.3817651  20.5828198  63.2284635  60.2174745  24.2767456
  63.0898994  60.9155791  24.7816198  62.4484633  60.0623401  23.9203637
  63.0927862  60.2974912  24.2993730  61.5662720  56.5171120  30.5289837
  61.5610758  55.6450937  30.5332264  62.2723714  56.7159289  30.0559293
  61.6707724  56.4174994  30.4596873  55.2933613  56.2448104  29.9003658
  55.4376989  56.8249312  29.2646768  55.6409262  56.6224401  30.6053512
  55.3661075  56.3868808  29.9102652  57.4653531  55.4438273  27.6828789
  56.7176845  55.6369287  27.2777067  57.6195056  54.6183492  27.4452910
  57.3775958  55.3503384  27.5874195  54.3661368  64.4350876  26.7664684
  54.5150932  63.8753792  26.1138089  55.1461370  64.5142878  27.1497203
  54.5035462  64.3636441  26.7261634  64.7238008  59.5752999  15.0383955
  64.3444816  58.7890137  15.0313244  64.0604253  60.1239856  14.8955599
  64.5696482  59.5397823  15.0164752  56.8914669  64.6065519  28.0449175
  56.8158340  63.9374329  28.5999963  56.8204528  65.3083307  28.5589841
  56.8695276  64.6110426  28.2026023  57.7055308  49.3388823  28.5724193
  58.1627922  50.0712798  28.6996985  57.7811636  48.9155288  29.3311449
  57.7846277  49.3846061  28.7025269  49.9488299  49.5854643  29.6613637
  49.4130488  48.9735001  29.9774404  50.0106064  50.1602779  30.3147303
  49.8783931  49.5801571  29.8049063  62.1782633  42.5178698  22.4418036
  62.2966202  42.9755162  21.7085338  62.0044809  41.7123960  22.1554253
  62.1701804  42.4672471  22.2918969  57.5484916  63.1266518  18.8772781
  58.3134807  62.8576161  18.5555445  57.4463006  62.6416528  19.5942844
  57.6466411  63.0156082  18.9352609  55.5837685  51.3290927  25.4166017
  54.7933760  51.1482387  25.7383353  55.9798308  50.5517880  25.3996311
  55.5254562  51.1878388  25.4618565  60.0703576  60.1578701  10.8572730
  60.8376561  60.2178826  10.4478582  59.6234885  59.5859143  10.3729049
  60.1177003  60.0815277  10.7250441  60.9681372  58.9633357  23.1425463
  60.2926374  58.7318590  23.6438850  60.9773748  58.3554540  22.5167568
  60.8699876  58.8392283  23.1241615  58.0975516  53.8051186  29.8989516
  58.0334657  54.6661143  29.7709652  58.2372703  53.4883179  29.0985067
  58.1090986  53.8851353  29.7617729  62.9698106  61.8198490  15.3735641
  63.0517944  62.6265476  15.0497092  63.4547849  61.8394449  16.0976414
  63.0535264  61.9419152  15.4322539  56.7794610  56.4983326  24.0405719
  56.3556859  56.6987825  23.3044737  56.6039465  55.6512174  24.1530019
  56.6905490  56.4032107  23.9479409  56.2806303  68.0133839  26.5027176
  56.7702233  67.3144628  26.3202841  55.7090535  67.7157709  27.0903233
  56.2690833  67.8660062  26.5628217  52.0677055  56.9935377  19.4733691
  52.2241674  56.9282180  20.3289683  52.4077648  57.7683930  19.2612371
  52.1410289  57.0984575  19.5688285  58.6056199  56.3693261  18.3427054
  59.1471745  55.8663642  18.8065675  58.9202758  56.3158455  17.5316540
  58.7320596  56.2872682  18.2910867  62.4773307  60.5795908  35.4553967
  63.2908172  60.3081057  35.6159099  62.3168273  60.2803448  34.6514163
  62.5743255  60.4950834  35.3599373  56.7742649  61.7610612  15.6267082
  56.8435469  60.9025151  15.7660083  57.5531104  61.9782493  15.2986107
  56.8995499  61.6663476  15.5984240  59.7545469  51.2629565  28.3949355
  59.9687438  50.6240479  27.8412709  59.1379368  51.7075389  27.9657217
  59.6950798  51.2339709  28.2499786  61.1650137  64.1848313  19.8403576
  60.7729928  63.8815029  19.1226442  61.3203209  65.0217403  19.6508530
  61.1303726  64.2632150  19.7060073  48.6411316  54.1770328  19.7894458
  49.0210281  54.5954872  19.1254726  48.0666681  54.7583783  20.0963302
  48.6122641  54.3248186  19.7371199  61.9184557  52.8718630  29.3332662
  61.1061238  52.5644521  29.4145835  62.3774491  52.3917630  29.8975374
  61.8664941  52.7555123  29.4287256  61.3289811  60.7498302  19.7809606
  60.9704466  60.9212945  20.5573639  60.8428522  61.2111508  19.2237605
  61.2048508  60.8437273  19.8134875  59.1460197  44.3729501  23.3836698
  58.2753755  44.3468222  23.3370007  59.4000539  44.2006693  22.5662543
  59.0553757  44.3439645  23.2556834  56.1178177  56.4297468  12.3209841
  56.4070702  57.2062350  12.5953415  56.2049976  55.9186199  13.0224340
  56.1732433  56.4689386  12.4652339  59.0138064  54.2778702  34.1161364
  59.4837695  54.9020818  34.5029238  59.0599944  53.6095677  34.6754579
  59.0905940  54.2713382  34.2561436  56.1709338  46.3835729  24.8410168
  55.6547826  45.6915921  24.9661747  55.6103267  47.0506506  24.7872767
  56.0115851  46.3798987  24.8516234  58.2401571  46.9228689  26.6703021
  57.8533324  46.9477721  27.4516551  57.7534509  46.3570368  26.2177537
  58.1114080  46.8424440  26.7190924  62.4894551  61.6402198  30.7276807
  63.1274271  61.1462394  30.3939263  61.8468642  61.5679599  30.1429034
  62.4888777  61.5561207  30.5919162  64.2151551  53.4891344  25.2942723
  63.7879159  53.4017693  24.5390822  63.5777604  53.5969120  25.8797567
  64.0581158  53.4924004  25.2688164  57.9058713  43.8095675  28.9613281
  58.5351831  44.3455975  28.6834351  58.0744576  43.7173034  29.8126846
  58.0236507  43.8757037  29.0461809  57.7072628  48.5966869  31.2339692
  58.5346057  48.3252018  31.2898307  57.7280474  49.3927711  31.5903510
  57.8325478  48.6746624  31.2954875  62.5448807  62.3322007  27.3682164
  63.3341185  61.9811071  27.4884246  62.7192405  63.1458395  27.1058798
  62.6869089  62.4007864  27.3470032  52.2842118  55.7430732  24.4209953
  51.4430124  55.6434606  24.6288847  52.4932126  56.5126213  24.7724273
  52.1906810  55.8422776  24.5037268  49.7617685  53.3650269  22.2494703
  49.3674382  53.4393281  21.4744813  49.2057801  53.7508216  22.8003065
  49.6220497  53.4332044  22.2162363  61.3982631  46.3431563  21.9298582
  61.6032225  46.2753871  22.7755580  61.0709055  47.1490384  21.8619760
  61.3797879  46.4517504  22.0458238  56.0958783  53.6712131  23.6707550
  55.7921920  53.1168120  24.2717958  55.3938203  53.8504341  23.1835585
  55.9474992  53.6156914  23.6877256  55.1524880  50.9812651  18.2352252
  55.4284614  50.2631564  17.8229820  55.7523549  51.5797571  18.0273358
  55.2818144  50.9633022  18.1433013  54.1577134  60.8861852  28.3779648
  54.0497488  60.8963914  29.2441706  54.3672915  61.7116633  28.1884602
  54.1727245  61.0102927  28.4783740  64.6516319  46.8963328  21.4101348
  64.0390633  47.3833730  21.7955080  64.7480494  46.2206818  21.9538999
  64.5754217  46.8681636  21.5480206  58.6535400  48.6526169  16.5098847
  59.1079147  48.8236729  17.2346692  59.1275446  48.0394279  16.1096623
  58.7903720  48.5877054  16.5572609  52.1750926  58.1374495  25.8401586
  51.5838859  58.7783993  25.8104601  52.9371949  58.5612112  25.8132885
  52.1999186  58.2950333  25.8316733  52.5711548  49.2976492  26.5069603
  53.0313030  49.3715422  27.2444727  52.6167655  50.0957746  26.1569425
  52.6462104  49.4270639  26.5642360  54.2194898  49.9643187  31.0741630
  53.8280463  49.3176534  31.5097408  54.3880761  50.5554622  31.6935886
  54.1865808  49.9557455  31.2304336  68.2941347  57.9680264  26.8378864
  68.3524471  58.4166913  27.5838840  67.6607815  58.3779077  26.4008944
  68.2092642  58.0953999  26.8831412  61.9340442  63.5883806  23.2733610
  61.7360130  64.0774621  22.5789821  61.3128153  63.7925048  23.8517744
  61.8128006  63.6900344  23.2556833  55.9948420  55.3568703  17.6143854
  56.7390465  55.7442979  17.8526804  56.1409116  54.5126128  17.7784342
  56.1259005  55.2899176  17.6737824  57.9127996  47.1518962  22.6475716
  57.0664041  47.3241770  22.5217066  57.9099128  46.3468306  22.9841544
  57.7875146  47.0579991  22.6786843  58.9826296  50.9294176  23.5137774
  58.5086250  50.4035938  24.0243085  59.3544432  50.3823649  22.9452635
  58.9676185  50.7710173  23.5052921  49.3599326  52.9265683  28.8821320
  50.2224939  52.8261392  28.7958649  49.0291109  52.3460392  28.3206892
  49.4384522  52.8257310  28.7866725  65.2463027  55.9896552  24.9244554
  65.0061249  55.1502967  24.9286981  65.7255034  56.0696719  25.6485328
  65.2815210  55.8777952  25.0319357  60.9109796  51.8230731  16.5763528
  60.3832814  51.9059475  15.8869236  61.3705504  52.5648602  16.5728172
  60.9011646  51.9451393  16.4738223  67.2468214  52.7698009  22.8773813
  67.0077984  52.7293843  22.0394598  67.4102115  53.6169161  23.0039534
  67.2358517  52.8890094  22.7727295  63.8514244  57.1547958  28.8078859
  64.5748443  56.7020485  28.6289878  63.5864206  57.4352624  28.0251186
  63.9195517  57.1298927  28.6657574  52.7201112  51.7508132  25.5431738
  52.0954182  51.7626524  24.9357690  52.3846707  52.2268307  26.1922978
  52.5786604  51.8226649  25.5488306  52.9042861  50.0933250  11.6004423
  52.5555665  50.7452976  12.0635972  52.4239307  50.0790364  10.8728294
  52.7813105  50.1876304  11.5615514  49.4326788  59.8108592  26.9835502
  48.9026712  59.1201031  27.0330477  49.7051881  59.8018777  26.1548211
  49.3951510  59.7075724  26.8682918  60.4646878  60.3934294  15.7073185
  61.1881077  60.8592407  15.5637758  60.0247469  60.4607904  14.9570782
  60.5062570  60.4718131  15.5757966  59.6333033  57.2531837  26.9573874
  59.0190026  56.7089887  27.2522509  60.1500318  56.7396073  26.4779690
  59.6188696  57.0968246  26.9298102  58.8729330  58.3236107  24.6918172
  58.4456938  57.6985825  24.2583608  58.8654275  58.0411029  25.5177179
  58.8088472  58.1888887  24.7498000  51.9891857  53.3601280  27.7606606
  52.1485344  52.6044604  28.1658328  51.8084751  53.9092219  28.4147344
  51.9857216  53.3295094  27.9169312  59.9312160  45.5262515  28.3157396
  59.4352722  45.7226190  27.6248962  60.6881223  45.9255184  28.1446197
  59.9698985  45.6140249  28.1877532  57.2015040  49.2004861  24.9060706
  57.2257527  48.6664974  24.2173486  57.4526514  48.6922170  25.5686297
  57.2424959  49.0465765  24.9025351  44.7122630  56.4836356  24.3403850
  44.6066079  56.4383201  23.4755934  43.9622850  56.8290137  24.6218135
  44.5858233  56.5277264  24.2541180  53.4816362  47.9275680  24.2866451
  53.5214734  48.4284886  25.0001158  52.6566027  48.0186073  24.0172374
  53.3655888  48.0157496  24.3516989  55.6645975  57.4936419  32.3886745
  54.8141606  57.6308134  32.5244390  55.8274103  56.7600198  32.8334447
  55.5629839  57.4050521  32.4742344  54.9030726  54.4436189  26.5840350
  54.0722655  54.6110007  26.3775598  54.8482243  54.0672140  27.3689235
  54.7720141  54.4125921  26.6688878  52.7114509  47.9345082  32.2196760
  53.3367212  47.3907215  32.4926193  52.2564989  47.4540000  31.6504551
  52.7362770  47.7834564  32.1758354  53.2766769  52.7191781  17.1130467
  53.4169731  53.2164245  17.8159109  53.7749302  52.0178075  17.2544681
  53.3707850  52.6893760  17.2382046  53.3066992  53.5858892  14.4423044
  53.9412071  54.1819317  14.3772506  53.3892603  53.2862350  15.2568914
  53.4123543  53.6299800  14.5526131  66.2849558  56.1174369  27.3109408
  66.8767398  56.7571620  27.3427606  66.7208552  55.4197406  27.6001475
  66.4367989  56.1092720  27.3590241  54.8845975  49.5172867  14.4168486
  55.2061816  49.0375950  13.7627748  55.1472918  50.3272513  14.2259298
  54.9712000  49.5662765  14.2923978  58.1142948  60.5391742  27.9367302
  57.6068039  61.0927589  28.3807933  57.8169594  60.6000032  27.1186077
  57.9947832  60.6298053  27.8815759  60.2805130  48.9045061  26.7791965
  60.7060201  48.4517588  26.1675492  59.6662123  48.3505132  27.0556753
  60.2533775  48.7559038  26.7296990  49.8119980  55.7826733  17.7112590
  50.3212209  56.3791240  18.0923896  50.2854252  55.5152706  17.0289010
  49.9563355  55.8312548  17.6667113  60.7250728  64.4554999  15.8671246
  60.0080038  64.2815862  15.4018483  61.3757465  64.2207572  15.3346732
  60.7152578  64.3950792  15.7200464  58.7199353  45.3760161  20.1882542
  58.0767671  45.2257807  20.7567681  58.3798760  45.1302506  19.4231647
  58.5744430  45.3172284  20.1585557  63.3098699  53.3319588  19.6112551
  62.6389889  53.8749290  19.4825616  64.0038449  53.8014443  19.3694246
  63.3127567  53.4817859  19.5568079  57.3585433  65.4716300  24.8424309
  57.1351087  64.7135129  25.2108335  56.8695276  65.5014321  24.1204749
  57.2528882  65.3638524  24.7901050  63.4726827  49.7875472  22.5202924
  63.8254437  49.3605194  23.1948723  62.6141628  49.7026315  22.6504000
  63.3976271  49.7120212  22.6397934  52.1710512  52.4182991  20.5785771
  51.4522501  52.8347124  20.8458634  52.5422874  52.9837230  20.0277409
  52.1202443  52.5632273  20.5368578  61.4710092  53.0510840  26.4687766
  61.4508020  52.8694135  27.3222545  61.5189293  53.9222859  26.4447350
  61.4744733  53.1527378  26.5911061  59.4156422  59.6398032  32.3936243
  59.3752277  58.9947709  31.8081399  60.2279740  59.5834650  32.7061655
  59.5299576  59.5356999  32.3533192  56.0063890  65.6916758  22.2961394
  55.5924288  65.0290888  21.9065235  56.6911264  65.8394617  21.7757088
  56.0462261  65.6157416  22.1617891  59.3729184  64.8506843  23.0485010
  58.9745467  64.9609114  22.2805831  58.7580403  65.0588910  23.6311570
  59.2228073  64.8980411  23.0216310  57.9457086  51.4580991  15.9159150
  57.3521925  51.7797988  15.3643717  57.9832364  50.6122087  15.7080256
  57.8631475  51.3805319  15.8041921  64.9050887  44.9093883  23.4487236
  64.3981751  44.2023023  23.3808414  65.7018320  44.5787072  23.5788313
  64.9478126  44.7567035  23.4586231  60.8214902  51.4160496  19.3460900
  60.5928595  51.4393197  18.5039258  61.0812979  50.5917963  19.4655911
  60.8261090  51.2976576  19.2386098  55.1034131  53.2694969  28.9486000
  54.5913034  52.6616152  29.3071032  54.9313627  53.9851561  29.4159976
  55.0023768  53.2858268  29.0702224  49.9499846  51.7132544  31.5988362
  49.7802436  52.3733919  31.0536569  49.5065795  51.9239105  32.3200851
  49.8599179  51.8418526  31.6249992  53.8759665  49.9537042  20.6415096
  54.3517031  50.3154122  20.0065277  53.3748265  50.6093510  20.9215239
  53.8725024  50.1031231  20.5891837  67.1071027  59.4258810  16.4328101
  67.4904632  60.1750166  16.6626198  66.3115140  59.6724630  16.1740090
  67.0464809  59.5728504  16.4285674  58.9803201  51.1919213  31.3888256
  59.5374631  50.9633023  30.7566721  58.6564266  51.9524879  31.1123468
  59.0149611  51.2703050  31.2544753  46.8501910  54.6179410  26.8576852
  46.3028630  53.9480055  26.9757720  47.6394288  54.2509257  26.9220319
  46.8854094  54.4644396  26.8845553  56.6986319  54.2786867  32.3540263
  57.4497645  54.5938543  32.6679817  56.8908895  54.0766038  31.5274185
  56.8377733  54.2954248  32.2783659  55.9186318  52.0978242  14.0088480
  56.2985283  52.1157871  13.2239595  55.1778914  52.5432231  13.8879327
  55.8655156  52.1660016  13.8752048  63.5471609  50.4060433  19.5964059
  63.5465835  50.2509089  20.4548335  63.3427789  51.2523420  19.5405444
  63.5171386  50.5081054  19.7151998  45.6088880  53.8300217  24.0122875
  45.4310641  53.3776826  24.7377791  45.3207902  54.6326379  24.1961353
  45.5401833  53.8822775  24.1466378  61.2712461  55.0857935  23.2500265
  61.7666126  54.3680930  23.2104286  60.4612236  54.7828732  23.1354752
  61.2256354  54.9355581  23.2273991  56.7171072  58.9355748  15.3997270
  55.9082395  58.6122422  15.3530579  57.2245981  58.2288970  15.3325519
  56.6720739  58.7837064  15.3827564  47.3461349  56.3627941  21.1244634
  46.4806869  56.3513632  21.0127405  47.4460165  56.1758164  21.9715773
  47.2335516  56.3334002  21.2333579  63.3364280  57.8361622  25.9377394
  63.7619351  57.3136044  25.3847819  62.9721199  58.4342460  25.4166017
  63.3450882  57.8471849  25.7786404  52.9718359  66.1325840  24.6974740
  53.2864918  66.9462228  24.7052521  53.3811773  65.7476058  25.3656899
  53.0786457  66.1954542  24.7978831  59.9242879  61.5495886  22.2678552
  60.3954057  62.2636149  22.4368537  60.2603058  60.9494637  22.8038421
  60.0437994  61.5667351  22.3710928  62.0119864  63.1597200  34.4470624
  62.1216829  62.3705760  34.8027371  62.3410760  63.0703136  33.6444962
  62.0772269  63.0303053  34.3813014  56.8412374  46.3223357  29.2236646
  56.9740280  45.5254350  29.5517622  57.2257527  46.8489760  29.8034922
  56.9168703  46.2823274  29.3580149  60.5616825  61.3413821  29.0306244
  60.0137771  60.7171704  28.7626310  61.0229854  61.5308093  28.3150324
  60.5484035  61.2772871  28.8856675  59.9144729  43.2453683  25.8217740
  59.1090693  43.1351413  26.1385578  59.7851465  43.3466139  24.9647605
  59.7764862  43.2437353  25.7425780  63.3710690  49.4099175  26.4157437
  62.7873678  49.9108382  26.0035004  63.6914984  48.9028731  25.7821760
  63.3323865  49.4091010  26.2615944  55.9105489  48.3239770  16.6916111
  56.7321183  48.4938083  16.4497806  55.4475140  48.4787031  15.9682409
  55.9636651  48.3721503  16.5487756  54.5000821  46.3182532  27.4714540
  55.0445234  45.9773659  28.0618882  54.5537756  47.1767994  27.6135825
  54.5889940  46.3937791  27.5796414  50.3131379  60.0798948  24.3453348
  50.9176237  60.0394782  23.7167169  50.1058692  60.9270100  24.3757404
  50.3720277  60.1986951  24.2569465  60.1275152  62.3464893  25.5615585
  60.9473525  62.2027859  25.8231881  59.8469229  62.9711092  26.1032023
  60.2071895  62.4175245  25.6803525  45.5482662  59.0633566  24.2152271
  45.4506940  58.2529837  24.5242328  46.3311531  59.0425359  23.8298539
  45.6498798  58.9400656  24.2039134  76.5988802  70.0029745  18.5258462
  76.5682806  70.8574382  18.6976731  77.1970151  69.7025038  19.0844605
  76.6825960  70.0846242  18.6333264  69.7988487  69.0905396  23.2811392
  68.9426382  69.2513894  23.3320509  69.8456141  68.2197460  23.3016453
  69.6787598  68.9856198  23.2917458  64.1829627  78.6268114  19.0448624
  63.4312526  78.2483652  18.8164669  64.6315638  78.6586548  18.2967434
  64.1379293  78.5753721  18.9006126  73.1082203  75.3591922  32.8871848
  73.8148971  74.8643952  33.0158783  73.2970139  75.8001003  32.1574506
  73.2410109  75.3510272  32.7980894  69.6354586  79.0493483  14.4734171
  69.3005955  79.7270405  14.0378393  70.1481457  78.6598795  13.8851043
  69.6620168  79.0918062  14.3220962  69.1758878  81.0007752  20.4145282
  69.5598257  81.5694651  19.8750058  69.1118019  80.2757262  19.9351099
  69.2232305  80.9783216  20.2639145  72.6440308  71.1497440  25.9243044
  73.1896268  71.8282527  25.9837014  72.5857184  71.0084901  25.0644625
  72.7156222  71.2289442  25.8055104  65.7614383  78.6386506  21.3111396
  65.8624746  77.8286860  21.6208524  65.1656128  78.5443452  20.6811075
  65.6886921  78.5051534  21.2637635  74.4205377  72.5782047  16.7976772
  74.3044902  73.3289733  17.2268910  75.2161263  72.3206000  17.0472859
  74.5209966  72.6516894  16.8980863  65.6015122  83.5564095  22.7126252
  66.2452578  83.9977259  23.1022411  65.9271378  82.7517521  22.6256511
  65.7446951  83.5029290  22.7571730  58.9579427  74.6606793  20.9363730
  58.7229611  73.8274445  20.8295999  59.0965068  74.9411458  20.1224931
  58.9435089  74.5790296  20.8006085  61.2569514  66.8292523  23.8348038
  60.6374546  66.2385170  23.6658052  61.1553378  67.4203958  23.2012361
  61.1507190  66.8296606  23.7153027  66.3035702  76.5676070  18.0846114
  66.6251543  77.1081277  17.4807422  66.9507799  75.9972841  18.2168404
  66.4461757  76.5635245  18.0153149  68.3537410  68.5692065  18.1680501
  69.0517575  68.7480193  18.6601964  68.6689743  68.0462404  17.5450890
  68.5032747  68.5185837  18.1482511  60.9838647  70.3744805  26.0791607
  60.8597344  70.9607250  26.7141426  61.6356932  69.8805001  26.3803882
  61.0612297  70.3883609  26.2177536  68.5425345  74.9562510  18.1560292
  68.9818981  74.3479611  18.6015065  68.3930008  74.5769883  17.3845757
  68.5846811  74.8100981  18.1079460  66.0096988  73.5506522  25.3579118
  66.6545991  73.0578965  25.0390066  66.2498766  73.6931308  26.1845196
  66.1407574  73.4983964  25.4328651  68.5483080  76.3961428  25.0086010
  68.8306323  75.6012833  24.7872766  69.2769240  76.8742015  25.0291071
  68.6972644  76.3496025  24.9789025  66.5264274  63.9384462  22.2501775
  66.1967604  64.3895605  21.5805474  65.8509275  63.8600625  22.7974782
  66.3774710  63.9935597  22.2324999  72.1434682  73.3089691  15.1091061
  72.0585977  74.1650658  15.2540630  72.6319065  73.0334015  15.7773221
  72.2023579  73.3947013  15.2293143  73.7340681  59.9269985  20.4951386
  73.4194122  60.6173463  20.9271808  73.2167623  59.8714767  19.7936887
  73.6105152  60.0204873  20.4548335  73.0753115  69.9274486  16.6088797
  72.5464587  70.1434119  17.2686103  73.5978135  70.6210624  16.5289766
  73.0741568  70.0617622  16.6944396  78.5301168  75.5020790  21.9821841
  77.6998871  75.7131434  22.1455258  78.4810420  74.6757845  21.7064125
  78.4007904  75.4110396  21.9659207  64.9652723  73.8237702  15.4096265
  64.3809938  74.3287734  15.8162129  64.5622818  73.5980089  14.6692857
  64.8192027  73.8645951  15.3601290  60.5196752  79.5392463  22.2119936
  60.0364330  80.2642953  22.1879520  61.3320070  79.8368593  22.3230094
  60.5687499  79.6894817  22.2247215  66.5910906  78.3324644  24.8169751
  66.0737847  77.9732059  24.2131059  67.2885297  77.8086819  24.8275817
  66.6176487  78.2022332  24.7300009  70.2474498  78.7819458  30.7785924
  70.3357844  78.5945599  31.6264134  70.6764210  78.1356888  30.3790770
  70.3236600  78.6582466  30.8457675  67.8144957  78.0650618  29.7603586
  67.2515792  77.6523228  30.2843247  68.5765981  77.9903524  30.1796729
  67.8439406  77.9928019  29.8996586  69.4229937  70.0703354  13.8865185
  69.6625941  70.2781338  13.0740528  69.7445778  69.2660863  13.9954130
  69.5067095  69.9817456  13.7825738  64.7320228  61.9996750  17.7324723
  65.4866196  62.3675067  17.4941773  64.5547762  62.3736304  18.5003903
  64.8174706  62.1094938  17.8109612  63.3740949  80.0548639  22.3640216
  64.0761528  79.5400628  22.4212973  63.2938432  80.3822791  23.1687091
  63.4664709  80.0262866  22.4913008  78.0255126  68.1491191  25.7772262
  77.1883548  68.2193378  26.0119857  77.9943357  68.1515685  24.9046565
  77.8973409  68.1601418  25.6831810  64.4219856  70.2924226  31.4920631
  64.5940359  70.1830121  32.3405912  64.9589213  70.9378632  31.2551823
  64.5264859  70.3716228  31.5825728  63.0877292  64.4067069  14.4302836
  62.9052866  64.6238950  13.6043829  63.9502905  64.5206082  14.4861451
  63.1881882  64.4556967  14.3157323  62.6991724  76.2454991  21.8725824
  63.5380624  76.4777924  21.9199586  62.7303494  75.3759303  21.8032859
  62.8273442  76.1511938  21.8690469  63.3244427  76.6655867  26.1739130
  63.8642652  76.5226998  26.8442502  62.6414374  77.0652617  26.5423156
  63.3036581  76.7035537  26.3273551  68.7677012  61.4093480  17.4651860
  69.4963172  61.2309435  17.0190016  68.8571905  62.2511560  17.6759038
  68.8883674  61.5077358  17.4305378  72.7485312  72.3446867  21.3684154
  73.5042827  72.7778381  21.4073063  72.8547637  71.6951637  21.9418790
  72.8755483  72.3124351  21.4582180  75.7865483  76.1720144  22.1186557
  75.3500715  76.1756887  22.8745528  75.4528399  76.8525643  21.6866134
  75.6728103  76.2732600  22.1667389  70.3594557  78.2128477  33.4429707
  71.1434974  78.3259325  33.8085449  70.1591152  77.3869614  33.6388393
  70.4460582  78.1075197  33.5264093  58.7281572  72.8856157  26.3273551
  58.4619988  72.0695274  26.4864541  58.7420137  72.9309313  25.4569067
  58.6906295  72.7713062  26.2227033  75.7062966  63.2133972  24.3615985
  76.3488875  63.2832077  24.9477900  75.9585987  62.5463195  23.8595527
  75.8385098  63.1260321  24.3743264  62.6339319  67.6841242  12.9425309
  61.9197497  67.3979421  13.3547742  63.1183288  68.0237868  13.5831697
  62.5998683  67.6922891  13.0980944  63.4780179  66.4234536  28.9740559
  62.7851976  65.9531515  29.2201290  64.0940506  66.1972840  29.5482266
  63.4664709  66.3201667  29.0949711  70.5164950  80.1238579  27.0896163
  69.7180196  79.8838079  27.3470031  70.9650962  80.1752972  27.8363210
  70.4639562  80.0960970  27.2381087  78.9209830  72.8901064  21.0106194
  79.5826264  72.3291733  20.9102103  78.2801242  72.3953095  21.3358885
  78.9238697  72.7337473  21.0438534  69.8086637  76.1871196  13.3187117
  70.2237786  75.8556220  12.6271613  68.9778567  75.9540098  13.1907254
  69.7474646  76.1042452  13.1977965  59.1374986  73.6714937  23.6085295
  58.9550559  73.6461823  22.7557588  59.8724655  74.1413875  23.6474204
  59.2189050  73.7376299  23.4883214  75.2074660  73.9066447  20.7518183
  75.4430249  74.0511646  19.9245034  75.3564224  74.6708855  21.1449697
  75.2640464  74.0405501  20.6881787  62.2020738  70.3899940  30.1167404
  62.9260710  70.3752970  30.6032299  62.3036874  71.0995295  29.6189372
  62.3238947  70.4924643  30.1146191  77.0365117  72.7468113  18.5887787
  77.3673334  73.2795753  17.9827882  77.6098205  72.8007000  19.2449738
  77.1698796  72.8337681  18.5965568  69.5765687  73.8699024  34.9816351
  68.7838668  74.1842536  35.1668971  69.6914614  74.0850493  34.1437136
  69.4761098  73.9482861  34.8854686  72.2497006  70.5933015  19.2711367
  72.3443861  71.3322309  19.7250992  71.6255850  70.1650491  19.7045931
  72.1706036  70.6394336  19.4019514  70.5049480  73.7719228  29.9201648
  71.0788342  73.1346472  30.0750212  70.4264284  73.7723310  29.0511305
  70.5782715  73.6784339  29.8148059  59.1045896  70.5508437  23.7584362
  59.6819399  70.4144888  24.3976607  58.4059958  70.0944222  24.0129946
  59.0866918  70.4630704  23.8906652  72.5020027  72.4381755  12.5048319
  72.4200190  72.5083942  13.3703306  73.1399748  73.0011499  12.3132059
  72.5839865  72.5320726  12.6038268  65.8613199  72.2042493  21.9722845
  65.6032443  71.3714228  21.9454145  65.9161681  72.4300106  21.1315346
  65.8312976  72.1140264  21.8442982  70.9414249  64.3070944  22.0726938
  70.2370576  63.8180129  22.2310857  70.9899223  64.3193418  21.2015382
  70.8444300  64.2360592  21.9666278  64.8347911  69.7580256  22.4587740
  64.2597502  69.9172424  23.0951701  64.4583587  69.1215665  21.9956190
  64.6950723  69.6878068  22.4842298  68.5021199  68.2303605  27.3180118
  68.1135632  67.8057823  26.6632310  67.8375898  68.4785754  27.8257145
  68.3468127  68.2042326  27.2967986  78.1444469  67.9878609  20.0927948
  77.8881033  67.1758551  19.9025831  78.9873783  67.9956177  19.8658136
  78.2310494  67.8690607  20.0312765  54.5804730  69.4020330  20.4732181
  54.6664981  69.0252199  21.2545710  55.2080527  69.0280776  19.9952139
  54.6861281  69.2905812  20.5177658  72.3247561  61.9278234  24.8304103
  72.7058073  61.2456405  25.2171977  71.5210845  61.6387836  24.6479767
  72.2624023  61.7845282  24.8608158  69.6060138  72.4602209  15.5156925
  70.4200777  72.7517102  15.4039697  69.5419279  71.8062072  14.9415218
  69.7162877  72.4067404  15.4145763  75.8269628  75.1428206  29.9286501
  75.5908265  74.3116270  29.8098562  76.4712857  75.0913813  30.5141345
  75.8864299  75.0125893  29.9972395  65.4768046  75.9323727  20.6429237
  66.1141993  75.6935474  21.1881031  65.9023118  76.1360886  19.9082398
  65.6344212  75.9274737  20.6146395  60.1680688  78.1712063  24.5263541
  60.2084834  78.4426914  23.6983321  60.7275212  78.6953971  24.9421329
  60.2564034  78.2887818  24.4655429  66.1170861  71.1526017  14.9804127
  66.5016014  70.9333723  15.7320672  65.8682481  71.9788962  15.1105203
  66.1372934  71.2424163  15.1105203  66.2839401  64.4332432  34.6966711
  65.9692842  65.2031995  34.4336274  65.9629334  63.8702688  34.1118938
  66.1898320  64.4642701  34.5708061  76.8506048  74.9272654  25.9914795
  76.5451866  75.6600711  26.3528111  76.1312264  74.5210584  25.7107581
  76.6993391  74.9754387  26.0027933  67.8589518  76.4096149  22.3223024
  67.9328526  76.2471321  23.1764874  68.6759024  76.5986339  22.0783505
  67.9905877  76.4132892  22.4121049  82.5507841  71.5665655  25.3183140
  82.4832341  71.5861614  24.4485726  82.5363503  72.4095982  25.5438810
  82.5386597  71.6939390  25.2235617  61.6195275  76.7554012  19.3517467
  60.7933392  77.0015749  19.2251746  61.6807266  76.6766093  20.2179525
  61.5069442  76.7798961  19.4606412  63.8371298  62.8222953  20.3112907
  62.9693724  62.8945553  20.3770517  64.1246503  63.6245032  20.5000882
  63.7511046  62.9517100  20.3487674  72.9604187  62.9700813  28.6424229
  73.7057779  62.7810623  28.2287655  72.5441492  63.4959051  28.0838085
  73.0089161  63.0202958  28.4988802  66.3994104  79.3730893  17.0536497
  66.6892402  78.9819874  16.3295724  67.1297584  79.5547597  17.4941772
  66.5500988  79.3424706  17.0119304  80.3366458  70.3410041  23.5929734
  80.8874380  69.7078110  23.8326826  80.3210573  70.8725434  24.2845238
  80.4151654  70.3258989  23.7308592  66.9888849  74.1748638  28.1389628
  66.4900542  74.8864406  28.2174516  67.7989073  74.4949305  28.1007790
  67.0344956  74.3275487  28.1446196  64.3400019  81.3498275  20.1196647
  64.1200315  81.0595630  20.9123314  64.1194541  80.6913230  19.5914559
  64.2747613  81.2097983  20.1585555  63.2516966  73.4371591  22.3852348
  62.9630215  72.8109063  22.9198076  64.1200314  73.3791879  22.4517029
  63.3377218  73.3359136  22.4743303  74.0394864  68.5806375  22.7034330
  73.6959630  67.8596710  23.0541580  74.1387907  68.3720226  21.8612689
  74.0036907  68.4430578  22.6306010  66.5067975  82.7227665  18.9027339
  67.1592033  82.1904107  19.1318365  65.8093584  82.3696317  19.2895213
  66.4998693  82.5917188  18.9939507  63.4549240  75.0766843  18.3094713
  64.2095208  75.4579882  18.5230176  62.8619852  75.5277986  18.7641410
  63.4785953  75.1995670  18.4077592  74.5007893  75.0432079  18.2458318
  75.0665926  75.7025289  18.1616861  73.8535797  75.3881777  18.7174721
  74.4886650  75.1914020  18.3031075  65.9155907  67.0329683  33.4351926
  65.1055683  67.3387463  33.3241768  66.3930594  67.7535265  33.5504510
  65.8659386  67.1844284  33.4358997  64.7747466  76.2475404  23.6834829
  64.2528220  76.3875696  24.3686694  65.1621487  75.4886068  23.8736946
  64.7551167  76.1560928  23.8135905  61.7638650  66.2981213  17.7529784
  61.4763446  65.9282483  17.0161731  62.4509119  66.7676068  17.4913488
  61.8227548  66.3128182  17.6044859  70.9714471  77.9870863  17.6695398
  70.7301147  77.2538724  17.2622463  71.1515804  78.5357720  17.0161731
  70.9622095  77.9593254  17.5125621  66.2013792  73.2779423  19.0816320
  66.0056575  73.8854157  18.4876623  66.4248138  72.5847367  18.6007994
  66.2048433  73.2656948  18.9232401  64.5992322  70.1634161  19.1997188
  65.3214974  70.3275319  18.7400994  64.1200315  70.8843826  19.0936528
  64.6356053  70.2932390  19.1162802  72.5585830  66.4997960  24.5793873
  71.7196930  66.5259238  24.3432136  72.6290197  67.1468695  25.1599220
  72.4454223  66.5994085  24.6302990  62.2499939  72.5692233  28.3051328
  62.7621036  72.8476486  27.6560088  61.9636281  73.3081527  28.6714141
  62.2834802  72.7194587  28.2641206  71.0055108  63.3983337  19.3121489
  71.7081461  63.1991085  18.8341447  70.7399297  62.6259279  19.6190333
  71.0701740  63.2546303  19.2866931  76.4343353  71.7065946  21.8655115
  76.3477328  71.8621372  22.7189894  75.9793833  72.3504022  21.4914520
  76.3546610  71.8241701  21.9362222  59.3366845  67.0762425  18.6015065
  59.4382981  67.8788586  18.9296040  60.1322732  66.8749761  18.3038145
  59.4694751  67.1648324  18.6050420  65.7683664  64.6618622  28.3652370
  65.5766861  64.6773756  29.2151793  66.6182260  64.8582296  28.3419025
  65.8659386  64.6932973  28.4875664  60.1530577  67.1909603  26.3436186
  60.0116069  66.3393544  26.4680694  60.4371141  67.2338264  25.5198392
  60.1738423  67.0709353  26.2403810  70.3069169  69.0276693  20.4880674
  70.0603884  68.9472444  21.3217463  70.6354293  68.2430161  20.2943202
  70.3190413  68.9002959  20.5828198  74.2017218  75.7360053  24.2767456
  74.0631578  76.4341099  24.7816198  73.4217216  75.5808709  23.9203637
  74.0660445  75.8160219  24.2993730  72.5395303  72.0356428  30.5289837
  72.5343342  71.1636245  30.5332264  73.2456297  72.2344597  30.0559293
  72.6440307  71.9360302  30.4596873  66.2666197  71.7633412  29.9003658
  66.4109572  72.3434620  29.2646768  66.6141845  72.1409709  30.6053512
  66.3393658  71.9054116  29.9102652  68.4386114  70.9623580  27.6828789
  67.6909428  71.1554595  27.2777067  68.5927639  70.1368800  27.4452910
  68.3508542  70.8688692  27.5874195  65.3393952  79.9536184  26.7664684
  65.4883515  79.3939100  26.1138089  66.1193954  80.0328186  27.1497203
  65.4768045  79.8821749  26.7261634  75.6970591  75.0938307  15.0383955
  75.3177400  74.3075445  15.0313244  75.0336837  75.6425164  14.8955599
  75.5429066  75.0583131  15.0164752  67.8647252  80.1250827  28.0449175
  67.7890923  79.4559637  28.5999963  67.7937112  80.8268615  28.5589841
  67.8427859  80.1295734  28.2026023  68.6787891  64.8574131  28.5724193
  69.1360505  65.5898105  28.6996985  68.7544220  64.4340596  29.3311449
  68.7578861  64.9031369  28.7025269  60.9220882  65.1039951  29.6613637
  60.3863072  64.4920309  29.9774404  60.9838647  65.6788087  30.3147303
  60.8516515  65.0986879  29.8049063  73.1515217  58.0364006  22.4418036
  73.2698785  58.4940470  21.7085338  72.9777393  57.2309268  22.1554253
  73.1434388  57.9857778  22.2918969  68.5217499  78.6451826  18.8772781
  69.2867390  78.3761469  18.5555445  68.4195589  78.1601836  19.5942844
  68.6198995  78.5341390  18.9352609  66.5570269  66.8476235  25.4166017
  65.7666344  66.6667695  25.7383353  66.9530892  66.0703188  25.3996311
  66.4987145  66.7063696  25.4618565  71.0436160  75.6764009  10.8572730
  71.8109145  75.7364134  10.4478582  70.5967469  75.1044451  10.3729049
  71.0909587  75.6000585  10.7250441  71.9413955  74.4818665  23.1425463
  71.2658957  74.2503897  23.6438850  71.9506331  73.8739848  22.5167568
  71.8432460  74.3577590  23.1241615  69.0708099  69.3236494  29.8989516
  69.0067241  70.1846451  29.7709652  69.2105287  69.0068487  29.0985067
  69.0823569  69.4036661  29.7617729  73.9430690  77.3383798  15.3735641
  74.0250527  78.1450784  15.0497092  74.4280432  77.3579757  16.0976414
  74.0267848  77.4604460  15.4322539  67.7527193  72.0168634  24.0405719
  67.3289442  72.2173133  23.3044737  67.5772048  71.1697482  24.1530019
  67.6638074  71.9217415  23.9479409  67.2538887  83.5319147  26.5027176
  67.7434817  82.8329936  26.3202841  66.6823119  83.2343017  27.0903233
  67.2423417  83.3845370  26.5628217  63.0409638  72.5120685  19.4733691
  63.1974257  72.4467488  20.3289683  63.3810231  73.2869238  19.2612371
  63.1142873  72.6169883  19.5688285  69.5788783  71.8878569  18.3427054
  70.1204328  71.3848950  18.8065675  69.8935342  71.8343763  17.5316540
  69.7053180  71.8057989  18.2910867  73.4505890  76.0981216  35.4553967
  74.2640756  75.8266365  35.6159099  73.2900857  75.7988756  34.6514163
  73.5475839  76.0136142  35.3599373  67.7475233  77.2795920  15.6267082
  67.8168053  76.4210459  15.7660083  68.5263688  77.4967801  15.2986107
  67.8728083  77.1848784  15.5984240  70.7278052  66.7814873  28.3949355
  70.9420022  66.1425787  27.8412709  70.1111951  67.2260697  27.9657217
  70.6683381  66.7525017  28.2499786  72.1382720  79.7033621  19.8403576
  71.7462512  79.4000337  19.1226442  72.2935792  80.5402711  19.6508530
  72.1036310  79.7817458  19.7060073  59.6143900  69.6955635  19.7894458
  59.9942865  70.1140180  19.1254726  59.0399264  70.2769091  20.0963302
  59.5855225  69.8433494  19.7371199  72.8917140  68.3903938  29.3332662
  72.0793822  68.0829829  29.4145835  73.3507075  67.9102938  29.8975374
  72.8397525  68.2740431  29.4287256  72.3022395  76.2683610  19.7809606
  71.9437050  76.4398253  20.5573639  71.8161106  76.7296816  19.2237605
  72.1781092  76.3622581  19.8134875  70.1192781  59.8914809  23.3836698
  69.2486339  59.8653530  23.3370007  70.3733122  59.7192001  22.5662543
  70.0286341  59.8624952  23.2556834  67.0910760  71.9482776  12.3209841
  67.3803285  72.7247658  12.5953415  67.1782559  71.4371507  13.0224340
  67.1465017  71.9874694  12.4652339  69.9870648  69.7964010  34.1161364
  70.4570279  70.4206126  34.5029238  70.0332528  69.1280985  34.6754579
  70.0638524  69.7898690  34.2561436  67.1441921  61.9021037  24.8410168
  66.6280410  61.2101229  24.9661747  66.5835850  62.5691814  24.7872767
  66.9848435  61.8984295  24.8516234  69.2134155  62.4413997  26.6703021
  68.8265908  62.4663029  27.4516551  68.7267092  61.8755676  26.2177537
  69.0846664  62.3609748  26.7190924  73.4627134  77.1587506  30.7276807
  74.1006855  76.6647702  30.3939263  72.8201226  77.0864907  30.1429034
  73.4621361  77.0746515  30.5919162  75.1884134  69.0076652  25.2942723
  74.7611742  68.9203001  24.5390822  74.5510187  69.1154428  25.8797567
  75.0313742  69.0109312  25.2688164  68.8791297  59.3280983  28.9613281
  69.5084414  59.8641283  28.6834351  69.0477159  59.2358342  29.8126846
  68.9969091  59.3942345  29.0461809  68.6805211  64.1152177  31.2339692
  69.5078641  63.8437326  31.2898307  68.7013057  64.9113019  31.5903510
  68.8058061  64.1931932  31.2954875  73.5181391  77.8507314  27.3682164
  74.3073769  77.4996379  27.4884246  73.6924989  78.6643703  27.1058798
  73.6601672  77.9193172  27.3470032  63.2574701  71.2616040  24.4209953
  62.4162708  71.1619914  24.6288847  63.4664709  72.0311520  24.7724273
  63.1639394  71.3608084  24.5037268  60.7350268  68.8835577  22.2494703
  60.3406966  68.9578589  21.4744813  60.1790385  69.2693524  22.8003065
  60.5953081  68.9517352  22.2162363  72.3715215  61.8616871  21.9298582
  72.5764808  61.7939179  22.7755580  72.0441639  62.6675692  21.8619760
  72.3530463  61.9702812  22.0458238  67.0691366  69.1897439  23.6707550
  66.7654504  68.6353428  24.2717958  66.3670787  69.3689649  23.1835585
  66.9207576  69.1342222  23.6877256  66.1257463  66.4997959  18.2352252
  66.4017198  65.7816872  17.8229820  66.7256133  67.0982879  18.0273358
  66.2550728  66.4818330  18.1433013  65.1309717  76.4047160  28.3779648
  65.0230072  76.4149222  29.2441706  65.3405499  77.2301941  28.1884602
  65.1459828  76.5288235  28.4783740  75.6248903  62.4148635  21.4101348
  75.0123216  62.9019038  21.7955080  75.7213078  61.7392126  21.9538999
  75.5486800  62.3866944  21.5480206  69.6267984  64.1711477  16.5098847
  70.0811730  64.3422037  17.2346692  70.1008029  63.5579587  16.1096623
  69.7636304  64.1062362  16.5572609  63.1483509  73.6559803  25.8401586
  62.5571442  74.2969301  25.8104601  63.9104533  74.0797420  25.8132885
  63.1731770  73.8135641  25.8316733  63.5444132  64.8161800  26.5069603
  64.0045613  64.8900730  27.2444727  63.5900239  65.6143054  26.1569425
  63.6194687  64.9455947  26.5642360  65.1927482  65.4828495  31.0741630
  64.8013047  64.8361842  31.5097408  65.3613344  66.0739930  31.6935886
  65.1598392  65.4742763  31.2304336  79.2673931  73.4865572  26.8378864
  79.3257054  73.9352221  27.5838840  78.6340398  73.8964385  26.4008944
  79.1825226  73.6139307  26.8831412  72.9073025  79.1069114  23.2733610
  72.7092714  79.5959929  22.5789821  72.2860736  79.3110356  23.8517744
  72.7860590  79.2085652  23.2556833  66.9681004  70.8754011  17.6143854
  67.7123049  71.2628287  17.8526804  67.1141700  70.0311436  17.7784342
  67.0991589  70.8084484  17.6737824  68.8860579  62.6704270  22.6475716
  68.0396624  62.8427078  22.5217066  68.8831712  61.8653614  22.9841544
  68.7607729  62.5765299  22.6786843  69.9558880  66.4479484  23.5137774
  69.4818834  65.9221246  24.0243085  70.3277015  65.9008957  22.9452635
  69.9408769  66.2895481  23.5052921  60.3331910  68.4450991  28.8821320
  61.1957523  68.3446700  28.7958649  60.0023693  67.8645700  28.3206892
  60.4117106  68.3442618  28.7866725  76.2195610  71.5081860  24.9244554
  75.9793833  70.6688275  24.9286981  76.6987617  71.5882027  25.6485328
  76.2547794  71.3963260  25.0319357  71.8842379  67.3416039  16.5763528
  71.3565398  67.4244783  15.8869236  72.3438087  68.0833910  16.5728172
  71.8744230  67.4636701  16.4738223  78.2200797  68.2883317  22.8773813
  77.9810567  68.2479151  22.0394598  78.3834698  69.1354469  23.0039534
  78.2091101  68.4075402  22.7727295  74.8246827  72.6733266  28.8078859
  75.5481026  72.2205793  28.6289878  74.5596790  72.9537932  28.0251186
  74.8928101  72.6484235  28.6657574  63.6933696  67.2693440  25.5431738
  63.0686766  67.2811832  24.9357690  63.3579291  67.7453615  26.1922978
  63.5519188  67.3411957  25.5488306  63.8775444  65.6118558  11.6004423
  63.5288249  66.2638284  12.0635972  63.3971890  65.5975671  10.8728294
  63.7545688  65.7061612  11.5615514  60.4059371  75.3293900  26.9835502
  59.8759296  74.6386339  27.0330477  60.6784465  75.3204085  26.1548211
  60.3684094  75.2261032  26.8682918  71.4379462  75.9119602  15.7073185
  72.1613661  76.3777715  15.5637758  70.9980053  75.9793212  14.9570782
  71.4795154  75.9903439  15.5757966  70.6065617  72.7717145  26.9573874
  69.9922610  72.2275195  27.2522509  71.1232902  72.2581381  26.4779690
  70.5921279  72.6153554  26.9298102  69.8461914  73.8421415  24.6918172
  69.4189522  73.2171133  24.2583608  69.8386858  73.5596337  25.5177179
  69.7821055  73.7074195  24.7498000  62.9624441  68.8786588  27.7606606
  63.1217928  68.1229912  28.1658328  62.7817335  69.4277527  28.4147344
  62.9589800  68.8480401  27.9169312  70.9044744  61.0447823  28.3157396
  70.4085305  61.2411498  27.6248962  71.6613806  61.4440492  28.1446197
  70.9431569  61.1325557  28.1877532  68.1747624  64.7190169  24.9060706
  68.1990111  64.1850282  24.2173486  68.4259097  64.2107478  25.5686297
  68.2157542  64.5651073  24.9025351  55.6855213  72.0021664  24.3403850
  55.5798663  71.9568509  23.4755934  54.9355433  72.3475445  24.6218135
  55.5590816  72.0462572  24.2541180  64.4548946  63.4460987  24.2866451
  64.4947317  63.9470194  25.0001158  63.6298611  63.5371381  24.0172374
  64.3388472  63.5342804  24.3516989  66.6378559  73.0121727  32.3886745
  65.7874189  73.1493442  32.5244390  66.8006686  72.2785506  32.8334447
  66.5362422  72.9235829  32.4742344  65.8763309  69.9621497  26.5840350
  65.0455239  70.1295315  26.3775598  65.8214826  69.5857448  27.3689235
  65.7452724  69.9311229  26.6688878  63.6847093  63.4530390  32.2196760
  64.3099796  62.9092523  32.4926193  63.2297572  62.9725308  31.6504551
  63.7095353  63.3019872  32.1758354  64.2499353  68.2377089  17.1130467
  64.3902314  68.7349553  17.8159109  64.7481886  67.5363383  17.2544681
  64.3440434  68.2079068  17.2382046  64.2799575  69.1044200  14.4423044
  64.9144655  69.7004625  14.3772506  64.3625186  68.8047657  15.2568914
  64.3856126  69.1485108  14.5526131  77.2582141  71.6359677  27.3109408
  77.8499982  72.2756928  27.3427606  77.6941136  70.9382714  27.6001475
  77.4100572  71.6278028  27.3590241  65.8578558  65.0358175  14.4168486
  66.1794399  64.5561258  13.7627748  66.1205502  65.8457821  14.2259298
  65.9444584  65.0848073  14.2923978  69.0875531  76.0577050  27.9367302
  68.5800622  76.6112896  28.3807933  68.7902177  76.1185339  27.1186077
  68.9680416  76.1483361  27.8815759  71.2537713  64.4230369  26.7791965
  71.6792785  63.9702896  26.1675492  70.6394706  63.8690440  27.0556753
  71.2266359  64.2744345  26.7296990  60.7852563  71.3012041  17.7112590
  61.2944793  71.8976548  18.0923896  61.2586836  71.0338014  17.0289010
  60.9295939  71.3497856  17.6667113  71.6983311  79.9740307  15.8671246
  70.9812621  79.8001170  15.4018483  72.3490049  79.7392880  15.3346732
  71.6885162  79.9136100  15.7200464  69.6931936  60.8945469  20.1882542
  69.0500254  60.7443115  20.7567681  69.3531343  60.6487814  19.4231647
  69.5477013  60.8357591  20.1585557  74.2831283  68.8504896  19.6112551
  73.6122473  69.3934598  19.4825616  74.9771033  69.3199751  19.3694246
  74.2860150  69.0003167  19.5568079  68.3318016  80.9901608  24.8424309
  68.1083671  80.2320437  25.2108335  67.8427860  81.0199629  24.1204749
  68.2261465  80.8823832  24.7901050  74.4459410  65.3060779  22.5202924
  74.7987020  64.8790502  23.1948723  73.5874212  65.2211623  22.6504000
  74.3708855  65.2305520  22.6397934  63.1443095  67.9368299  20.5785771
  62.4255084  68.3532432  20.8458634  63.5155457  68.5022538  20.0277409
  63.0935027  68.0817581  20.5368578  72.4442676  68.5696148  26.4687766
  72.4240603  68.3879443  27.3222545  72.4921877  69.4408167  26.4447350
  72.4477317  68.6712686  26.5911061  70.3889006  75.1583340  32.3936243
  70.3484861  74.5133017  31.8081399  71.2012324  75.1019957  32.7061655
  70.5032159  75.0542307  32.3533192  66.9796473  81.2102066  22.2961394
  66.5656872  80.5476196  21.9065235  67.6643848  81.3579925  21.7757088
  67.0194845  81.1342724  22.1617891  70.3461767  80.3692151  23.0485010
  69.9478051  80.4794422  22.2805831  69.7312987  80.5774218  23.6311570
  70.1960657  80.4165719  23.0216310  68.9189669  66.9766299  15.9159150
  68.3254509  67.2983296  15.3643717  68.9564947  66.1307394  15.7080256
  68.8364059  66.8990627  15.8041921  75.8783470  60.4279191  23.4487236
  75.3714335  59.7208331  23.3808414  76.6750904  60.0972380  23.5788313
  75.9210709  60.2752343  23.4586231  71.7947486  66.9345804  19.3460900
  71.5661179  66.9578505  18.5039258  72.0545562  66.1103271  19.4655911
  71.7993674  66.8161883  19.2386098  66.0766714  68.7880277  28.9486000
  65.5645618  68.1801460  29.3071032  65.9046211  69.5036869  29.4159976
  65.9756351  68.8043576  29.0702224  60.9232429  67.2317852  31.5988362
  60.7535019  67.8919227  31.0536569  60.4798379  67.4424413  32.3200851
  60.8331763  67.3603834  31.6249992  64.8492249  65.4722350  20.6415096
  65.3249615  65.8339430  20.0065277  64.3480848  66.1278817  20.9215239
  64.8457608  65.6216539  20.5891837  78.0803610  74.9444118  16.4328101
  78.4637216  75.6935474  16.6626198  77.2847723  75.1909938  16.1740090
  78.0197392  75.0913812  16.4285674  69.9535785  66.7104521  31.3888256
  70.5107215  66.4818331  30.7566721  69.6296850  67.4710187  31.1123468
  69.9882195  66.7888358  31.2544753  57.8234494  70.1364717  26.8576852
  57.2761213  69.4665363  26.9757720  58.6126872  69.7694565  26.9220319
  57.8586677  69.9829704  26.8845553  67.6718902  69.7972175  32.3540263
  68.4230229  70.1123851  32.6679817  67.8641479  69.5951345  31.5274185
  67.8110316  69.8139556  32.2783659  66.8918902  67.6163550  14.0088480
  67.2717867  67.6343179  13.2239595  66.1511498  68.0617538  13.8879327
  66.8387739  67.6845324  13.8752048  74.5204192  65.9245741  19.5964059
  74.5198419  65.7694397  20.4548335  74.3160372  66.7708728  19.5405444
  74.4903970  66.0266362  19.7151998  56.5821463  69.3485525  24.0122875
  56.4043224  68.8962134  24.7377791  56.2940485  70.1511687  24.1961353
  56.5134416  69.4008083  24.1466378  72.2445044  70.6043243  23.2500265
  72.7398710  69.8866238  23.2104286  71.4344820  70.3014040  23.1354752
  72.1988938  70.4540889  23.2273991  67.6903656  74.4541056  15.3997270
  66.8814979  74.1307729  15.3530579  68.1978565  73.7474278  15.3325519
  67.6453323  74.3022372  15.3827564  58.3193933  71.8813249  21.1244634
  57.4539453  71.8698939  21.0127405  58.4192749  71.6943472  21.9715773
  58.2068100  71.8519310  21.2333579  74.3096863  73.3546930  25.9377394
  74.7351935  72.8321352  25.3847819  73.9453783  73.9527768  25.4166017
  74.3183466  73.3657157  25.7786404  63.9450943  81.6511148  24.6974740
  64.2597502  82.4647536  24.7052521  64.3544356  81.2661366  25.3656899
  64.0519041  81.7139850  24.7978831  70.8975463  77.0681194  22.2678552
  71.3686641  77.7821457  22.4368537  71.2335641  76.4679945  22.8038421
  71.0170578  77.0852659  22.3710928  72.9852447  78.6782508  34.4470624
  73.0949413  77.8891068  34.8027371  73.3143344  78.5888444  33.6444962
  73.0504853  78.5488361  34.3813014  67.8144958  61.8408665  29.2236646
  67.9472863  61.0439658  29.5517622  68.1990110  62.3675068  29.8034922
  67.8901286  61.8008582  29.3580149  71.5349409  76.8599129  29.0306244
  70.9870355  76.2357012  28.7626310  71.9962438  77.0493401  28.3150324
  71.5216618  76.7958179  28.8856675  70.8877313  58.7638991  25.8217740
  70.0823276  58.6536721  26.1385578  70.7584048  58.8651447  24.9647605
  70.7497446  58.7622661  25.7425780  74.3443273  64.9284483  26.4157437
  73.7606262  65.4293690  26.0035004  74.6647567  64.4214039  25.7821760
  74.3056449  64.9276318  26.2615944  66.8838072  63.8425078  16.6916111
  67.7053767  64.0123391  16.4497806  66.4207723  63.9972339  15.9682409
  66.9369235  63.8906811  16.5487756  65.4733404  61.8367840  27.4714540
  66.0177817  61.4958967  28.0618882  65.5270340  62.6953302  27.6135825
  65.5622524  61.9123099  27.5796414  61.2863963  75.5984256  24.3453348
  61.8908820  75.5580090  23.7167169  61.0791276  76.4455408  24.3757404
  61.3452860  75.7172259  24.2569465  71.1007735  77.8650201  25.5615585
  71.9206109  77.7213167  25.8231881  70.8201813  78.4896400  26.1032023
  71.1804479  77.9360553  25.6803525  56.5215245  74.5818874  24.2152271
  56.4239523  73.7715145  24.5242328  57.3044115  74.5610667  23.8298539
  56.6231382  74.4585964  24.2039134  87.5721386  85.5215053  18.5258462
  87.5415390  86.3759690  18.6976731  88.1702734  85.2210346  19.0844605
  87.6558543  85.6031550  18.6333264  80.7721070  84.6090704  23.2811392
  79.9158966  84.7699202  23.3320509  80.8188724  83.7382768  23.3016453
  80.6520182  84.5041506  23.2917458  75.1562210  94.1453422  19.0448624
  74.4045110  93.7668960  18.8164669  75.6048222  94.1771855  18.2967434
  75.1111877  94.0939029  18.9006126  84.0814787  90.8777230  32.8871848
  84.7881554  90.3829260  33.0158783  84.2702722  91.3186311  32.1574506
  84.2142693  90.8695580  32.7980894  80.6087170  94.5678791  14.4734171
  80.2738538  95.2455713  14.0378393  81.1214040  94.1784103  13.8851043
  80.6352751  94.6103370  14.3220962  80.1491461  96.5193060  20.4145282
  80.5330841  97.0879959  19.8750058  80.0850603  95.7942570  19.9351099
  80.1964889  96.4968523  20.2639145  83.6172891  86.6682748  25.9243044
  84.1628851  87.3467834  25.9837014  83.5589768  86.5270209  25.0644625
  83.6888806  86.7474750  25.8055104  76.7346966  94.1571814  21.3111396
  76.8357329  93.3472168  21.6208524  76.1388712  94.0628760  20.6811075
  76.6619505  94.0236842  21.2637635  85.3937960  88.0967355  16.7976772
  85.2777486  88.8475041  17.2268910  86.1893847  87.8391308  17.0472859
  85.4942550  88.1702202  16.8980863  76.5747706  99.0749403  22.7126252
  77.2185161  99.5162567  23.1022411  76.9003961  98.2702829  22.6256511
  76.7179535  99.0214598  22.7571730  69.9312011  90.1792101  20.9363730
  69.6962195  89.3459753  20.8295999  70.0697651  90.4596766  20.1224931
  69.9167673  90.0975604  20.8006085  72.2302098  82.3477831  23.8348038
  71.6107130  81.7570478  23.6658052  72.1285962  82.9389266  23.2012361
  72.1239774  82.3481914  23.7153027  77.2768286  92.0861378  18.0846114
  77.5984127  92.6266585  17.4807422  77.9240382  91.5158149  18.2168404
  77.4194341  92.0820553  18.0153149  79.3269994  84.0877373  18.1680501
  80.0250158  84.2665500  18.6601964  79.6422326  83.5647712  17.5450890
  79.4765331  84.0371145  18.1482511  71.9571231  85.8930113  26.0791607
  71.8329928  86.4792558  26.7141426  72.6089516  85.3990309  26.3803882
  72.0344880  85.9068917  26.2177536  79.5157929  90.4747818  18.1560292
  79.9551565  89.8664918  18.6015065  79.3662592  90.0955191  17.3845757
  79.5579395  90.3286289  18.1079460  76.9829572  89.0691830  25.3579118
  77.6278575  88.5764273  25.0390066  77.2231349  89.2116616  26.1845196
  77.1140157  89.0169272  25.4328651  79.5215663  91.9146736  25.0086010
  79.8038906  91.1198141  24.7872766  80.2501824  92.3927323  25.0291071
  79.6705227  91.8681333  24.9789025  77.4996857  79.4569770  22.2501775
  77.1700187  79.9080913  21.5805474  76.8241859  79.3785933  22.7974782
  77.3507294  79.5120905  22.2324999  83.1167266  88.8274999  15.1091061
  83.0318561  89.6835966  15.2540630  83.6051649  88.5519323  15.7773221
  83.1756163  88.9132321  15.2293143  84.7073265  75.4455292  20.4951386
  84.3926706  76.1358771  20.9271808  84.1900207  75.3900075  19.7936887
  84.5837735  75.5390181  20.4548335  84.0485699  85.4459793  16.6088797
  83.5197170  85.6619427  17.2686103  84.5710719  86.1395932  16.5289766
  84.0474152  85.5802930  16.6944396  89.5033752  91.0206098  21.9821841
  88.6731455  91.2316742  22.1455258  89.4543004  90.1943152  21.7064125
  89.3740487  90.9295704  21.9659207  75.9385307  89.3423010  15.4096265
  75.3542522  89.8473042  15.8162129  75.5355402  89.1165397  14.6692857
  75.7924610  89.3831259  15.3601290  71.4929335  95.0577771  22.2119936
  71.0096914  95.7828261  22.1879520  72.3052654  95.3553901  22.3230094
  71.5420083  95.2080125  22.2247215  77.5643489  93.8509952  24.8169751
  77.0470431  93.4917367  24.2131059  78.2617881  93.3272126  24.8275817
  77.5909070  93.7207640  24.7300009  81.2207081  94.3004766  30.7785924
  81.3090427  94.1130907  31.6264134  81.6496794  93.6542196  30.3790770
  81.2969184  94.1767774  30.8457675  78.7877541  93.5835926  29.7603586
  78.2248376  93.1708536  30.2843247  79.5498565  93.5088832  30.1796729
  78.8171990  93.5113327  29.8996586  80.3962521  85.5888662  13.8865185
  80.6358525  85.7966646  13.0740528  80.7178362  84.7846171  13.9954130
  80.4799679  85.5002764  13.7825738  75.7052811  77.5182058  17.7324723
  76.4598779  77.8860375  17.4941773  75.5280346  77.8921612  18.5003903
  75.7907290  77.6280246  17.8109612  74.3473533  95.5733947  22.3640216
  75.0494112  95.0585936  22.4212973  74.2671016  95.9008099  23.1687091
  74.4397293  95.5448173  22.4913008  88.9987710  83.6676499  25.7772262
  88.1616131  83.7378686  26.0119857  88.9675941  83.6700993  24.9046565
  88.8705992  83.6786726  25.6831810  75.3952439  85.8109534  31.4920631
  75.5672943  85.7015429  32.3405912  75.9321797  86.4563940  31.2551823
  75.4997443  85.8901536  31.5825728  74.0609876  79.9252377  14.4302836
  73.8785449  80.1424258  13.6043829  74.9235489  80.0391390  14.4861451
  74.1614465  79.9742275  14.3157323  73.6724308  91.7640299  21.8725824
  74.5113207  91.9963232  21.9199586  73.7036077  90.8944611  21.8032859
  73.8006026  91.6697246  21.8690469  74.2977011  92.1841174  26.1739130
  74.8375236  92.0412305  26.8442502  73.6146957  92.5837925  26.5423156
  74.2769165  92.2220845  26.3273551  79.7409595  76.9278788  17.4651860
  80.4695756  76.7494743  17.0190016  79.8304488  77.7696867  17.6759038
  79.8616257  77.0262666  17.4305378  83.7217896  87.8632175  21.3684154
  84.4775411  88.2963689  21.4073063  83.8280220  87.2136945  21.9418790
  83.8488066  87.8309659  21.4582180  86.7598067  91.6905452  22.1186557
  86.3233299  91.6942195  22.8745528  86.4260982  92.3710951  21.6866134
  86.6460687  91.7917908  22.1667389  81.3327141  93.7313785  33.4429707
  82.1167557  93.8444633  33.8085449  81.1323735  92.9054922  33.6388393
  81.4193166  93.6260505  33.5264093  69.7014156  88.4041465  26.3273551
  69.4352571  87.5880582  26.4864541  69.7152720  88.4494621  25.4569067
  69.6638878  88.2898370  26.2227033  86.6795550  78.7319280  24.3615985
  87.3221458  78.8017385  24.9477900  86.9318571  78.0648503  23.8595527
  86.8117682  78.6445629  24.3743264  73.6071903  83.2026550  12.9425309
  72.8930080  82.9164729  13.3547742  74.0915872  83.5423175  13.5831697
  73.5731266  83.2108199  13.0980944  74.4512762  81.9419844  28.9740559
  73.7584559  81.4716823  29.2201290  75.0673090  81.7158148  29.5482266
  74.4397292  81.8386975  29.0949711  81.4897534  95.6423887  27.0896163
  80.6912780  95.4023387  27.3470031  81.9383545  95.6938280  27.8363210
  81.4372145  95.6146278  27.2381087  89.8942413  88.4086372  21.0106194
  90.5558847  87.8477041  20.9102103  89.2533825  87.9138403  21.3358885
  89.8971281  88.2522781  21.0438534  80.7819221  91.7056504  13.3187117
  81.1970369  91.3741527  12.6271613  79.9511151  91.4725406  13.1907254
  80.7207230  91.6227760  13.1977965  70.1107570  89.1900245  23.6085295
  69.9283143  89.1647131  22.7557588  70.8457239  89.6599182  23.6474204
  70.1921634  89.2561607  23.4883214  86.1807244  89.4251755  20.7518183
  86.4162833  89.5696954  19.9245034  86.3296808  90.1894163  21.1449697
  86.2373047  89.5590809  20.6881787  73.1753321  85.9085247  30.1167404
  73.8993294  85.8938278  30.6032299  73.2769458  86.6180603  29.6189372
  73.2971530  86.0109951  30.1146191  88.0097701  88.2653421  18.5887787
  88.3405918  88.7981061  17.9827882  88.5830789  88.3192308  19.2449738
  88.1431380  88.3522989  18.5965568  80.5498271  89.3884332  34.9816351
  79.7571252  89.7027844  35.1668971  80.6647198  89.6035801  34.1437136
  80.4493681  89.4668169  34.8854686  83.2229590  86.1118323  19.2711367
  83.3176444  86.8507617  19.7250992  82.5988433  85.6835799  19.7045931
  83.1438620  86.1579644  19.4019514  81.4782064  89.2904536  29.9201648
  82.0520925  88.6531780  30.0750212  81.3996867  89.2908618  29.0511305
  81.5515298  89.1969647  29.8148059  70.0778480  86.0693745  23.7584362
  70.6551983  85.9330196  24.3976607  69.3792542  85.6129529  24.0129946
  70.0599501  85.9816012  23.8906652  83.4752611  87.9567063  12.5048319
  83.3932774  88.0269250  13.3703306  84.1132332  88.5196807  12.3132059
  83.5572448  88.0506034  12.6038268  76.8345782  87.7227801  21.9722845
  76.5765027  86.8899536  21.9454145  76.8894265  87.9485414  21.1315346
  76.8045560  87.6325572  21.8442982  81.9146832  79.8256252  22.0726938
  81.2103159  79.3365437  22.2310857  81.9631807  79.8378726  21.2015382
  81.8176884  79.7545900  21.9666278  75.8080494  85.2765563  22.4587740
  75.2330086  85.4357732  23.0951701  75.4316171  84.6400973  21.9956190
  75.6683307  85.2063376  22.4842298  79.4753783  83.7488913  27.3180118
  79.0868216  83.3243130  26.6632310  78.8108481  83.9971062  27.8257145
  79.3200711  83.7227634  27.2967986  89.1177052  83.5063917  20.0927948
  88.8613617  82.6943859  19.9025831  89.9606366  83.5141485  19.8658136
  89.2043078  83.3875915  20.0312765  65.5537313  84.9205638  20.4732181
  65.6397565  84.5437507  21.2545710  66.1813111  84.5466084  19.9952139
  65.6593864  84.8091120  20.5177658  83.2980145  77.4463541  24.8304103
  83.6790656  76.7641713  25.2171977  82.4943429  77.1573144  24.6479767
  83.2356606  77.3030590  24.8608158  80.5792721  87.9787517  15.5156925
  81.3933360  88.2702410  15.4039697  80.5151863  87.3247380  14.9415218
  80.6895460  87.9252712  15.4145763  86.8002211  90.6613513  29.9286501
  86.5640849  89.8301578  29.8098562  87.4445440  90.6099121  30.5141345
  86.8596882  90.5311201  29.9972395  76.4500630  91.4509035  20.6429237
  77.0874576  91.2120782  21.1881031  76.8755701  91.6546194  19.9082398
  76.6076796  91.4460045  20.6146395  71.1413272  93.6897371  24.5263541
  71.1817417  93.9612222  23.6983321  71.7007796  94.2139279  24.9421329
  71.2296618  93.8073126  24.4655429  77.0903445  86.6711325  14.9804127
  77.4748597  86.4519031  15.7320672  76.8415065  87.4974270  15.1105203
  77.1105517  86.7609471  15.1105203  77.2571985  79.9517740  34.6966711
  76.9425426  80.7217302  34.4336274  76.9361918  79.3887996  34.1118938
  77.1630904  79.9828008  34.5708061  87.8238632  90.4457962  25.9914795
  87.5184449  91.1786019  26.3528111  87.1044848  90.0395892  25.7107581
  87.6725974  90.4939695  26.0027933  78.8322101  91.9281457  22.3223024
  78.9061110  91.7656629  23.1764874  79.6491608  92.1171647  22.0783505
  78.9638460  91.9318200  22.4121049  93.5240424  87.0850963  25.3183140
  93.4564924  87.1046922  24.4485726  93.5096087  87.9281290  25.5438810
  93.5119181  87.2124698  25.2235617  72.5927858  92.2739320  19.3517467
  71.7665976  92.5201057  19.2251746  72.6539849  92.1951401  20.2179525
  72.4802025  92.2984269  19.4606412  74.8103882  78.3408261  20.3112907
  73.9426307  78.4130861  20.3770517  75.0979086  79.1430340  20.5000882
  74.7243630  78.4702408  20.3487674  83.9336771  78.4886121  28.6424229
  84.6790363  78.2995931  28.2287655  83.5174075  79.0144359  28.0838085
  83.9821745  78.5388266  28.4988802  77.3726687  94.8916200  17.0536497
  77.6624986  94.5005182  16.3295724  78.1030168  95.0732905  17.4941772
  77.5233571  94.8610014  17.0119304  91.3099042  85.8595349  23.5929734
  91.8606963  85.2263418  23.8326826  91.2943157  86.3910742  24.2845238
  91.3884238  85.8444297  23.7308592  77.9621432  89.6933946  28.1389628
  77.4633126  90.4049714  28.2174516  78.7721657  90.0134613  28.1007790
  78.0077539  89.8460795  28.1446196  75.3132603  96.8683583  20.1196647
  75.0932898  96.5780938  20.9123314  75.0927125  96.2098538  19.5914559
  75.2480197  96.7283291  20.1585555  74.2249550  88.9556899  22.3852348
  73.9362799  88.3294371  22.9198076  75.0932898  88.8977187  22.4517029
  74.3109802  88.8544444  22.4743303  85.0127448  84.0991683  22.7034330
  84.6692214  83.3782018  23.0541580  85.1120490  83.8905534  21.8612689
  84.9769491  83.9615886  22.6306010  77.4800559  98.2412973  18.9027339
  78.1324617  97.7089415  19.1318365  76.7826167  97.8881625  19.2895213
  77.4731276  98.1102496  18.9939507  74.4281823  90.5952150  18.3094713
  75.1827791  90.9765190  18.5230176  73.8352436  91.0463294  18.7641410
  74.4518537  90.7180978  18.4077592  85.4740477  90.5617387  18.2458318
  86.0398509  91.2210597  18.1616861  84.8268380  90.9067085  18.7174721
  85.4619233  90.7099328  18.3031075  76.8888490  82.5514991  33.4351926
  76.0788266  82.8572770  33.3241768  77.3663177  83.2720573  33.5504510
  76.8391969  82.7029592  33.4358997  75.7480050  91.7660712  23.6834829
  75.2260803  91.9061003  24.3686694  76.1354070  91.0071376  23.8736946
  75.7283751  91.6746236  23.8135905  72.7371234  81.8166521  17.7529784
  72.4496030  81.4467791  17.0161731  73.4241702  82.2861376  17.4913488
  72.7960131  81.8313490  17.6044859  81.9447055  93.5056171  17.6695398
  81.7033731  92.7724032  17.2622463  82.1248388  94.0543028  17.0161731
  81.9354679  93.4778562  17.5125621  77.1746376  88.7964731  19.0816320
  76.9789158  89.4039465  18.4876623  77.3980721  88.1032675  18.6007994
  77.1781017  88.7842256  18.9232401  75.5724906  85.6819469  19.1997188
  76.2947557  85.8460627  18.7400994  75.0932898  86.4029134  19.0936528
  75.6088636  85.8117698  19.1162802  83.5318413  82.0183268  24.5793873
  82.6929514  82.0444546  24.3432136  83.6022780  82.6654003  25.1599220
  83.4186807  82.1179393  24.6302990  73.2232522  88.0877541  28.3051328
  73.7353619  88.3661794  27.6560088  72.9368865  88.8266835  28.6714141
  73.2567385  88.2379895  28.2641206  81.9787691  78.9168645  19.3121489
  82.6814044  78.7176393  18.8341447  81.7131880  78.1444587  19.6190333
  82.0434324  78.7731611  19.2866931  87.4075937  87.2251254  21.8655115
  87.3209912  87.3806680  22.7189894  86.9526417  87.8689330  21.4914520
  87.3279194  87.3427009  21.9362222  70.3099429  82.5947733  18.6015065
  70.4115565  83.3973894  18.9296040  71.1055315  82.3935069  18.3038145
  70.4427334  82.6833632  18.6050420  76.7416248  80.1803930  28.3652370
  76.5499445  80.1959064  29.2151793  77.5914844  80.3767604  28.3419025
  76.8391970  80.2118281  28.4875664  71.1263161  82.7094911  26.3436186
  70.9848653  81.8578852  26.4680694  71.4103724  82.7523572  25.5198392
  71.1471007  82.5894661  26.2403810  81.2801753  84.5462001  20.4880674
  81.0336467  84.4657752  21.3217463  81.6086876  83.7615469  20.2943202
  81.2922997  84.4188267  20.5828198  85.1749802  91.2545361  24.2767456
  85.0364161  91.9526407  24.7816198  84.3949800  91.0994017  23.9203637
  85.0393029  91.3345527  24.2993730  83.5127887  87.5541736  30.5289837
  83.5075926  86.6821553  30.5332264  84.2188881  87.7529905  30.0559293
  83.6172891  87.4545610  30.4596873  77.2398780  87.2818720  29.9003658
  77.3842156  87.8619928  29.2646768  77.5874429  87.6595017  30.6053512
  77.3126242  87.4239424  29.9102652  79.4118698  86.4808888  27.6828789
  78.6642012  86.6739903  27.2777067  79.5660223  85.6554108  27.4452910
  79.3241125  86.3874000  27.5874195  76.3126535  95.4721492  26.7664684
  76.4616099  94.9124408  26.1138089  77.0926537  95.5513494  27.1497203
  76.4500629  95.4007057  26.7261634  86.6703175  90.6123615  15.0383955
  86.2909983  89.8260752  15.0313244  86.0069420  91.1610472  14.8955599
  86.5161650  90.5768439  15.0164752  78.8379836  95.6436135  28.0449175
  78.7623507  94.9744945  28.5999963  78.7669695  96.3453923  28.5589841
  78.8160443  95.6481042  28.2026023  79.6520475  80.3759439  28.5724193
  80.1093089  81.1083413  28.6996985  79.7276803  79.9525904  29.3311449
  79.7311445  80.4216677  28.7025269  71.8953466  80.6225259  29.6613637
  71.3595655  80.0105617  29.9774404  71.9571231  81.1973395  30.3147303
  71.8249099  80.6172187  29.8049063  84.1247801  73.5549314  22.4418036
  84.2431369  74.0125778  21.7085338  83.9509976  72.7494576  22.1554253
  84.1166972  73.5043086  22.2918969  79.4950083  94.1637134  18.8772781
  80.2599974  93.8946777  18.5555445  79.3928173  93.6787144  19.5942844
  79.5931578  94.0526698  18.9352609  77.5302853  82.3661543  25.4166017
  76.7398927  82.1853003  25.7383353  77.9263475  81.5888496  25.3996311
  77.4719729  82.2249004  25.4618565  82.0168743  91.1949317  10.8572730
  82.7841729  91.2549442  10.4478582  81.5700052  90.6229759  10.3729049
  82.0642171  91.1185893  10.7250441  82.9146539  90.0003973  23.1425463
  82.2391541  89.7689205  23.6438850  82.9238915  89.3925156  22.5167568
  82.8165043  89.8762898  23.1241615  80.0440683  84.8421802  29.8989516
  79.9799824  85.7031759  29.7709652  80.1837871  84.5253795  29.0985067
  80.0556153  84.9221969  29.7617729  84.9163274  92.8569106  15.3735641
  84.9983111  93.6636092  15.0497092  85.4013016  92.8765065  16.0976414
  85.0000431  92.9789768  15.4322539  78.7259777  87.5353941  24.0405719
  78.3022026  87.7358441  23.3044737  78.5504632  86.6882789  24.1530019
  78.6370657  87.4402723  23.9479409  78.2271470  99.0504454  26.5027176
  78.7167401  98.3515244  26.3202841  77.6555703  98.7528324  27.0903233
  78.2156000  98.9030678  26.5628217  74.0142222  88.0305993  19.4733691
  74.1706841  87.9652796  20.3289683  74.3542815  88.8054545  19.2612371
  74.0875457  88.1355191  19.5688285  80.5521366  87.4063876  18.3427054
  81.0936912  86.9034258  18.8065675  80.8667925  87.3529071  17.5316540
  80.6785763  87.3243297  18.2910867  84.4238474  91.6166524  35.4553967
  85.2373339  91.3451673  35.6159099  84.2633440  91.3174064  34.6514163
  84.5208422  91.5321450  35.3599373  78.7207816  92.7981228  15.6267082
  78.7900636  91.9395766  15.7660083  79.4996271  93.0153109  15.2986107
  78.8460666  92.7034092  15.5984240  81.7010636  82.3000181  28.3949355
  81.9152605  81.6611095  27.8412709  81.0844535  82.7446005  27.9657217
  81.6415965  82.2710325  28.2499786  83.1115304  95.2218929  19.8403576
  82.7195095  94.9185644  19.1226442  83.2668376  96.0588019  19.6508530
  83.0768894  95.3002766  19.7060073  70.5876483  85.2140943  19.7894458
  70.9675448  85.6325488  19.1254726  70.0131848  85.7954399  20.0963302
  70.5587808  85.3618802  19.7371199  83.8649724  83.9089246  29.3332662
  83.0526405  83.6015137  29.4145835  84.3239658  83.4288246  29.8975374
  83.8130109  83.7925739  29.4287256  83.2754978  91.7868918  19.7809606
  82.9169633  91.9583561  20.5573639  82.7893689  92.2482124  19.2237605
  83.1513675  91.8807889  19.8134875  81.0925364  75.4100117  23.3836698
  80.2218922  75.3838838  23.3370007  81.3465706  75.2377309  22.5662543
  81.0018925  75.3810260  23.2556834  78.0643344  87.4668084  12.3209841
  78.3535869  88.2432966  12.5953415  78.1515143  86.9556815  13.0224340
  78.1197600  87.5060002  12.4652339  80.9603231  85.3149318  34.1161364
  81.4302862  85.9391434  34.5029238  81.0065111  84.6466293  34.6754579
  81.0371107  85.3083998  34.2561436  78.1174505  77.4206345  24.8410168
  77.6012993  76.7286537  24.9661747  77.5568434  78.0877122  24.7872767
  77.9581018  77.4169603  24.8516234  80.1866738  77.9599305  26.6703021
  79.7998492  77.9848337  27.4516551  79.6999676  77.3940984  26.2177537
  80.0579247  77.8795056  26.7190924  84.4359718  92.6772814  30.7276807
  85.0739438  92.1833010  30.3939263  83.7933809  92.6050215  30.1429034
  84.4353944  92.5931823  30.5919162  86.1616718  84.5261960  25.2942723
  85.7344326  84.4388309  24.5390822  85.5242771  84.6339736  25.8797567
  86.0046325  84.5294620  25.2688164  79.8523880  74.8466291  28.9613281
  80.4816998  75.3826591  28.6834351  80.0209743  74.7543650  29.8126846
  79.9701675  74.9127653  29.0461809  79.6537795  79.6337485  31.2339692
  80.4811224  79.3622634  31.2898307  79.6745641  80.4298327  31.5903510
  79.7790645  79.7117240  31.2954875  84.4913974  93.3692622  27.3682164
  85.2806353  93.0181687  27.4884246  84.6657572  94.1829011  27.1058798
  84.6334256  93.4378480  27.3470032  74.2307285  86.7801348  24.4209953
  73.3895291  86.6805222  24.6288847  74.4397293  87.5496828  24.7724273
  74.1371977  86.8793391  24.5037268  71.7082852  84.4020885  22.2494703
  71.3139550  84.4763897  21.4744813  71.1522969  84.7878831  22.8003065
  71.5685664  84.4702660  22.2162363  83.3447799  77.3802179  21.9298582
  83.5497392  77.3124487  22.7755580  83.0174223  78.1861000  21.8619760
  83.3263046  77.4888120  22.0458238  78.0423950  84.7082747  23.6707550
  77.7387087  84.1538736  24.2717958  77.3403370  84.8874957  23.1835585
  77.8940159  84.6527530  23.6877256  77.0990047  82.0183267  18.2352252
  77.3749781  81.3002180  17.8229820  77.6988716  82.6168187  18.0273358
  77.2283311  82.0003638  18.1433013  76.1042301  91.9232468  28.3779648
  75.9962656  91.9334530  29.2441706  76.3138082  92.7487248  28.1884602
  76.1192412  92.0473543  28.4783740  86.5981486  77.9333943  21.4101348
  85.9855800  78.4204346  21.7955080  86.6945661  77.2577434  21.9538999
  86.5219384  77.9052252  21.5480206  80.6000567  79.6896785  16.5098847
  81.0544314  79.8607345  17.2346692  81.0740613  79.0764895  16.1096623
  80.7368887  79.6247670  16.5572609  74.1216093  89.1745110  25.8401586
  73.5304026  89.8154609  25.8104601  74.8837116  89.5982728  25.8132885
  74.1464353  89.3320949  25.8316733  74.5176715  80.3347108  26.5069603
  74.9778197  80.4086038  27.2444727  74.5632822  81.1328362  26.1569425
  74.5927271  80.4641255  26.5642360  76.1660065  81.0013803  31.0741630
  75.7745630  80.3547150  31.5097408  76.3345928  81.5925238  31.6935886
  76.1330976  80.9928071  31.2304336  90.2406514  89.0050880  26.8378864
  90.2989638  89.4537529  27.5838840  89.6072982  89.4149693  26.4008944
  90.1557809  89.1324615  26.8831412  83.8805609  94.6254422  23.2733610
  83.6825298  95.1145236  22.5789821  83.2593320  94.8295664  23.8517744
  83.7593173  94.7270960  23.2556833  77.9413587  86.3939319  17.6143854
  78.6855632  86.7813595  17.8526804  78.0874283  85.5496744  17.7784342
  78.0724172  86.3269792  17.6737824  79.8593163  78.1889578  22.6475716
  79.0129208  78.3612386  22.5217066  79.8564295  77.3838921  22.9841544
  79.7340313  78.0950607  22.6786843  80.9291463  81.9664792  23.5137774
  80.4551417  81.4406554  24.0243085  81.3009599  81.4194265  22.9452635
  80.9141352  81.8080789  23.5052921  71.3064493  83.9636299  28.8821320
  72.1690106  83.8632008  28.7958649  70.9756276  83.3831008  28.3206892
  71.3849690  83.8627926  28.7866725  87.1928194  87.0267168  24.9244554
  86.9526417  86.1873583  24.9286981  87.6720201  87.1067335  25.6485328
  87.2280377  86.9148568  25.0319357  82.8574963  82.8601347  16.5763528
  82.3297981  82.9430091  15.8869236  83.3170671  83.6019218  16.5728172
  82.8476813  82.9822009  16.4738223  89.1933381  83.8068625  22.8773813
  88.9543151  83.7664459  22.0394598  89.3567282  84.6539777  23.0039534
  89.1823684  83.9260710  22.7727295  85.7979411  88.1918574  28.8078859
  86.5213610  87.7391101  28.6289878  85.5329373  88.4723240  28.0251186
  85.8660684  88.1669543  28.6657574  74.6666279  82.7878748  25.5431738
  74.0419349  82.7997140  24.9357690  74.3311874  83.2638923  26.1922978
  74.5251771  82.8597265  25.5488306  74.8508028  81.1303866  11.6004423
  74.5020832  81.7823592  12.0635972  74.3704474  81.1160979  10.8728294
  74.7278272  81.2246920  11.5615514  71.3791955  90.8479208  26.9835502
  70.8491879  90.1571647  27.0330477  71.6517048  90.8389393  26.1548211
  71.3416677  90.7446340  26.8682918  82.4112045  91.4304910  15.7073185
  83.1346244  91.8963023  15.5637758  81.9712636  91.4978520  14.9570782
  82.4527738  91.5088747  15.5757966  81.5798200  88.2902453  26.9573874
  80.9655193  87.7460503  27.2522509  82.0965485  87.7766689  26.4779690
  81.5653863  88.1338862  26.9298102  80.8194498  89.3606723  24.6918172
  80.3922106  88.7356441  24.2583608  80.8119442  89.0781644  25.5177179
  80.7553639  89.2259503  24.7498000  73.9357025  84.3971896  27.7606606
  74.0950511  83.6415220  28.1658328  73.7549918  84.9462835  28.4147344
  73.9322384  84.3665709  27.9169312  81.8777328  76.5633131  28.3157396
  81.3817889  76.7596805  27.6248962  82.6346390  76.9625799  28.1446197
  81.9164152  76.6510865  28.1877532  79.1480207  80.2375477  24.9060706
  79.1722694  79.7035589  24.2173486  79.3991681  79.7292786  25.5686297
  79.1890126  80.0836381  24.9025351  66.6587797  87.5206972  24.3403850
  66.5531246  87.4753816  23.4755934  65.9088017  87.8660753  24.6218135
  66.5323400  87.5647880  24.2541180  75.4281529  78.9646295  24.2866451
  75.4679901  79.4655502  25.0001158  74.6031194  79.0556689  24.0172374
  75.3121055  79.0528112  24.3516989  77.6111142  88.5307035  32.3886745
  76.7606773  88.6678750  32.5244390  77.7739270  87.7970814  32.8334447
  77.5095006  88.4421137  32.4742344  76.8495893  85.4806805  26.5840350
  76.0187822  85.6480623  26.3775598  76.7947410  85.1042756  27.3689235
  76.7185308  85.4496536  26.6688878  74.6579676  78.9715698  32.2196760
  75.2832379  78.4277831  32.4926193  74.2030156  78.4910616  31.6504551
  74.6827937  78.8205179  32.1758354  75.2231937  83.7562397  17.1130467
  75.3634898  84.2534861  17.8159109  75.7214469  83.0548691  17.2544681
  75.3173018  83.7264376  17.2382046  75.2532159  84.6229508  14.4423044
  75.8877239  85.2189933  14.3772506  75.3357770  84.3232965  15.2568914
  75.3588710  84.6670416  14.5526131  88.2314725  87.1544985  27.3109408
  88.8232565  87.7942236  27.3427606  88.6673719  86.4568022  27.6001475
  88.3833156  87.1463335  27.3590241  76.8311142  80.5543483  14.4168486
  77.1526983  80.0746566  13.7627748  77.0938086  81.3643129  14.2259298
  76.9177167  80.6033381  14.2923978  80.0608115  91.5762358  27.9367302
  79.5533206  92.1298204  28.3807933  79.7634761  91.6370647  27.1186077
  79.9413000  91.6668669  27.8815759  82.2270297  79.9415677  26.7791965
  82.6525368  79.4888204  26.1675492  81.6127290  79.3875748  27.0556753
  82.1998942  79.7929653  26.7296990  71.7585147  86.8197349  17.7112590
  72.2677376  87.4161856  18.0923896  72.2319419  86.5523322  17.0289010
  71.9028523  86.8683164  17.6667113  82.6715895  95.4925615  15.8671246
  81.9545205  95.3186477  15.4018483  83.3222633  95.2578188  15.3346732
  82.6617745  95.4321408  15.7200464  80.6664520  76.4130777  20.1882542
  80.0232838  76.2628423  20.7567681  80.3263927  76.1673122  19.4231647
  80.5209597  76.3542899  20.1585557  85.2563866  84.3690204  19.6112551
  84.5855056  84.9119906  19.4825616  85.9503616  84.8385059  19.3694246
  85.2592734  84.5188475  19.5568079  79.3050600  96.5086916  24.8424309
  79.0816254  95.7505745  25.2108335  78.8160443  96.5384937  24.1204749
  79.1994049  96.4009140  24.7901050  85.4191994  80.8246087  22.5202924
  85.7719604  80.3975810  23.1948723  84.5606795  80.7396931  22.6504000
  85.3441438  80.7490828  22.6397934  74.1175679  83.4553607  20.5785771
  73.3987668  83.8717740  20.8458634  74.4888041  84.0207846  20.0277409
  74.0667610  83.6002889  20.5368578  83.4175259  84.0881456  26.4687766
  83.3973187  83.9064751  27.3222545  83.4654460  84.9593475  26.4447350
  83.4209900  84.1897994  26.5911061  81.3621589  90.6768648  32.3936243
  81.3217444  90.0318325  31.8081399  82.1744908  90.6205265  32.7061655
  81.4764743  90.5727615  32.3533192  77.9529057  96.7287374  22.2961394
  77.5389455  96.0661504  21.9065235  78.6376431  96.8765233  21.7757088
  77.9927429  96.6528032  22.1617891  81.3194351  95.8877459  23.0485010
  80.9210634  95.9979729  22.2805831  80.7045571  96.0959525  23.6311570
  81.1693240  95.9351027  23.0216310  79.8922253  82.4951607  15.9159150
  79.2987092  82.8168603  15.3643717  79.9297531  81.6492702  15.7080256
  79.8096642  82.4175935  15.8041921  86.8516054  75.9464499  23.4487236
  86.3446918  75.2393639  23.3808414  87.6483487  75.6157688  23.5788313
  86.8943293  75.7937651  23.4586231  82.7680070  82.4531111  19.3460900
  82.5393763  82.4763813  18.5039258  83.0278146  81.6288578  19.4655911
  82.7726258  82.3347191  19.2386098  77.0499298  84.3065585  28.9486000
  76.5378201  83.6986767  29.3071032  76.8778794  85.0222177  29.4159976
  76.9488935  84.3228884  29.0702224  71.8965013  82.7503160  31.5988362
  71.7267603  83.4104535  31.0536569  71.4530963  82.9609721  32.3200851
  71.8064346  82.8789142  31.6249992  75.8224832  80.9907658  20.6415096
  76.2982198  81.3524738  20.0065277  75.3213432  81.6464125  20.9215239
  75.8190191  81.1401847  20.5891837  89.0536194  90.4629426  16.4328101
  89.4369799  91.2120782  16.6626198  88.2580307  90.7095246  16.1740090
  88.9929976  90.6099120  16.4285674  80.9268368  82.2289829  31.3888256
  81.4839799  82.0003639  30.7566721  80.6029433  82.9895495  31.1123468
  80.9614779  82.3073666  31.2544753  68.7967077  85.6550025  26.8576852
  68.2493797  84.9850671  26.9757720  69.5859455  85.2879873  26.9220319
  68.8319261  85.5015012  26.8845553  78.6451486  85.3157482  32.3540263
  79.3962813  85.6309159  32.6679817  78.8374062  85.1136653  31.5274185
  78.7842900  85.3324864  32.2783659  77.8651485  83.1348858  14.0088480
  78.2450450  83.1528487  13.2239595  77.1244081  83.5802846  13.8879327
  77.8120323  83.2030632  13.8752048  85.4936776  81.4431049  19.5964059
  85.4931002  81.2879705  20.4548335  85.2892956  82.2894036  19.5405444
  85.4636554  81.5451670  19.7151998  67.5554047  84.8670833  24.0122875
  67.3775808  84.4147442  24.7377791  67.2673069  85.6696995  24.1961353
  67.4867000  84.9193391  24.1466378  83.2177628  86.1228551  23.2500265
  83.7131293  85.4051546  23.2104286  82.4077404  85.8199348  23.1354752
  83.1721521  85.9726197  23.2273991  78.6636239  89.9726364  15.3997270
  77.8547562  89.6493037  15.3530579  79.1711148  89.2659586  15.3325519
  78.6185906  89.8207680  15.3827564  69.2926517  87.3998557  21.1244634
  68.4272036  87.3884247  21.0127405  69.3925333  87.2128780  21.9715773
  69.1800684  87.3704618  21.2333579  85.2829447  88.8732238  25.9377394
  85.7084518  88.3506660  25.3847819  84.9186367  89.4713075  25.4166017
  85.2916049  88.8842465  25.7786404  74.9183527  97.1696456  24.6974740
  75.2330085  97.9832844  24.7052521  75.3276940  96.7846674  25.3656899
  75.0251624  97.2325158  24.7978831  81.8708046  92.5866502  22.2678552
  82.3419224  93.3006765  22.4368537  82.2068225  91.9865252  22.8038421
  81.9903161  92.6037967  22.3710928  83.9585031  94.1967816  34.4470624
  84.0681996  93.4076376  34.8027371  84.2875927  94.1073752  33.6444962
  84.0237437  94.0673669  34.3813014  78.7877541  77.3593973  29.2236646
  78.9205447  76.5624966  29.5517622  79.1722694  77.8860376  29.8034922
  78.8633870  77.3193890  29.3580149  82.5081992  92.3784436  29.0306244
  81.9602938  91.7542320  28.7626310  82.9695021  92.5678709  28.3150324
  82.4949202  92.3143487  28.8856675  81.8609896  74.2824299  25.8217740
  81.0555860  74.1722029  26.1385578  81.7316632  74.3836755  24.9647605
  81.7230029  74.2807969  25.7425780  85.3175857  80.4469791  26.4157437
  84.7338846  80.9478997  26.0035004  85.6380151  79.9399347  25.7821760
  85.2789032  80.4461626  26.2615944  77.8570656  79.3610386  16.6916111
  78.6786350  79.5308699  16.4497806  77.3940307  79.5157647  15.9682409
  77.9101818  79.4092119  16.5487756  76.4465988  77.3553148  27.4714540
  76.9910401  77.0144275  28.0618882  76.5002924  78.2138610  27.6135825
  76.5355107  77.4308407  27.5796414  72.2596547  91.1169564  24.3453348
  72.8641404  91.0765398  23.7167169  72.0523859  91.9640716  24.3757404
  72.3185444  91.2357567  24.2569465  82.0740319  93.3835509  25.5615585
  82.8938693  93.2398475  25.8231881  81.7934396  94.0081708  26.1032023
  82.1537062  93.4545861  25.6803525  67.4947829  90.1004182  24.2152271
  67.3972107  89.2900453  24.5242328  68.2776699  90.0795975  23.8298539
  67.5963965  89.9771272  24.2039134  91.7453654 100.1276012  23.2811392
  90.8891550 100.2884510  23.3320509  91.7921308  99.2568076  23.3016453
  91.6252765 100.0226814  23.2917458  95.0547371 106.3962538  32.8871848
  95.7614138 105.9014568  33.0158783  95.2435306 106.8371619  32.1574506
  95.1875276 106.3880888  32.7980894  94.5905475 102.1868056  25.9243044
  95.1361435 102.8653142  25.9837014  94.5322351 102.0455517  25.0644625
  94.6621389 102.2660058  25.8055104  80.9044594 105.6977408  20.9363730
  80.6694779 104.8645061  20.8295999  81.0430235 105.9782074  20.1224931
  80.8900257 105.6160912  20.8006085  83.2034682  97.8663139  23.8348038
  82.5839713  97.2755786  23.6658052  83.1018545  98.4574574  23.2012361
  83.0972357  97.8667222  23.7153027  82.9303815 101.4115421  26.0791607
  82.8062512 101.9977866  26.7141426  83.5822099 100.9175617  26.3803882
  83.0077464 101.4254225  26.2177536  87.9562156 104.5877138  25.3579118
  88.6011158 104.0949581  25.0390066  88.1963933 104.7301924  26.1845196
  88.0872741 104.5354580  25.4328651  90.4948247 107.4332044  25.0086010
  90.7771490 106.6383449  24.7872766  91.2234407 107.9112631  25.0291071
  90.6437811 107.3866641  24.9789025  88.4729441  94.9755078  22.2501775
  88.1432771  95.4266221  21.5805474  87.7974443  94.8971241  22.7974782
  88.3239877  95.0306213  22.2324999  95.6805849  90.9640600  20.4951386
  95.3659290  91.6544079  20.9271808  95.1632790  90.9085383  19.7936887
  95.5570319  91.0575489  20.4548335  82.4661919 110.5763079  22.2119936
  81.9829497 111.3013569  22.1879520  83.2785237 110.8739209  22.3230094
  82.5152667 110.7265433  22.2247215  88.5376073 109.3695260  24.8169751
  88.0203015 109.0102675  24.2131059  89.2350464 108.8457434  24.8275817
  88.5641654 109.2392948  24.7300009  92.1939665 109.8190074  30.7785924
  92.2823011 109.6316214  31.6264134  92.6229377 109.1727504  30.3790770
  92.2701767 109.6953082  30.8457675  89.7610125 109.1021234  29.7603586
  89.1980959 108.6893844  30.2843247  90.5231148 109.0274140  30.1796729
  89.7904573 109.0298635  29.8996586  86.6785395  93.0367366  17.7324723
  87.4331363  93.4045683  17.4941773  86.5012930  93.4106920  18.5003903
  86.7639873  93.1465554  17.8109612  99.9720294  99.1861806  25.7772262
  99.1348715  99.2563994  26.0119857  99.9408525  99.1886301  24.9046565
  99.8438576  99.1972034  25.6831810  86.3685023 101.3294842  31.4920631
  86.5405526 101.2200737  32.3405912  86.9054380 101.9749248  31.2551823
  86.4730027 101.4086844  31.5825728  84.6456892 107.2825607  21.8725824
  85.4845791 107.5148540  21.9199586  84.6768661 106.4129919  21.8032859
  84.7738609 107.1882554  21.8690469  85.2709595 107.7026482  26.1739130
  85.8107820 107.5597613  26.8442502  84.5879541 108.1023233  26.5423156
  85.2501748 107.7406153  26.3273551  90.7142179  92.4464096  17.4651860
  91.4428339  92.2680051  17.0190016  90.8037072  93.2882175  17.6759038
  90.8348841  92.5447974  17.4305378  92.3059724 109.2499093  33.4429707
  93.0900141 109.3629941  33.8085449  92.1056319 108.4240230  33.6388393
  92.3925750 109.1445812  33.5264093  80.6746740 103.9226773  26.3273551
  80.4085155 103.1065890  26.4864541  80.6885304 103.9679929  25.4569067
  80.6371462 103.8083678  26.2227033  97.6528133  94.2504588  24.3615985
  98.2954042  94.3202693  24.9477900  97.9051154  93.5833811  23.8595527
  97.7850266  94.1630937  24.3743264  85.4245346  97.4605151  28.9740559
  84.7317143  96.9902131  29.2201290  86.0405673  97.2343456  29.5482266
  85.4129876  97.3572283  29.0949711  92.4630117 111.1609195  27.0896163
  91.6645363 110.9208695  27.3470031  92.9116129 111.2123588  27.8363210
  92.4104729 111.1331586  27.2381087  81.0840153 104.7085553  23.6085295
  80.9015727 104.6832439  22.7557588  81.8189822 105.1784490  23.6474204
  81.1654217 104.7746915  23.4883214  84.1485905 101.4270555  30.1167404
  84.8725877 101.4123586  30.6032299  84.2502041 102.1365911  29.6189372
  84.2704114 101.5295259  30.1146191  91.5230854 104.9069640  34.9816351
  90.7303835 105.2213152  35.1668971  91.6379781 105.1221108  34.1437136
  91.4226265 104.9853477  34.8854686  92.4514647 104.8089844  29.9201648
  93.0253509 104.1717088  30.0750212  92.3729451 104.8093926  29.0511305
  92.5247882 104.7154955  29.8148059  81.0511064 101.5879053  23.7584362
  81.6284566 101.4515504  24.3976607  80.3525125 101.1314837  24.0129946
  81.0332085 101.5001319  23.8906652  87.8078366 103.2413109  21.9722845
  87.5497610 102.4084844  21.9454145  87.8626849 103.4670722  21.1315346
  87.7778144 103.1510880  21.8442982  92.8879416  95.3441560  22.0726938
  92.1835743  94.8550745  22.2310857  92.9364390  95.3564034  21.2015382
  92.7909468  95.2731208  21.9666278  86.7813078 100.7950871  22.4587740
  86.2062669 100.9543040  23.0951701  86.4048754 100.1586280  21.9956190
  86.6415890 100.7248684  22.4842298  90.4486367  99.2674221  27.3180118
  90.0600799  98.8428438  26.6632310  89.7841065  99.5156370  27.8257145
  90.2933294  99.2412942  27.2967986  76.5269897 100.4390946  20.4732181
  76.6130149 100.0622814  21.2545710  77.1545694 100.0651392  19.9952139
  76.6326448 100.3276428  20.5177658  94.2712728  92.9648849  24.8304103
  94.6523240  92.2827021  25.2171977  93.4676012  92.6758452  24.6479767
  94.2089190  92.8215898  24.8608158  97.7734795 106.1798821  29.9286501
  97.5373432 105.3486886  29.8098562  98.4178024 106.1284429  30.5141345
  97.8329466 106.0496509  29.9972395  82.1145855 109.2082679  24.5263541
  82.1550001 109.4797530  23.6983321  82.6740380 109.7324587  24.9421329
  82.2029201 109.3258434  24.4655429  88.2304569  95.4703048  34.6966711
  87.9158010  96.2402610  34.4336274  87.9094501  94.9073304  34.1118938
  88.1363488  95.5013316  34.5708061  98.7971216 105.9643270  25.9914795
  98.4917033 106.6971327  26.3528111  98.0777431 105.5581200  25.7107581
  98.6458558 106.0125003  26.0027933  85.7836465  93.8593569  20.3112907
  84.9158891  93.9316169  20.3770517  86.0711670  94.6615648  20.5000882
  85.6976214  93.9887716  20.3487674  94.9069354  94.0071429  28.6424229
  95.6522946  93.8181239  28.2287655  94.4906659  94.5329666  28.0838085
  94.9554328  94.0573574  28.4988802  88.9354016 105.2119254  28.1389628
  88.4365710 105.9235022  28.2174516  89.7454240 105.5319921  28.1007790
  88.9810123 105.3646103  28.1446196  85.1982134 104.4742207  22.3852348
  84.9095382 103.8479679  22.9198076  86.0665482 104.4162495  22.4517029
  85.2842385 104.3729752  22.4743303  95.9860031  99.6176991  22.7034330
  95.6424797  98.8967326  23.0541580  96.0853074  99.4090842  21.8612689
  95.9502074  99.4801194  22.6306010  87.8621074  98.0700299  33.4351926
  87.0520850  98.3758078  33.3241768  88.3395761  98.7905881  33.5504510
  87.8124553  98.2214900  33.4358997  86.7212634 107.2846020  23.6834829
  86.1993387 107.4246311  24.3686694  87.1086654 106.5256684  23.8736946
  86.7016334 107.1931544  23.8135905  83.7103818  97.3351828  17.7529784
  83.4228613  96.9653099  17.0161731  84.3974286  97.8046684  17.4913488
  83.7692715  97.3498798  17.6044859  86.5457489 101.2004777  19.1997188
  87.2680141 101.3645935  18.7400994  86.0665482 101.9214441  19.0936528
  86.5821220 101.3303006  19.1162802  94.5050997  97.5368575  24.5793873
  93.6662097  97.5629854  24.3432136  94.5755364  98.1839311  25.1599220
  94.3919390  97.6364701  24.6302990  84.1965106 103.6062849  28.3051328
  84.7086203 103.8847102  27.6560088  83.9101448 104.3452143  28.6714141
  84.2299969 103.7565203  28.2641206  92.9520275  94.4353952  19.3121489
  93.6546628  94.2361701  18.8341447  92.6864464  93.6629895  19.6190333
  93.0166907  94.2916918  19.2866931  81.2832012  98.1133041  18.6015065
  81.3848149  98.9159202  18.9296040  82.0787899  97.9120377  18.3038145
  81.4159918  98.2018940  18.6050420  87.7148831  95.6989238  28.3652370
  87.5232028  95.7144372  29.2151793  88.5647427  95.8952912  28.3419025
  87.8124553  95.7303589  28.4875664  82.0995744  98.2280219  26.3436186
  81.9581236  97.3764160  26.4680694  82.3836308  98.2708880  25.5198392
  82.1203590  98.1079969  26.2403810  92.2534337 100.0647309  20.4880674
  92.0069051  99.9843060  21.3217463  92.5819460  99.2800777  20.2943202
  92.2655580  99.9373575  20.5828198  94.4860471 103.0727044  30.5289837
  94.4808509 102.2006861  30.5332264  95.1921464 103.2715213  30.0559293
  94.5905475 102.9730918  30.4596873  88.2131364 102.8004028  29.9003658
  88.3574740 103.3805236  29.2646768  88.5607012 103.1780325  30.6053512
  88.2858825 102.9424732  29.9102652  90.3851281 101.9994196  27.6828789
  89.6374595 102.1925211  27.2777067  90.5392806 101.1739416  27.4452910
  90.2973709 101.9059308  27.5874195  87.2859119 110.9906800  26.7664684
  87.4348683 110.4309716  26.1138089  88.0659121 111.0698801  27.1497203
  87.4233213 110.9192365  26.7261634  89.8112420 111.1621443  28.0449175
  89.7356091 110.4930253  28.5999963  89.7402279 111.8639231  28.5589841
  89.7893026 111.1666350  28.2026023  90.6253058  95.8944747  28.5724193
  91.0825672  96.6268721  28.6996985  90.7009387  95.4711212  29.3311449
  90.7044028  95.9401985  28.7025269  82.8686050  96.1410567  29.6613637
  82.3328239  95.5290925  29.9774404  82.9303814  96.7158703  30.3147303
  82.7981682  96.1357494  29.8049063  95.0980384  89.0734622  22.4418036
  95.2163952  89.5311086  21.7085338  94.9242560  88.2679883  22.1554253
  95.0899555  89.0228394  22.2918969  88.5035436  97.8846851  25.4166017
  87.7131511  97.7038311  25.7383353  88.8996059  97.1073803  25.3996311
  88.4452312  97.7434312  25.4618565  91.0173266 100.3607110  29.8989516
  90.9532408 101.2217067  29.7709652  91.1570454 100.0439103  29.0985067
  91.0288737 100.4407277  29.7617729  89.6992360 103.0539249  24.0405719
  89.2754609 103.2543748  23.3044737  89.5237216 102.2068097  24.1530019
  89.6103241 102.9588031  23.9479409  89.2004054 114.5689762  26.5027176
  89.6899984 113.8700552  26.3202841  88.6288286 114.2713632  27.0903233
  89.1888584 114.4215986  26.5628217  84.9874805 103.5491301  19.4733691
  85.1439425 103.4838104  20.3289683  85.3275398 104.3239853  19.2612371
  85.0608040 103.6540499  19.5688285  95.3971057 107.1351832  35.4553967
  96.2105923 106.8636981  35.6159099  95.2366024 106.8359372  34.6514163
  95.4941006 107.0506758  35.3599373  92.6743219  97.8185489  28.3949355
  92.8885189  97.1796403  27.8412709  92.0577119  98.2631313  27.9657217
  92.6148549  97.7895633  28.2499786  81.5609067 100.7326251  19.7894458
  81.9408032 101.1510796  19.1254726  80.9864432 101.3139707  20.0963302
  81.5320392 100.8804110  19.7371199  94.8382307  99.4274554  29.3332662
  94.0258989  99.1200444  29.4145835  95.2972242  98.9473554  29.8975374
  94.7862692  99.3111046  29.4287256  92.0657948  90.9285425  23.3836698
  91.1951506  90.9024146  23.3370007  92.3198289  90.7562617  22.5662543
  91.9751508  90.8995568  23.2556834  91.9335815 100.8334626  34.1161364
  92.4035446 101.4576742  34.5029238  91.9797695 100.1651601  34.6754579
  92.0103691 100.8269306  34.2561436  89.0907088  92.9391653  24.8410168
  88.5745577  92.2471844  24.9661747  88.5301017  93.6062430  24.7872767
  88.9313602  92.9354911  24.8516234  91.1599322  93.4784613  26.6703021
  90.7731075  93.5033645  27.4516551  90.6732259  92.9126292  26.2177537
  91.0311831  93.3980364  26.7190924  95.4092301 108.1958122  30.7276807
  96.0472022 107.7018318  30.3939263  94.7666393 108.1235523  30.1429034
  95.4086528 108.1117131  30.5919162  97.1349301 100.0447268  25.2942723
  96.7076910  99.9573617  24.5390822  96.4975354 100.1525044  25.8797567
  96.9778909 100.0479928  25.2688164  90.8256464  90.3651599  28.9613281
  91.4549582  90.9011899  28.6834351  90.9942326  90.2728957  29.8126846
  90.9434258  90.4312961  29.0461809  90.6270379  95.1522793  31.2339692
  91.4543808  94.8807942  31.2898307  90.6478225  95.9483635  31.5903510
  90.7523229  95.2302547  31.2954875  95.4646558 108.8877930  27.3682164
  96.2538936 108.5366995  27.4884246  95.6390156 109.7014319  27.1058798
  95.6066840 108.9563787  27.3470032  85.2039868 102.2986656  24.4209953
  84.3627875 102.1990530  24.6288847  85.4129876 103.0682136  24.7724273
  85.1104561 102.3978699  24.5037268  82.6815435  99.9206193  22.2494703
  82.2872133  99.9949205  21.4744813  82.1255552 100.3064139  22.8003065
  82.5418248  99.9887968  22.2162363  94.3180382  92.8987487  21.9298582
  94.5229976  92.8309795  22.7755580  93.9906806  93.7046308  21.8619760
  94.2995630  93.0073427  22.0458238  89.0156533 100.2268055  23.6707550
  88.7119671  99.6724044  24.2717958  88.3135954 100.4060265  23.1835585
  88.8672743 100.1712838  23.6877256  88.0722630  97.5368575  18.2352252
  88.3482365  96.8187488  17.8229820  88.6721300  98.1353495  18.0273358
  88.2015895  97.5188946  18.1433013  87.0774884 107.4417776  28.3779648
  86.9695239 107.4519838  29.2441706  87.2870666 108.2672556  28.1884602
  87.0924995 107.5658851  28.4783740  97.5714070  93.4519251  21.4101348
  96.9588383  93.9389653  21.7955080  97.6678245  92.7762742  21.9538999
  97.4951967  93.4237560  21.5480206  91.5733151  95.2082092  16.5098847
  92.0276897  95.3792653  17.2346692  92.0473197  94.5950203  16.1096623
  91.7101471  95.1432978  16.5572609  85.0948676 104.6930418  25.8401586
  84.5036610 105.3339917  25.8104601  85.8569700 105.1168036  25.8132885
  85.1196937 104.8506257  25.8316733  85.4909299  95.8532416  26.5069603
  85.9510781  95.9271346  27.2444727  85.5365406  96.6513670  26.1569425
  85.5659854  95.9826563  26.5642360  87.1392649  96.5199111  31.0741630
  86.7478214  95.8732458  31.5097408  87.3078512  97.1110546  31.6935886
  87.1063559  96.5113379  31.2304336 101.2139098 104.5236188  26.8378864
 101.2722222 104.9722837  27.5838840 100.5805565 104.9335001  26.4008944
 101.1290393 104.6509923  26.8831412  90.8325746  93.7074886  22.6475716
  89.9861791  93.8797693  22.5217066  90.8296879  92.9024229  22.9841544
  90.7072896  93.6135915  22.6786843  91.9024047  97.4850100  23.5137774
  91.4284001  96.9591862  24.0243085  92.2742183  96.9379573  22.9452635
  91.8873936  97.3266097  23.5052921  82.2797077  99.4821607  28.8821320
  83.1422690  99.3817316  28.7958649  81.9488860  98.9016316  28.3206892
  82.3582273  99.3813234  28.7866725  98.1660777 102.5452476  24.9244554
  97.9259000 101.7058891  24.9286981  98.6452784 102.6252642  25.6485328
  98.2012961 102.4333875  25.0319357 100.1665964  99.3253933  22.8773813
  99.9275734  99.2849767  22.0394598 100.3299866 100.1725085  23.0039534
 100.1556268  99.4446018  22.7727295  96.7711994 103.7103882  28.8078859
  97.4946193 103.2576409  28.6289878  96.5061957 103.9908548  28.0251186
  96.8393268 103.6854851  28.6657574  85.6398863  98.3064056  25.5431738
  85.0151933  98.3182448  24.9357690  85.3044458  98.7824231  26.1922978
  85.4984355  98.3782573  25.5488306  82.3524538 106.3664516  26.9835502
  81.8224463 105.6756955  27.0330477  82.6249632 106.3574701  26.1548211
  82.3149261 106.2631648  26.8682918  92.5530784 103.8087760  26.9573874
  91.9387777 103.2645811  27.2522509  93.0698069 103.2951997  26.4779690
  92.5386446 103.6524170  26.9298102  91.7927081 104.8792031  24.6918172
  91.3654689 104.2541749  24.2583608  91.7852025 104.5966952  25.5177179
  91.7286222 104.7444811  24.7498000  84.9089608  99.9157204  27.7606606
  85.0683095  99.1600528  28.1658328  84.7282502 100.4648143  28.4147344
  84.9054967  99.8851017  27.9169312  92.8509911  92.0818439  28.3157396
  92.3550472  92.2782113  27.6248962  93.6078973  92.4811107  28.1446197
  92.8896736  92.1696173  28.1877532  90.1212791  95.7560785  24.9060706
  90.1455278  95.2220897  24.2173486  90.3724264  95.2478094  25.5686297
  90.1622709  95.6021689  24.9025351  77.6320381 103.0392280  24.3403850
  77.5263830 102.9939124  23.4755934  76.8820601 103.3846061  24.6218135
  77.5055984 103.0833188  24.2541180  86.4014113  94.4831603  24.2866451
  86.4412485  94.9840810  25.0001158  85.5763778  94.5741997  24.0172374
  86.2853639  94.5713420  24.3516989  88.5843726 104.0492343  32.3886745
  87.7339356 104.1864058  32.5244390  88.7471854 103.3156122  32.8334447
  88.4827589 103.9606444  32.4742344  87.8228476 100.9992113  26.5840350
  86.9920406 101.1665931  26.3775598  87.7679994 100.6228064  27.3689235
  87.6917891 100.9681844  26.6688878  85.6312260  94.4901006  32.2196760
  86.2564963  93.9463139  32.4926193  85.1762740  94.0095924  31.6504551
  85.6560520  94.3390487  32.1758354  86.1964520  99.2747705  17.1130467
  86.3367481  99.7720169  17.8159109  86.6947053  98.5733999  17.2544681
  86.2905601  99.2449683  17.2382046  99.2047308 102.6730293  27.3109408
  99.7965149 103.3127544  27.3427606  99.6406303 101.9753330  27.6001475
  99.3565740 102.6648643  27.3590241  91.0340698 107.0947665  27.9367302
  90.5265789 107.6483512  28.3807933  90.7367344 107.1555955  27.1186077
  90.9145583 107.1853977  27.8815759  93.2002880  95.4600985  26.7791965
  93.6257952  95.0073511  26.1675492  92.5859874  94.9061056  27.0556753
  93.1731526  95.3114961  26.7296990  82.7317731 102.3382656  17.7112590
  83.2409960 102.9347164  18.0923896  83.2052003 102.0708630  17.0289010
  82.8761106 102.3868472  17.6667113  91.6397103  91.9316085  20.1882542
  90.9965421  91.7813731  20.7567681  91.2996510  91.6858430  19.4231647
  91.4942181  91.8728207  20.1585557  96.3924577  96.3431395  22.5202924
  96.7452187  95.9161118  23.1948723  95.5339379  96.2582239  22.6504000
  96.3174022  96.2676136  22.6397934  85.0908262  98.9738915  20.5785771
  84.3720251  99.3903048  20.8458634  85.4620625  99.5393154  20.0277409
  85.0400194  99.1188196  20.5368578  94.3907843  99.6066764  26.4687766
  94.3705770  99.4250059  27.3222545  94.4387044 100.4778782  26.4447350
  94.3942484  99.7083302  26.5911061  92.3354173 106.1953956  32.3936243
  92.2950028 105.5503633  31.8081399  93.1477491 106.1390573  32.7061655
  92.4497326 106.0912923  32.3533192  97.8248637  91.4649807  23.4487236
  97.3179502  90.7578947  23.3808414  98.6216071  91.1342996  23.5788313
  97.8675877  91.3122959  23.4586231  88.0231882  99.8250892  28.9486000
  87.5110785  99.2172075  29.3071032  87.8511378 100.5407485  29.4159976
  87.9221519  99.8414192  29.0702224  82.8697596  98.2688468  31.5988362
  82.7000187  98.9289843  31.0536569  82.4263546  98.4795029  32.3200851
  82.7796930  98.3974450  31.6249992  86.7957416  96.5092966  20.6415096
  87.2714782  96.8710046  20.0065277  86.2946015  97.1649433  20.9215239
  86.7922775  96.6587154  20.5891837  91.9000952  97.7475137  31.3888256
  92.4572382  97.5188947  30.7566721  91.5762017  98.5080803  31.1123468
  91.9347362  97.8258974  31.2544753  79.7699661 101.1735333  26.8576852
  79.2226380 100.5035979  26.9757720  80.5592039 100.8065181  26.9220319
  79.8051845 101.0200320  26.8845553  89.6184069 100.8342790  32.3540263
  90.3695396 101.1494467  32.6679817  89.8106646 100.6321961  31.5274185
  89.7575483 100.8510172  32.2783659  78.5286630 100.3856141  24.0122875
  78.3508391  99.9332750  24.7377791  78.2405652 101.1882303  24.1961353
  78.4599583 100.4378699  24.1466378  94.1910211 101.6413858  23.2500265
  94.6863877 100.9236854  23.2104286  93.3809987 101.3384656  23.1354752
  94.1454105 101.4911505  23.2273991  80.2659100 102.9183865  21.1244634
  79.4004620 102.9069555  21.0127405  80.3657916 102.7314088  21.9715773
  80.1533267 102.8889926  21.2333579  96.2562030 104.3917546  25.9377394
  96.6817102 103.8691968  25.3847819  95.8918950 104.9898383  25.4166017
  96.2648633 104.4027773  25.7786404  85.8916110 112.6881764  24.6974740
  86.2062669 113.5018152  24.7052521  86.3009523 112.3031982  25.3656899
  85.9984208 112.7510466  24.7978831  94.9317614 109.7153124  34.4470624
  95.0414580 108.9261684  34.8027371  95.2608511 109.6259060  33.6444962
  94.9970020 109.5858977  34.3813014  89.7610125  92.8779281  29.2236646
  89.8938030  92.0810274  29.5517622  90.1455277  93.4045684  29.8034922
  89.8366454  92.8379198  29.3580149  93.4814576 107.8969744  29.0306244
  92.9335522 107.2727628  28.7626310  93.9427605 108.0864016  28.3150324
  93.4681786 107.8328795  28.8856675  92.8342480  89.8009607  25.8217740
  92.0288444  89.6907337  26.1385578  92.7049215  89.9022063  24.9647605
  92.6962613  89.7993277  25.7425780  96.2908440  95.9655099  26.4157437
  95.7071429  96.4664305  26.0035004  96.6112734  95.4584655  25.7821760
  96.2521616  95.9646934  26.2615944  88.8303240  94.8795694  16.6916111
  89.6518934  95.0494007  16.4497806  88.3672890  95.0342955  15.9682409
  88.8834402  94.9277427  16.5487756  87.4198571  92.8738456  27.4714540
  87.9642984  92.5329583  28.0618882  87.4735507  93.7323917  27.6135825
  87.5087691  92.9493715  27.5796414  83.2329130 106.6354872  24.3453348
  83.8373988 106.5950706  23.7167169  83.0256443 107.4826024  24.3757404
  83.2918028 106.7542874  24.2569465  93.0472902 108.9020817  25.5615585
  93.8671276 108.7583783  25.8231881  92.7666980 109.5267016  26.1032023
  93.1269646 108.9731169  25.6803525  78.4680413 105.6189489  24.2152271
  78.3704691 104.8085761  24.5242328  79.2509282 105.5981283  23.8298539
  78.5696549 105.4956580  24.2039134  96.3977930 112.9790459  28.9740559
  95.7049726 112.5087439  29.2201290  97.0138257 112.7528764  29.5482266
  96.3862460 112.8757591  29.0949711  99.2037152 110.9888356  34.6966711
  98.8890593 111.7587918  34.4336274  98.8827085 110.4258612  34.1118938
  99.1096071 111.0198624  34.5708061  98.8353658 113.5885607  33.4351926
  98.0253433 113.8943386  33.3241768  99.3128344 114.3091189  33.5504510
  98.7857136 113.7400208  33.4358997  93.8418633 111.6595875  29.6613637
  93.3060823 111.0476233  29.9774404  93.9036398 112.2344011  30.3147303
  93.7714266 111.6542802  29.8049063 102.9068398 116.3519933  34.1161364
 103.3768030 116.9762050  34.5029238 102.9530279 115.6836909  34.6754579
 102.9836274 116.3454614  34.2561436 101.7989047 105.8836906  28.9613281
 102.4282165 106.4197207  28.6834351 101.9674910 105.7914265  29.8126846
 101.9166842 105.9498269  29.0461809 101.6002962 110.6708101  31.2339692
 102.4276391 110.3993250  31.2898307 101.6210808 111.4668943  31.5903510
 101.7255812 110.7487855  31.2954875  98.1125232 112.0384419  31.0741630
  97.7210798 111.3917766  31.5097408  98.2811095 112.6295854  31.6935886
  98.0796143 112.0298687  31.2304336  93.2529660 115.0006915  28.8821320
  94.1155273 114.9002624  28.7958649  92.9221443 114.4201624  28.3206892
  93.3314857 114.8998541  28.7866725  96.6044843 110.0086314  32.2196760
  97.2297547 109.4648447  32.4926193  96.1495323 109.5281232  31.6504551
  96.6293104 109.8575795  32.1758354  93.8430180 113.7873776  31.5988362
  93.6732770 114.4475151  31.0536569  93.3996130 113.9980337  32.3200851
  93.7529513 113.9159758  31.6249992 100.7342708 108.3964589  29.2236646
 100.8670614 107.5995582  29.5517622 101.1187861 108.9230992  29.8034922
 100.8099037 108.3564505  29.3580149  98.3931155 108.3923764  27.4714540
  98.9375568 108.0514891  28.0618882  98.4468091 109.2509225  27.6135825
  98.4820274 108.4679023  27.5796414  50.8567860  21.2599437  19.8211895
  51.5634627  20.7651468  19.9498830  51.0455796  21.7008518  19.0914553
  50.9895766  21.2517787  19.7320941  47.9960155  24.6826974  17.7125970
  48.0843500  24.4953114  18.5604181  48.4249867  24.0364403  17.3130817
  48.0722257  24.5589981  17.7797722  45.5630614  23.9658133  16.6943633
  45.0001449  23.5530743  17.2183294  46.3251638  23.8911039  17.1136776
  45.5925063  23.8935534  16.8336633  48.1080214  24.1135993  20.3769754
  48.8920630  24.2266840  20.7425496  47.9076808  23.2877130  20.5728440
  48.1946239  24.0082712  20.4604140  48.2650607  26.0246095  14.0236210
  47.4665853  25.7845595  14.2810078  48.7136619  26.0760487  14.7703257
  48.2125218  25.9968486  14.1721134  47.3251344  19.7706539  21.9156398
  46.5324325  20.0850051  22.1009017  47.4400271  19.9858008  21.0777182
  47.2246755  19.8490376  21.8194733  53.5755285  21.0435721  16.8626548
  53.3393922  20.2123786  16.7438608  54.2198514  20.9921328  17.4481392
  53.6349955  20.9133409  16.9312441  45.6132909  26.0258342  14.9789222
  45.5376580  25.3567153  15.5340010  45.5422768  26.7276130  15.4929888
  45.5913516  26.0303249  15.1366070  51.1991547  21.9988731  22.3894013
  52.0126412  21.7273880  22.5499146  51.0386513  21.6996271  21.5854209
  51.2961495  21.9143657  22.2939419  47.7356305  15.6971525  21.0501411
  48.2055936  16.3213641  21.4369285  47.7818185  15.0288501  21.6094626
  47.8124180  15.6906205  21.1901483  51.2112791  23.0595021  17.6616854
  51.8492512  22.5655217  17.3279310  50.5686883  22.9872422  17.0769081
  51.2107018  22.9754030  17.5259209  51.2667048  23.7514830  14.3022211
  52.0559426  23.4003895  14.4224292  51.4410645  24.5651218  14.0398845
  51.4087329  23.8200687  14.2810079  48.1374663  21.0590855  19.3276290
  48.0970517  20.4140532  18.7421446  48.9497981  21.0027473  19.6401702
  48.2517816  20.9549822  19.2873239  50.7338104  24.5790023  21.3810671
  50.8435069  23.7898584  21.7367418  51.0629001  24.4895959  20.5785009
  50.7990510  24.4495876  21.3153061  65.3207042  31.4222568   5.4598509
  65.2901047  32.2767205   5.6316778  65.9188391  31.1217861   6.0184652
  65.4044200  31.5039065   5.5673311  58.5206727  30.5098219  10.2151439
  57.6644623  30.6706718  10.2660556  58.5674381  29.6390283  10.2356500
  58.4005839  30.4049021  10.2257505  52.9047867  40.0460937   5.9788671
  52.1530766  39.6676475   5.7504716  53.3533879  40.0779371   5.2307481
  52.8597534  39.9946544   5.8346173  61.8300444  36.7784745  19.8211895
  62.5367211  36.2836776  19.9498830  62.0188379  37.2193826  19.0914553
  61.9628349  36.7703095  19.7320941  57.8977118  42.4200575   7.3485329
  58.2816497  42.9887474   6.8090105  57.8336259  41.6950086   6.8691145
  57.9450545  42.3976039   7.1979192  61.3658548  32.5690263  12.8583091
  61.9114508  33.2475350  12.9177060  61.3075425  32.4277724  11.9984672
  61.4374463  32.6482265  12.7395151  54.4832623  40.0579329   8.2451443
  54.5842986  39.2479683   8.5548571  53.8874368  39.9636276   7.6151122
  54.4105162  39.9244357   8.1977682  63.1423617  33.9974870   3.7316819
  63.0263143  34.7482556   4.1608957  63.9379504  33.7398824   3.9812906
  63.2428206  34.0709717   3.8320910  54.3233363  44.9756918   9.6466299
  54.9670818  45.4170083  10.0362458  54.6489618  44.1710345   9.5596558
  54.4665191  44.9222113   9.6911776  55.0253942  37.9868893   5.0186161
  55.3469783  38.5274101   4.4147469  55.6726039  37.4165665   5.1508451
  55.1679998  37.9828068   4.9493196  49.7056888  31.7937628  13.0131653
  49.5815585  32.3800074  13.6481472  50.3575172  31.2997824  13.3143928
  49.7830537  31.8076433  13.1517583  54.7315229  34.9699345  12.2919165
  55.3764231  34.4771788  11.9730113  54.9717006  35.1124132  13.1185243
  54.8625814  34.9176787  12.3668698  57.2701320  37.8154251  11.9426057
  57.5524563  37.0205657  11.7212813  57.9987481  38.2934838  11.9631118
  57.4190884  37.7688848  11.9129072  67.2519409  36.9213613   8.9161888
  66.4217112  37.1324257   9.0795304  67.2028661  36.0950668   8.6404172
  67.1226144  36.8303220   8.8999253  49.2414992  40.9585287   9.1459983
  48.7582570  41.6835776   9.1219567  50.0538310  41.2561417   9.2570141
  49.2905740  41.1087640   9.1587262  55.3129146  39.7517467  11.7509797
  54.7956088  39.3924882  11.1471106  56.0103537  39.2279642  11.7615864
  55.3394727  39.6215155  11.6640056  58.9692738  40.2012281  17.7125970
  59.0576084  40.0138422  18.5604181  59.3982451  39.5549711  17.3130817
  59.0454840  40.0775289  17.7797722  56.5363198  39.4843441  16.6943633
  55.9734033  39.0716051  17.2183294  57.2984221  39.4096347  17.1136776
  56.5657646  39.4120842  16.8336633  52.0959189  41.4741463   9.2980263
  52.7979769  40.9593452   9.3553019  52.0156672  41.8015614  10.1027138
  52.1882950  41.4455689   9.4253055  66.7473367  29.5684014  12.7112309
  65.9101788  29.6386201  12.9459904  66.7161598  29.5708509  11.8386612
  66.6191649  29.5794241  12.6171857  53.1438096  31.7117049  18.4260678
  53.3158600  31.6022944  19.2745959  53.6807453  32.3571455  18.1891870
  53.2483100  31.7909051  18.5165775  51.4209965  37.6647815   8.8065871
  52.2598864  37.8970747   8.8539632  51.4521734  36.7952126   8.7372906
  51.5491682  37.5704761   8.8030516  52.0462668  38.0848690  13.1079176
  52.5860893  37.9419821  13.7782549  51.3632614  38.4845441  13.4763203
  52.0254822  38.1228361  13.2613598  61.4703553  33.7639690   8.3024201
  62.2261068  34.1971205   8.3413109  61.5765877  33.1144460   8.8758837
  61.5973723  33.7317174   8.3922226  64.5083724  37.5912968   9.0526604
  64.0718956  37.5949710   9.8085575  64.1746639  38.2718467   8.6206181
  64.3946344  37.6925423   9.1007436  59.0812797  39.6321300  20.3769754
  59.8653214  39.7452148  20.7425496  58.8809392  38.8062438  20.5728440
  59.1678823  39.5268020  20.4604140  47.4499813  34.3048981  13.2613598
  47.1838228  33.4888097  13.4204588  47.4638377  34.3502136  12.3909113
  47.4124535  34.1905885  13.1567080  64.4281207  24.6326795  11.2956032
  65.0707115  24.7024900  11.8817947  64.6804227  23.9656018  10.7935574
  64.5603339  24.5453144  11.3083311  52.1998419  27.8427359  15.9080606
  51.5070216  27.3724339  16.1541337  52.8158747  27.6165663  16.4822313
  52.1882949  27.7394491  16.0289758  59.2383191  41.5431403  14.0236210
  58.4398436  41.3030903  14.2810078  59.6869202  41.5945795  14.7703257
  59.1857802  41.5153794  14.1721134  67.6428070  34.3093888   7.9446241
  68.3044504  33.7484556   7.8442149  67.0019482  33.8145918   8.2698932
  67.6456937  34.1530297   7.9778581  47.8593226  35.0907760  10.5425342
  47.6768800  35.0654646   9.6897634  48.5942895  35.5606698  10.5814251
  47.9407290  35.1569122  10.4223261  63.9292901  35.3259270   7.6858230
  64.1648490  35.4704469   6.8585080  64.0782464  36.0901678   8.0789743
  63.9858704  35.4598324   7.6221834  50.9238978  31.8092763  17.0507451
  51.6478950  31.7945793  17.5372346  51.0255115  32.5188118  16.5529419
  51.0457187  31.9117466  17.0486238  65.7583357  34.1660936   5.5227834
  66.0891575  34.6988576   4.9167928  66.3316446  34.2199824   6.1789784
  65.8917037  34.2530505   5.5305615  58.2983928  35.2891847  21.9156398
  57.5056908  35.6035359  22.1009017  58.4132855  35.5043316  21.0777182
  58.1979338  35.3675684  21.8194733  60.9715247  32.0125839   6.2051414
  61.0662101  32.7515133   6.6591039  60.3474090  31.5843314   6.6385978
  60.8924277  32.0587159   6.3359561  59.2267720  35.1912051  16.8541695
  59.8006582  34.5539295  17.0090258  59.1482524  35.1916134  15.9851352
  59.3000955  35.0977163  16.7488105  54.5831439  33.6235316   8.9062892
  54.3250683  32.7907051   8.8794191  54.6379922  33.8492929   8.0655392
  54.5531217  33.5333088   8.7783029  57.2239440  29.6496428  14.2520165
  56.8353873  29.2250646  13.5972356  56.5594138  29.8978578  14.7597192
  57.0686368  29.6235149  14.2308033  66.8662709  29.4071433   7.0267995
  66.6099274  28.5951374   6.8365878  67.7092023  29.4149000   6.7998182
  66.9528734  29.2883430   6.9652812  61.0465801  23.3471057  11.7644149
  61.4276313  22.6649228  12.1512024  60.2429086  23.0580659  11.5819814
  60.9842263  23.2038105  11.7948205  64.5487868  36.5621029  16.8626548
  64.3126506  35.7309094  16.7438608  65.1931097  36.5106636  17.4481392
  64.6082539  36.4318717  16.9312441  54.1986286  37.3516550   7.5769284
  54.8360233  37.1128298   8.1221078  54.6241358  37.5553709   6.8422445
  54.3562453  37.3467560   7.5486442  48.8898929  39.5904887  11.4603588
  48.9303074  39.8619738  10.6323368  49.4493453  40.1146795  11.8761376
  48.9782275  39.7080642  11.3995476  55.0057642  25.8525255  21.6306758
  54.6911083  26.6224818  21.3676320  54.6847574  25.2895511  21.0458985
  54.9116561  25.8835524  21.5048108  65.5724289  36.3465478  12.9254842
  65.2670106  37.0793534  13.2868158  64.8530505  35.9403407  12.6447628
  65.4211631  36.3947211  12.9367979  56.5807758  37.8288973   9.2563070
  56.6546767  37.6664145  10.1104920  57.3977265  38.0179162   9.0123552
  56.7124117  37.8325715   9.3461096  71.2726081  32.9858478  12.2523186
  71.2050581  33.0054437  11.3825773  71.2581743  33.8288805  12.4778857
  71.2604837  33.1132213  12.1575663  50.3413515  38.1746836   6.2857514
  49.5151633  38.4208573   6.1591793  50.4025506  38.0958916   7.1519572
  50.2287682  38.1991785   6.3946458  61.6822427  24.3893636  15.5764276
  62.4276019  24.2003446  15.1627701  61.2659732  24.9151874  15.0178132
  61.7307402  24.4395781  15.4328849  55.1212344  40.7923716   3.9876544
  55.4110642  40.4012697   3.2635770  55.8515825  40.9740421   4.4281819
  55.2719228  40.7617530   3.9459351  69.0584698  31.7602864  10.5269781
  69.6092620  31.1270933  10.7666873  69.0428814  32.2918257  11.2185285
  69.1369895  31.7451813  10.6648639  55.7107089  35.5941462  15.0729674
  55.2118783  36.3057229  15.1514563  56.5207313  35.9142128  15.0347837
  55.7563196  35.7468310  15.0786243  53.0618260  42.7691098   7.0536694
  52.8418555  42.4788453   7.8463361  52.8412782  42.1106053   6.5254606
  52.9965854  42.6290807   7.0925602  51.9735207  34.8564415   9.3192395
  51.6848455  34.2301886   9.8538123  52.8418555  34.7984702   9.3857076
  52.0595459  34.7551959   9.4083350  62.7613105  29.9999198   9.6374377
  62.4177870  29.2789533   9.9881627  62.8606147  29.7913049   8.7952735
  62.7255147  29.8623401   9.5646057  55.2286215  44.1420488   5.8367386
  55.8810273  43.6096930   6.0658412  54.5311824  43.7889140   6.2235260
  55.2216933  44.0110011   5.9279554  63.2226134  36.4624902   5.1798365
  63.7884166  37.1218112   5.0956908  62.5754037  36.8074600   5.6514767
  63.2104890  36.6106843   5.2371122  54.6374147  28.4522506  20.3691973
  53.8273923  28.7580286  20.2581815  55.1148834  29.1728088  20.4844557
  54.5877626  28.6037107  20.3699044  53.4965707  37.6668227  10.6174876
  52.9746460  37.8068519  11.3026740  53.8839727  36.9078891  10.8076993
  53.4769408  37.5753751  10.7475952  59.6932712  39.4063686   4.6035444
  59.4519388  38.6731547   4.1962509  59.8734045  39.9550543   3.9501778
  59.6840336  39.3786078   4.4465667  61.2804070  27.9190783  11.5133920
  60.4415171  27.9452062  11.2772183  61.3508437  28.5661518  12.0939267
  61.1672463  28.0186909  11.5643037  50.9718179  33.9885056  15.2391375
  51.4839276  34.2669310  14.5900135  50.6854522  34.7274351  15.6054188
  51.0053042  34.1387410  15.1981253  65.1561594  33.1258770   8.7995162
  65.0695568  33.2814196   9.6529941  64.7012074  33.7696845   8.4254567
  65.0764850  33.2434525   8.8702269  54.4901904  26.0811445  15.2992417
  54.2985101  26.0966579  16.1491840  55.3400500  26.2775119  15.2759071
  54.5877626  26.1125796  15.4215711  48.8748817  28.6102427  13.2776233
  48.7334309  27.7586367  13.4020741  49.1589381  28.6531087  12.4538439
  48.8956664  28.4902177  13.1743857  59.0287410  30.4469517   7.4220721
  58.7822124  30.3665268   8.2557510  59.3572533  29.6622985   7.2283249
  59.0408653  30.3195782   7.5168244  62.9235459  37.1552876  11.2107503
  62.7849818  37.8533922  11.7156245  62.1435457  37.0001533  10.8543684
  62.7878686  37.2353043  11.2333777  61.2613544  33.4549251  17.4629884
  61.2561582  32.5829068  17.4672311  61.9674538  33.6537421  16.9899340
  61.3658548  33.3553126  17.3936920  54.9884437  33.1826235  16.8343704
  55.1327813  33.7627443  16.1986814  55.3360086  33.5602532  17.5393559
  55.0611898  33.3246939  16.8442699  57.1604354  32.3816404  14.6168836
  56.4127669  32.5747418  14.2117114  57.3145880  31.5561623  14.3792957
  57.0726782  32.2881515  14.5214242  54.0612192  41.3729007  13.7004731
  54.2101756  40.8131923  13.0478136  54.8412194  41.4521009  14.0837250
  54.1986286  41.3014573  13.6601680  64.4188832  36.5131130   1.9724002
  64.0395640  35.7268268   1.9653291  63.7555077  37.0617987   1.8295646
  64.2647306  36.4775954   1.9504799  56.5865493  41.5443650  14.9789222
  56.5109164  40.8752461  15.5340010  56.5155352  42.2461438  15.4929888
  56.5646100  41.5488557  15.1366070  57.4006132  26.2766954  15.5064240
  57.8578746  27.0090929  15.6337032  57.4762460  25.8533420  16.2651495
  57.4797101  26.3224192  15.6365316  49.6439123  26.5232774  16.5953683
  49.1081312  25.9113132  16.9114451  49.7056887  27.0980910  17.2487350
  49.5734755  26.5179702  16.7389110  57.2435740  40.0644649   5.8112828
  58.0085631  39.7954293   5.4895492  57.1413830  39.5794659   6.5282891
  57.3417235  39.9534214   5.8692656  55.2788509  28.2669058  12.3506064
  54.4884584  28.0860518  12.6723399  55.6749132  27.4896011  12.3336358
  55.2205386  28.1256519  12.3958612  60.6632196  35.9011489  10.0765510
  59.9877198  35.6696721  10.5778897  60.6724572  35.2932671   9.4507615
  60.5650700  35.7770414  10.0581662  57.7926340  30.7429317  16.8329563
  57.7285481  31.6039274  16.7049699  57.9323527  30.4261311  16.0325114
  57.8041810  30.8229484  16.6957775  62.6648930  38.7576621   2.3075688
  62.7468768  39.5643607   1.9837138  63.1498672  38.7772580   3.0316461
  62.7486088  38.8797283   2.3662586  56.4745434  33.4361457  10.9745766
  56.0507683  33.6365956  10.2384784  56.2990289  32.5890305  11.0870065
  56.3856314  33.3410238  10.8819456  55.9757127  44.9511970  13.4367223
  56.4653057  44.2522759  13.2542887  55.4041359  44.6535840  14.0243280
  55.9641657  44.8038193  13.4968264  62.1724131  37.5174039  22.3894013
  62.9858996  37.2459188  22.5499146  62.0119097  37.2181579  21.5854209
  62.2694079  37.4328965  22.2939419  59.4496293  28.2007696  15.3289402
  59.6638262  27.5618611  14.7752756  58.8330192  28.6453520  14.8997263
  59.3901622  28.1717840  15.1839833  60.8600960  41.1226445   6.7743623
  60.4680752  40.8193160   6.0566489  61.0154033  41.9595535   6.5848576
  60.8254550  41.2010281   6.6400120  61.6135381  29.8096762  16.2672709
  60.8012062  29.5022652  16.3485882  62.0725315  29.3295762  16.8315421
  61.5615765  29.6933254  16.3627303  61.0240635  37.6876433   6.7149653
  60.6655290  37.8591076   7.4913686  60.5379346  38.1489639   6.1577652
  60.8999332  37.7815405   6.7474922  58.7088888  31.2156833  21.0501411
  59.1788519  31.8398949  21.4369285  58.7550768  30.5473808  21.6094626
  58.7856764  31.2091513  21.1901483  57.9352395  23.8606820  13.6043067
  57.5484148  23.8855852  14.3856597  57.4485332  23.2948499  13.1517584
  57.8064904  23.7802571  13.6530971  62.1845375  38.5780329  17.6616854
  62.8225095  38.0840525  17.3279310  61.5419466  38.5057730  17.0769081
  62.1839601  38.4939338  17.5259209  63.9102375  30.4269475  12.2282770
  63.4829983  30.3395824  11.4730869  63.2728428  30.5347251  12.8137614
  63.7531982  30.4302135  12.2028211  57.6009537  20.7473806  15.8953327
  58.2302655  21.2834106  15.6174398  57.7695400  20.6551165  16.7466893
  57.7187331  20.8135168  15.9801856  57.4023452  25.5345001  18.1679739
  58.2296881  25.2630150  18.2238353  57.4231298  26.3305842  18.5243557
  57.5276302  25.6124755  18.2294922  62.2399631  39.2700138  14.3022211
  63.0292009  38.9189202  14.4224292  62.4143229  40.0836526  14.0398845
  62.3819913  39.3385995  14.2810079  51.9792942  32.6808863  11.3550000
  51.1380948  32.5812738  11.5628893  52.1882950  33.4504344  11.7064320
  51.8857634  32.7800907  11.4377315  55.7909606  30.6090263  10.6047597
  55.4872744  30.0546251  11.2058005  55.0889027  30.7882473  10.1175631
  55.6425816  30.5535045  10.6217303  53.8527957  37.8239983  15.3119695
  53.7448312  37.8342045  16.1781753  54.0623739  38.6494764  15.1224649
  53.8678069  37.9481058  15.4123787  51.8701749  35.0752626  12.7741633
  51.2789683  35.7162124  12.7444648  52.6322773  35.4990243  12.7472932
  51.8950010  35.2328464  12.7656780  52.2662372  26.2354623  13.4409650
  52.7263854  26.3093553  14.1784774  52.3118479  27.0335878  13.0909472
  52.3412928  26.3648771  13.4982407  53.9145722  26.9021318  18.0081677
  53.5231287  26.2554665  18.4437455  54.0831585  27.4932754  18.6275933
  53.8816632  26.8935586  18.1644383  67.9892171  34.9058395  13.7718911
  68.0475295  35.3545044  14.5178887  67.3558639  35.3157208  13.3348991
  67.9043466  35.0332130  13.8171459  61.6291266  40.5261937  10.2073657
  61.4310954  41.0152752   9.5129868  61.0078977  40.7303179  10.7857790
  61.5078830  40.6278476  10.1896880  58.6777120  27.8672307  10.4477821
  58.2037074  27.3414070  10.9583132  59.0495256  27.3201780   9.8792682
  58.6627009  27.7088304  10.4392968  49.0550150  29.8643814  15.8161366
  49.9175763  29.7639523  15.7298696  48.7241933  29.2838523  15.2546939
  49.1335346  29.7635441  15.7206772  64.9413851  32.9274683  11.8584601
  64.7012073  32.0881098  11.8627028  65.4205858  33.0074850  12.5825375
  64.9766034  32.8156083  11.9659403  66.9419038  29.7076140   9.8113860
  66.7028807  29.6671974   8.9734645  67.1052939  30.5547292   9.9379581
  66.9309341  29.8268225   9.7067342  63.5465068  34.0926090  15.7418905
  64.2699267  33.6398616  15.5629925  63.2815030  34.3730755  14.9591233
  63.6146341  34.0677058  15.5997621  52.4151936  28.6886263  12.4771785
  51.7905006  28.7004655  11.8697737  52.0797531  29.1646438  13.1263025
  52.2737428  28.7604780  12.4828353  49.1277612  36.7486723  13.9175549
  48.5977536  36.0579162  13.9670524  49.4002705  36.7396909  13.0888257
  49.0902334  36.6453855  13.8022965  59.3283857  34.1909968  13.8913920
  58.7140850  33.6468018  14.1862556  59.8451142  33.6774204  13.4119737
  59.3139520  34.0346377  13.8638149  58.5680154  35.2614238  11.6258219
  58.1407762  34.6363957  11.1923654  58.5605099  34.9789160  12.4517226
  58.5039296  35.1267019  11.6838047  51.6842681  30.2979411  14.6946653
  51.8436168  29.5422735  15.0998375  51.5035575  30.8470351  15.3487391
  51.6808040  30.2673225  14.8509359  59.6262984  22.4640647  15.2497443
  59.1303546  22.6604321  14.5589009  60.3832046  22.8633315  15.0786244
  59.6649809  22.5518380  15.1217579  56.8965864  26.1382992  11.8400753
  56.9208351  25.6043105  11.1513533  57.1477338  25.6300301  12.5026344
  56.9375783  25.9843896  11.8365398  55.3596799  34.4314551  19.3226792
  54.5092430  34.5686265  19.4584437  55.5224927  33.6978329  19.7674494
  55.2580663  34.3428652  19.4082391  54.5981550  31.3814320  13.5180396
  53.7673479  31.5488138  13.3115645  54.5433067  31.0050271  14.3029282
  54.4670965  31.3504052  13.6028925  52.4065333  24.8723213  19.1536807
  53.0318036  24.3285346  19.4266239  51.9515813  24.3918131  18.5844597
  52.4313593  24.7212695  19.1098401  65.9800382  33.0552500  14.2449455
  66.5718222  33.6949751  14.2767653  66.4159376  32.3575537  14.5341522
  66.1318813  33.0470851  14.2930288  57.8093771  37.4769873  14.8707349
  57.3018863  38.0305720  15.3147980  57.5120418  37.5378163  14.0526124
  57.6898656  37.5676184  14.8155806  59.9755954  25.8423192  13.7132012
  60.4011025  25.3895719  13.1015538  59.3612947  25.2883263  13.9896799
  59.9484599  25.6937169  13.6637037  60.4201552  41.3933131   2.8011293
  59.7030861  41.2193993   2.3358530  61.0708289  41.1585703   2.2686779
  60.4103402  41.3328923   2.6540510  63.0049523  30.2697719   6.5452598
  62.3340713  30.8127421   6.4165663  63.6989273  30.7392574   6.3034292
  63.0078390  30.4195990   6.4908125  57.0536257  42.4094431  11.7764356
  56.8301911  41.6513260  12.1448382  56.5646100  42.4392452  11.0544796
  56.9479706  42.3016656  11.7241097  63.1677650  26.7253603   9.4542971
  63.5205261  26.2983326  10.1288770  62.3092452  26.6404446   9.5844047
  63.0927095  26.6498343   9.5737981  61.1660916  29.9888971  13.4027813
  61.1458844  29.8072266  14.2562592  61.2140117  30.8600990  13.3787397
  61.1695557  30.0905510  13.5251108  59.1107246  36.5776163  19.3276290
  59.0703101  35.9325840  18.7421446  59.9230564  36.5212781  19.6401702
  59.2250400  36.4735130  19.2873239  55.7014714  42.6294889   9.2301441
  55.2875112  41.9669019   8.8405282  56.3862088  42.7772748   8.7097135
  55.7413085  42.5535547   9.0957938  59.0680008  41.7884974   9.9825057
  58.6696291  41.8987245   9.2145877  58.4531227  41.9967041  10.5651617
  58.9178897  41.8358542   9.9556356  64.6001711  21.8472015  10.3827283
  64.0932575  21.1401154  10.3148461  65.3969144  21.5165203  10.5128360
  64.6428950  21.6945166  10.3926278  54.7984955  30.2073100  15.8826047
  54.2863858  29.5994283  16.2411079  54.6264451  30.9229692  16.3500023
  54.6974592  30.2236399  16.0042271  49.6450670  28.6510675  18.5328409
  49.4753260  29.3112050  17.9876616  49.2016619  28.8617236  19.2540898
  49.5550003  28.7796657  18.5590039  66.8021850  36.3636941   3.3668148
  67.1855456  37.1128297   3.5966245  66.0065964  36.6102761   3.1080137
  66.7415633  36.5106635   3.3625721  58.6754025  28.1297344  18.3228303
  59.2325455  27.9011154  17.6906768  58.3515090  28.8903010  18.0463515
  58.7100435  28.2081181  18.1884800  46.5452734  31.5557541  13.7916899
  45.9979453  30.8858186  13.9097767  47.3345112  31.1887389  13.8560366
  46.5804918  31.4022527  13.8185599  56.3937142  31.2164998  19.2880310
  57.1448469  31.5316675  19.6019864  56.5859719  31.0144169  18.4614232
  56.5328557  31.2332380  19.2123706  60.9663285  32.0236066  10.1840312
  61.4616950  31.3059061  10.1444333  60.1563060  31.7206864  10.0694799
  60.9207178  31.8733712  10.1614038  63.0315104  34.7739753  12.8717441
  63.4570175  34.2514175  12.3187866  62.6672023  35.3720591  12.3506064
  63.0401706  34.7849980  12.7126451  52.6669183  43.0703971  11.6314787
  52.9815742  43.8840359  11.6392568  53.0762597  42.6854190  12.2996946
  52.7737281  43.1332673  11.7318878  59.6193703  38.4874018   9.2018598
  60.0904881  39.2014280   9.3708584  59.9553881  37.8872768   9.7378468
  59.7388818  38.5045482   9.3050974  61.7070688  40.0975331  21.3810671
  61.8167653  39.3083892  21.7367418  62.0361584  40.0081267  20.5785009
  61.7723093  39.9681184  21.3153061  56.5363198  23.2601488  16.1576693
  56.6691103  22.4632482  16.4857669  56.9208351  23.7867891  16.7374969
  56.6119527  23.2201405  16.2920196  60.2567649  38.2791952  15.9646291
  59.7088595  37.6549835  15.6966356  60.7180678  38.4686224  15.2490370
  60.2434859  38.2151002  15.8196722  63.0661514  26.3477306  13.3497483
  62.4824502  26.8486513  12.9375051  63.3865808  25.8406862  12.7161807
  63.0274689  26.3469141  13.1955991  54.1951645  23.2560663  14.4054587
  54.7396058  22.9151790  14.9958929  54.2488580  24.1146125  14.5475872
  54.2840764  23.3315923  14.5136460  50.0082203  37.0177079  11.2793395
  50.6127061  36.9772913  10.6507216  49.8009516  37.8648231  11.3097451
  50.0671101  37.1365082  11.1909511  59.8225976  39.2843024  12.4955632
  60.6424349  39.1405991  12.7571927  59.5420053  39.9089223  13.0372070
  59.9022719  39.3553377  12.6143572  45.2433486  36.0011697  11.1492318
  45.1457764  35.1907968  11.4582375  46.0262355  35.9803490  10.7638586
  45.3449622  35.8778787  11.1379181  76.2939626  46.9407876   5.4598509
  76.2633630  47.7952513   5.6316778  76.8920975  46.6403169   6.0184652
  76.3776784  47.0224373   5.5673311  69.4939311  46.0283527  10.2151439
  68.6377206  46.1892025  10.2660556  69.5406965  45.1575591  10.2356500
  69.3738422  45.9234329  10.2257505  63.8780451  55.5646245   5.9788671
  63.1263350  55.1861783   5.7504716  64.3266462  55.5964679   5.2307481
  63.8330117  55.5131852   5.8346173  72.8033027  52.2970053  19.8211895
  73.5099795  51.8022084  19.9498830  72.9920963  52.7379134  19.0914553
  72.9360933  52.2888403  19.7320941  69.3305410  55.9871615   1.4074218
  68.9956779  56.6648536   0.9718440  69.8432281  55.5976926   0.8191089
  69.3570992  56.0296193   1.2561009  68.8709702  57.9385883   7.3485329
  69.2549081  58.5072782   6.8090105  68.8068843  57.2135394   6.8691145
  68.9183129  57.9161347   7.1979192  72.3391132  48.0875571  12.8583091
  72.8847092  48.7660658  12.9177060  72.2808008  47.9463032  11.9984672
  72.4107046  48.1667573  12.7395151  65.4565207  55.5764637   8.2451443
  65.5575570  54.7664991   8.5548571  64.8606952  55.4821584   7.6151122
  65.3837745  55.4429665   8.1977682  74.1156200  49.5160178   3.7316819
  73.9995726  50.2667864   4.1608957  74.9112087  49.2584132   3.9812906
  74.2160790  49.5895025   3.8320910  65.2965946  60.4942226   9.6466299
  65.9403402  60.9355390  10.0362458  65.6222202  59.6895653   9.5596558
  65.4397775  60.4407421   9.6911776  58.6530251  51.5984924   7.8703777
  58.4180435  50.7652576   7.7636046  58.7915892  51.8789589   7.0564978
  58.6385913  51.5168427   7.7346132  60.9520338  43.7670654  10.7688085
  60.3325370  43.1763302  10.5998099  60.8504202  44.3582090  10.1352408
  60.8458014  43.7674737  10.6493074  65.9986526  53.5054201   5.0186161
  66.3202367  54.0459409   4.4147469  66.6458623  52.9350973   5.1508451
  66.1412581  53.5013376   4.9493196  68.0488234  45.5070196   5.1020548
  68.7468399  45.6858324   5.5942011  68.3640567  44.9840536   4.4790937
  68.1983571  45.4563968   5.0822558  60.6789471  47.3122936  13.0131653
  60.5548168  47.8985382  13.6481472  61.3307756  46.8183132  13.3143928
  60.7563121  47.3261741  13.1517583  68.2376169  51.8940641   5.0900339
  68.6769805  51.2857742   5.5355112  68.0880832  51.5148015   4.3185804
  68.2797635  51.7479112   5.0419506  65.7047812  50.4884653  12.2919165
  66.3496815  49.9957096  11.9730113  65.9449589  50.6309440  13.1185243
  65.8358398  50.4362095  12.3668698  68.2433904  53.3339559  11.9426057
  68.5257147  52.5390965  11.7212813  68.9720064  53.8120146  11.9631118
  68.3923468  53.2874156  11.9129072  66.2215098  40.8762593   9.1841822
  65.8918428  41.3273736   8.5145521  65.5460099  40.7978756   9.7314829
  66.0725534  40.9313728   9.1665046  71.8385506  50.2467823   2.0431108
  71.7536801  51.1028789   2.1880677  72.3269889  49.9712147   2.7113267
  71.8974403  50.3325144   2.1633190  73.4291505  36.8648116   7.4291433
  73.1144946  37.5551594   7.8611855  72.9118447  36.8092898   6.7276934
  73.3055976  36.9583004   7.3888382  72.7703939  46.8652617   3.5428843
  72.2415411  47.0812250   4.2026150  73.2928959  47.5588755   3.4629813
  72.7692392  46.9995754   3.6284443  78.2251992  52.4398921   8.9161888
  77.3949695  52.6509565   9.0795304  78.1761244  51.6135976   8.6404172
  78.0958728  52.3488527   8.8999253  64.6603547  50.7615833   2.3436311
  64.0760762  51.2665865   2.7502175  64.2573642  50.5358220   1.6032903
  64.5142851  50.8024082   2.2941337  60.2147576  56.4770595   9.1459983
  59.7315154  57.2021084   9.1219567  61.0270894  56.7746725   9.2570141
  60.2638323  56.6272948   9.1587262  66.2861730  55.2702775  11.7509797
  65.7688671  54.9110190  11.1471106  66.9836121  54.7464950  11.7615864
  66.3127311  55.1400463  11.6640056  69.9425322  55.7197589  17.7125970
  70.0308668  55.5323730  18.5604181  70.3715034  55.0735019  17.3130817
  70.0187424  55.5960597  17.7797722  67.5095781  55.0028749  16.6943633
  66.9466616  54.5901359  17.2183294  68.2716805  54.9281655  17.1136776
  67.5390230  54.9306150  16.8336633  69.1180761  47.0081486   0.8205232
  69.3576765  47.2159469   0.0080575  69.4396602  46.2038994   0.9294177
  69.2017919  46.9195587   0.7165785  64.4271052  38.9374881   4.6664770
  65.1817020  39.3053198   4.4281820  64.2498586  39.3114436   5.4343950
  64.5125530  39.0473069   4.7449658  63.0691773  56.9926771   9.2980263
  63.7712352  56.4778760   9.3553019  62.9889256  57.3200922  10.1027138
  63.1615533  56.9640997   9.4253055  77.7205950  45.0869322  12.7112309
  76.8834371  45.1571509  12.9459904  77.6894181  45.0893817  11.8386612
  77.5924233  45.0979549  12.6171857  64.1170679  47.2302357  18.4260678
  64.2891183  47.1208252  19.2745959  64.6540037  47.8756763  18.1891870
  64.2215683  47.3094359  18.5165775  62.7828116  41.3445200   1.3642883
  62.6003690  41.5617081   0.5383876  63.6453729  41.4584213   1.4201497
  62.8832706  41.3935098   1.2497370  62.3942548  53.1833122   8.8065871
  63.2331448  53.4156055   8.8539632  62.4254317  52.3137434   8.7372906
  62.5224266  53.0890069   8.8030516  63.0195251  53.6033998  13.1079176
  63.5593476  53.4605129  13.7782549  62.3365198  54.0030748  13.4763203
  62.9987405  53.6413669  13.2613598  68.4627836  38.3471611   4.3991907
  69.1913996  38.1687566   3.9530063  68.5522728  39.1889691   4.6099085
  68.5834498  38.4455489   4.3645424  72.4436136  49.2824998   8.3024201
  73.1993651  49.7156513   8.3413109  72.5498461  48.6329768   8.8758837
  72.5706307  49.2502482   8.3922226  75.4816307  53.1098276   9.0526604
  75.0451539  53.1135018   9.8085575  75.1479223  53.7903775   8.6206181
  75.3678927  53.2110731   9.1007436  70.0545381  55.1506608  20.3769754
  70.8385798  55.2637456  20.7425496  69.8541976  54.3247745  20.5728440
  70.1411406  55.0453328  20.4604140  58.4232396  49.8234288  13.2613598
  58.1570812  49.0073405  13.4204588  58.4370961  49.8687444  12.3909113
  58.3857119  49.7091193  13.1567080  75.4013790  40.1512103  11.2956032
  76.0439699  40.2210208  11.8817947  75.6536811  39.4841326  10.7935574
  75.5335922  40.0638452  11.3083311  62.3290143  44.6219373  -0.1234644
  61.6148321  44.3357552   0.2887788  62.8134112  44.9615999   0.5171743
  62.2949507  44.6301023   0.0320991  63.1731003  43.3612667  15.9080606
  62.4802800  42.8909646  16.1541337  63.7891330  43.1350971  16.4822313
  63.1615533  43.2579799  16.0289758  70.2115774  57.0616710  14.0236210
  69.4131020  56.8216211  14.2810078  70.6601786  57.1131103  14.7703257
  70.1590386  57.0339102  14.1721134  78.6160654  49.8279195   7.9446241
  79.2777088  49.2669864   7.8442149  77.9752066  49.3331226   8.2698932
  78.6189521  49.6715604   7.9778581  69.5037461  53.1249327   0.2527164
  69.9188610  52.7934351  -0.4388340  68.6729391  52.8918229   0.1247301
  69.4425470  53.0420583   0.1318012  58.8325810  50.6093068  10.5425342
  58.6501383  50.5839954   9.6897634  59.5675479  51.0792006  10.5814251
  58.9139874  50.6754430  10.4223261  74.9025484  50.8444578   7.6858230
  75.1381073  50.9889777   6.8585080  75.0515048  51.6086986   8.0789743
  74.9591288  50.9783632   7.6221834  61.8971562  47.3278071  17.0507451
  62.6211534  47.3131101  17.5372346  61.9987698  48.0373426  16.5529419
  62.0189771  47.4302774  17.0486238  76.7315941  49.6846244   5.5227834
  77.0624158  50.2173884   4.9167928  77.3049029  49.7385132   6.1789784
  76.8649620  49.7715813   5.5305615  69.2716511  50.8077155  21.9156398
  68.4789492  51.1220667  22.1009017  69.3865438  51.0228624  21.0777182
  69.1711922  50.8860992  21.8194733  71.9447830  47.5311147   6.2051414
  72.0394685  48.2700441   6.6591039  71.3206674  47.1028622   6.6385978
  71.8656860  47.5772467   6.3359561  70.2000304  50.7097359  16.8541695
  70.7739166  50.0724603  17.0090258  70.1215108  50.7101442  15.9851352
  70.2733539  50.6162471  16.7488105  58.7996720  47.4886569  10.6924409
  59.3770223  47.3523019  11.3316654  58.1010782  47.0322353  10.9469993
  58.7817742  47.4008835  10.8246698  72.1970851  49.3759886  -0.5611634
  72.1151014  49.4462073   0.3043353  72.8350572  49.9389630  -0.7527894
  72.2790689  49.4698857  -0.4621685  65.5564023  49.1420624   8.9062892
  65.2983267  48.3092359   8.8794191  65.6112505  49.3678237   8.0655392
  65.5263800  49.0518396   8.7783029  70.6365073  41.2449075   9.0066985
  69.9321399  40.7558260   9.1650904  70.6850047  41.2571549   8.1355429
  70.5395124  41.1738723   8.9006324  64.5298735  46.6958387   9.3927787
  63.9548326  46.8550555  10.0291748  64.1534411  46.0593796   8.9296237
  64.3901547  46.6256200   9.4182345  68.1972023  45.1681736  14.2520165
  67.8086456  44.7435954  13.5972356  67.5326722  45.4163886  14.7597192
  68.0418951  45.1420457  14.2308033  77.8395293  44.9256741   7.0267995
  77.5831857  44.1136682   6.8365878  78.6824606  44.9334308   6.7998182
  77.9261318  44.8068738   6.9652812  54.2755554  46.3398461   7.4072227
  54.3615805  45.9630330   8.1885757  54.9031351  45.9658907   6.9292186
  54.3812105  46.2283944   7.4517705  72.0198385  38.8656365  11.7644149
  72.4008897  38.1834536  12.1512024  71.2161669  38.5765967  11.5819814
  71.9574847  38.7223413  11.7948205  69.3010962  49.3980341   2.4496972
  70.1151600  49.6895233   2.3379743  69.2370103  48.7440203   1.8755265
  69.4113701  49.3445535   2.3485809  75.5220452  52.0806337  16.8626548
  75.2859089  51.2494402  16.7438608  76.1663681  52.0291944  17.4481392
  75.5815123  51.9504025  16.9312441  65.1718870  52.8701858   7.5769284
  65.8092817  52.6313606   8.1221078  65.5973941  53.0739017   6.8422445
  65.3295036  52.8652868   7.5486442  59.8631512  55.1090195  11.4603588
  59.9035658  55.3805046  10.6323368  60.4226036  55.6332103  11.8761376
  59.9514858  55.2265950  11.3995476  65.8121685  48.0904148   1.9144174
  66.1966838  47.8711855   2.6660719  65.5633305  48.9167093   2.0445250
  65.8323758  48.1802294   2.0445250  65.9790225  41.3710563  21.6306758
  65.6643666  42.1410126  21.3676320  65.6580158  40.8080819  21.0458985
  65.8849144  41.4020832  21.5048108  76.5456872  51.8650785  12.9254842
  76.2402689  52.5978842  13.2868158  75.8263088  51.4588715  12.6447628
  76.3944215  51.9132518  12.9367979  67.5540342  53.3474281   9.2563070
  67.6279350  53.1849453  10.1104920  68.3709848  53.5364470   9.0123552
  67.6856700  53.3511023   9.3461096  82.2458665  48.5043786  12.2523186
  82.1783165  48.5239745  11.3825773  82.2314327  49.3474113  12.4778857
  82.2337421  48.6317521  12.1575663  61.3146099  53.6932143   6.2857514
  60.4884216  53.9393881   6.1591793  61.3758090  53.6144224   7.1519572
  61.2020266  53.7177092   6.3946458  63.5322122  39.7601084   7.2452954
  62.6644548  39.8323684   7.3110563  63.8197327  40.5623163   7.4340929
  63.4461870  39.8895232   7.2827721  72.6555011  39.9078944  15.5764276
  73.4008603  39.7188754  15.1627701  72.2392316  40.4337182  15.0178132
  72.7039985  39.9581089  15.4328849  66.0944928  56.3109024   3.9876544
  66.3843226  55.9198005   3.2635770  66.8248408  56.4925729   4.4281819
  66.2451812  56.2802837   3.9459351  80.0317282  47.2788172  10.5269781
  80.5825203  46.6456241  10.7666873  80.0161397  47.8103565  11.2185285
  80.1102478  47.2637121  10.6648639  66.6839673  51.1126770  15.0729674
  66.1851366  51.8242537  15.1514563  67.4939897  51.4327436  15.0347837
  66.7295779  51.2653618  15.0786243  64.0350843  58.2876406   7.0536694
  63.8151139  57.9973761   7.8463361  63.8145365  57.6291361   6.5254606
  63.9698437  58.1476115   7.0925602  62.9467790  50.3749723   9.3192395
  62.6581039  49.7487194   9.8538123  63.8151138  50.3170010   9.3857076
  63.0328042  50.2737267   9.4083350  73.7345688  45.5184506   9.6374377
  73.3910454  44.7974841   9.9881627  73.8338731  45.3098357   8.7952735
  73.6987731  45.3808709   9.5646057  66.2018799  59.6605796   5.8367386
  66.8542857  59.1282238   6.0658412  65.5044408  59.3074448   6.2235260
  66.1949517  59.5295319   5.9279554  63.1500064  52.0144974   5.2434760
  63.9046032  52.3958013   5.4570223  62.5570676  52.4656117   5.6981457
  63.1736777  52.1373801   5.3417639  74.1958717  51.9810210   5.1798365
  74.7616750  52.6403420   5.0956908  73.5486621  52.3259908   5.6514767
  74.1837474  52.1292151   5.2371122  65.6106731  43.9707814  20.3691973
  64.8006506  44.2765594  20.2581815  66.0881417  44.6913396  20.4844557
  65.5610210  44.1222415  20.3699044  64.4698290  53.1853535  10.6174876
  63.9479044  53.3253827  11.3026740  64.8572311  52.4264199  10.8076993
  64.4501991  53.0939059  10.7475952  61.4589474  43.2359344   4.6869830
  61.1714270  42.8660614   3.9501778  62.1459943  43.7054199   4.4253535
  61.5178372  43.2506313   4.5384906  70.6665295  54.9248994   4.6035444
  70.4251971  54.1916855   4.1962509  70.8466628  55.4735851   3.9501778
  70.6572919  54.8971385   4.4465667  65.8964616  50.2157554   6.0156367
  65.7007399  50.8232289   5.4216670  66.1198962  49.5225498   5.5348041
  65.8999257  50.2035080   5.8572448  64.2943146  47.1012292   6.1337235
  65.0165798  47.2653450   5.6741041  63.8151139  47.8221957   6.0276575
  64.3306877  47.2310522   6.0502849  72.2536654  43.4376091  11.5133920
  71.4147754  43.4637370  11.2772183  72.3241021  44.0846826  12.0939267
  72.1405047  43.5372217  11.5643037  61.9450763  49.5070364  15.2391375
  62.4571860  49.7854618  14.5900135  61.6587105  50.2459658  15.6054188
  61.9785626  49.6572718  15.1981253  70.7005932  40.3361468   6.2461536
  71.4032285  40.1369216   5.7681494  70.4350121  39.5637410   6.5530379
  70.7652564  40.1924434   6.2206978  76.1294177  48.6444078   8.7995162
  76.0428152  48.7999504   9.6529941  75.6744657  49.2882153   8.4254567
  76.0497434  48.7619833   8.8702269  59.0317669  44.0140556   5.5355111
  59.1333805  44.8166718   5.8636087  59.8273556  43.8127892   5.2378192
  59.1645575  44.1026455   5.5390467  65.4634488  41.5996753  15.2992417
  65.2717685  41.6151887  16.1491840  66.3133084  41.7960427  15.2759071
  65.5610210  41.6311104  15.4215711  59.8481401  44.1287734  13.2776233
  59.7066893  43.2771675  13.4020741  60.1321964  44.1716395  12.4538439
  59.8689247  44.0087484  13.1743857  70.0019993  45.9654825   7.4220721
  69.7554708  45.8850576   8.2557510  70.3305116  45.1808292   7.2283249
  70.0141237  45.8381090   7.5168244  73.8968042  52.6738184  11.2107503
  73.7582402  53.3719230  11.7156245  73.1168040  52.5186840  10.8543684
  73.7611269  52.7538351  11.2333777  72.2346127  48.9734559  17.4629884
  72.2294166  48.1014376  17.4672311  72.9407121  49.1722729  16.9899340
  72.3391131  48.8738434  17.3936920  65.9617021  48.7011543  16.8343704
  66.1060396  49.2812751  16.1986814  66.3092669  49.0787840  17.5393559
  66.0344482  48.8432247  16.8442699  68.1336938  47.9001712  14.6168836
  67.3860252  48.0932726  14.2117114  68.2878463  47.0746931  14.3792957
  68.0459366  47.8066823  14.5214242  65.0344776  56.8914315  13.7004731
  65.1834339  56.3317231  13.0478136  65.8144778  56.9706317  14.0837250
  65.1718869  56.8199881  13.6601680  75.3921415  52.0316438   1.9724002
  75.0128224  51.2453576   1.9653291  74.7287661  52.5803295   1.8295646
  75.2379890  51.9961262   1.9504799  67.5598076  57.0628958  14.9789222
  67.4841747  56.3937769  15.5340010  67.4887935  57.7646746  15.4929888
  67.5378683  57.0673865  15.1366070  68.3738715  41.7952262  15.5064240
  68.8311329  42.5276237  15.6337032  68.4495044  41.3718728  16.2651495
  68.4529685  41.8409500  15.6365316  60.6171706  42.0418082  16.5953683
  60.0813896  41.4298440  16.9114451  60.6789471  42.6166218  17.2487350
  60.5467339  42.0365010  16.7389110  72.8466041  34.9742138   9.3758083
  72.9649609  35.4318601   8.6425385  72.6728217  34.1687399   9.0894300
  72.8385212  34.9235910   9.2259016  68.2168323  55.5829957   5.8112828
  68.9818214  55.3139601   5.4895492  68.1146413  55.0979967   6.5282891
  68.3149819  55.4719521   5.8692656  66.2521093  43.7854366  12.3506064
  65.4617168  43.6045826  12.6723399  66.6481716  43.0081319  12.3336358
  66.1937969  43.6441827  12.3958612  70.7386984  52.6142141  -2.2087223
  71.5059969  52.6742266  -2.6181371  70.2918293  52.0422582  -2.6930904
  70.7860411  52.5378716  -2.3409512  71.6364779  51.4196796  10.0765510
  70.9609781  51.1882029  10.5778897  71.6457155  50.8117979   9.4507615
  71.5383284  51.2955722  10.0581662  68.7658923  46.2614625  16.8329563
  68.7018064  47.1224582  16.7049699  68.9056111  45.9446619  16.0325114
  68.7774393  46.3414792  16.6957775  73.6381514  54.2761929   2.3075688
  73.7201351  55.0828915   1.9837138  74.1231256  54.2957888   3.0316461
  73.7218672  54.3982591   2.3662586  67.4478017  48.9546765  10.9745766
  67.0240266  49.1551264  10.2384784  67.2722872  48.1075613  11.0870065
  67.3588898  48.8595546  10.8819456  66.9489711  60.4697278  13.4367223
  67.4385641  59.7708067  13.2542887  66.3773943  60.1721148  14.0243280
  66.9374241  60.3223501  13.4968264  62.7360462  49.4498816   6.4073738
  62.8925081  49.3845619   7.2629730  63.0761055  50.2247369   6.1952418
  62.8093697  49.5548014   6.5028332  69.2739607  48.8256700   5.2767101
  69.8155152  48.3227081   5.7405722  69.5886166  48.7721894   4.4656587
  69.4004004  48.7436121   5.2250913  73.1456714  53.0359347  22.3894013
  73.9591579  52.7644496  22.5499146  72.9851681  52.7366887  21.5854209
  73.2426663  52.9514273  22.2939419  67.4426056  54.2174051   2.5607129
  67.5118877  53.3588590   2.7000130  68.2214512  54.4345932   2.2326154
  67.5678907  54.1226915   2.5324287  70.4228876  43.7193004  15.3289402
  70.6370846  43.0803918  14.7752756  69.8062775  44.1638828  14.8997263
  70.3634205  43.6903148  15.1839833  71.8333544  56.6411753   6.7743623
  71.4413336  56.3378468   6.0566489  71.9886616  57.4780843   6.5848576
  71.7987134  56.7195589   6.6400120  59.3094724  46.6333767   6.7234505
  59.6893688  47.0518312   6.0594773  58.7350088  47.2147222   7.0303349
  59.2806049  46.7811625   6.6711246  72.5867964  45.3282069  16.2672709
  71.7744646  45.0207960  16.3485882  73.0457899  44.8481070  16.8315421
  72.5348349  45.2118562  16.3627303  71.9973219  53.2061741   6.7149653
  71.6387874  53.3776384   7.4913686  71.5111930  53.6674947   6.1577652
  71.8731916  53.3000712   6.7474922  69.8143605  36.8292940  10.3176745
  68.9437163  36.8031661  10.2710054  70.0683946  36.6570132   9.5002590
  69.7237165  36.8003084  10.1896881  66.7861584  48.8860907  -0.7450112
  67.0754109  49.6625789  -0.4706538  66.8733383  48.3749638  -0.0435613
  66.8415840  48.9252825  -0.6007615  69.6821472  46.7342141  21.0501411
  70.1521103  47.3584257  21.4369285  69.7283352  46.0659116  21.6094626
  69.7589347  46.7276821  21.1901483  66.8392745  38.8399168  11.7750215
  66.3231234  38.1479360  11.9001794  66.2786674  39.5069945  11.7212814
  66.6799259  38.8362426  11.7856281  68.9084979  39.3792128  13.6043067
  68.5216732  39.4041160  14.3856597  68.4217916  38.8133807  13.1517584
  68.7797488  39.2987879  13.6530971  73.1577958  54.0965637  17.6616854
  73.7957679  53.6025833  17.3279310  72.5152050  54.0243038  17.0769081
  73.1572185  54.0124646  17.5259209  74.8834958  45.9454783  12.2282770
  74.4562566  45.8581132  11.4730869  74.2461011  46.0532559  12.8137614
  74.7264566  45.9487443  12.2028211  68.5742120  36.2659114  15.8953327
  69.2035238  36.8019414  15.6174398  68.7427983  36.1736473  16.7466893
  68.6919915  36.3320476  15.9801856  68.3756035  41.0530309  18.1679739
  69.2029465  40.7815457  18.2238353  68.3963881  41.8491150  18.5243557
  68.5008885  41.1310063  18.2294922  73.2132215  54.7885446  14.3022211
  74.0024593  54.4374510  14.4224292  73.3875813  55.6021834  14.0398845
  73.3552496  54.8571303  14.2810079  62.9525525  48.1994171  11.3550000
  62.1113532  48.0998046  11.5628893  63.1615533  48.9689652  11.7064320
  62.8590218  48.2986215  11.4377315  60.4301092  45.8213708   9.1834750
  60.0357790  45.8956720   8.4084860  59.8741209  46.2071655   9.7343112
  60.2903904  45.8895483   9.1502410  72.0666039  38.7995002   8.8638629
  72.2715632  38.7317310   9.7095626  71.7392463  39.6053824   8.7959807
  72.0481287  38.9080943   8.9798284  66.7642190  46.1275571  10.6047597
  66.4605328  45.5731559  11.2058005  66.0621611  46.3067781  10.1175631
  66.6158400  46.0720353  10.6217303  65.8208287  43.4376090   5.1692299
  66.0968021  42.7195003   4.7569867  66.4206956  44.0361010   4.9613405
  65.9501552  43.4196461   5.0773060  64.8260541  53.3425291  15.3119695
  64.7180896  53.3527353  16.1781753  65.0356323  54.1680072  15.1224649
  64.8410652  53.4666366  15.4123787  75.3199727  39.3526767   8.3441395
  74.7074040  39.8397169   8.7295127  75.4163902  38.6770257   8.8879046
  75.2437624  39.3245075   8.4820253  69.3218808  41.1089608   3.4438894
  69.7762554  41.2800168   4.1686739  69.7958853  40.4957718   3.0436670
  69.4587128  41.0440493   3.4912656  62.8434333  50.5937934  12.7741633
  62.2522266  51.2347432  12.7444648  63.6055357  51.0175551  12.7472932
  62.8682594  50.7513772  12.7656780  63.2394956  41.7539931  13.4409650
  63.6996437  41.8278861  14.1784774  63.2851063  42.5521185  13.0909472
  63.3145511  41.8834078  13.4982407  64.8878306  42.4206626  18.0081677
  64.4963871  41.7739973  18.4437455  65.0564168  43.0118062  18.6275933
  64.8549216  42.4120894  18.1644383  78.9624755  50.4243703  13.7718911
  79.0207878  50.8730352  14.5178887  78.3291222  50.8342516  13.3348991
  78.8776050  50.5517438  13.8171459  72.6023849  56.0447245  10.2073657
  72.4043538  56.5338060   9.5129868  71.9811560  56.2488487  10.7857790
  72.4811414  56.1463784  10.1896880  66.6631828  47.8132142   4.5483901
  67.4073873  48.2006418   4.7866851  66.8092524  46.9689567   4.7124389
  66.7942413  47.7462615   4.6077871  68.5811403  39.6082401   9.5815763
  67.7347448  39.7805209   9.4557112  68.5782536  38.8031745   9.9181591
  68.4558553  39.5143430   9.6126890  69.6509704  43.3857615  10.4477821
  69.1769658  42.8599377  10.9583132  70.0227839  42.8387088   9.8792682
  69.6359592  43.2273612  10.4392968  60.0282734  45.3829122  15.8161366
  60.8908347  45.2824831  15.7298696  59.6974517  44.8023831  15.2546939
  60.1067930  45.2820749  15.7206772  75.9146434  48.4459991  11.8584601
  75.6744657  47.6066406  11.8627028  76.3938441  48.5260158  12.5825375
  75.9498618  48.3341391  11.9659403  71.5793203  44.2794170   3.5103574
  71.0516222  44.3622914   2.8209283  72.0388911  45.0212041   3.5068219
  71.5695054  44.4014832   3.4078270  77.9151621  45.2261448   9.8113860
  77.6761391  45.1857282   8.9734645  78.0785522  46.0732600   9.9379581
  77.9041925  45.3453533   9.7067342  74.5197651  49.6111398  15.7418905
  75.2431850  49.1583924  15.5629925  74.2547614  49.8916063  14.9591233
  74.5878925  49.5862366  15.5997621  63.3884520  44.2071571  12.4771785
  62.7637590  44.2189963  11.8697737  63.0530114  44.6831746  13.1263025
  63.2470011  44.2790088  12.4828353  60.1010195  52.2672031  13.9175549
  59.5710120  51.5764470  13.9670524  60.3735289  52.2582217  13.0888257
  60.0634917  52.1639163  13.8022965  71.1330286  52.8497734   2.6413231
  71.8564485  53.3155847   2.4977805  70.6930877  52.9171343   1.8910828
  71.1745978  52.9281570   2.5098013  70.3016441  49.7095276  13.8913920
  69.6873434  49.1653326  14.1862556  70.8183726  49.1959512  13.4119737
  70.2872103  49.5531685  13.8638149  69.5412738  50.7799546  11.6258219
  69.1140346  50.1549264  11.1923654  69.5337682  50.4974468  12.4517226
  69.4771879  50.6452326  11.6838047  62.6575265  45.8164719  14.6946653
  62.8168752  45.0608043  15.0998375  62.4768159  46.3655658  15.3487391
  62.6540624  45.7858533  14.8509359  70.5995568  37.9825954  15.2497443
  70.1036129  38.1789629  14.5589009  71.3564630  38.3818623  15.0786244
  70.6382393  38.0703688  15.1217579  67.8698448  41.6568300  11.8400753
  67.8940935  41.1228413  11.1513533  68.1209921  41.1485609  12.5026344
  67.9108366  41.5029204  11.8365398  55.3806037  48.9399795  11.2743897
  55.2749486  48.8946640  10.4095981  54.6306257  49.2853576  11.5558182
  55.2541640  48.9840703  11.1881227  64.1499770  40.3839119  11.2206497
  64.1898141  40.8848325  11.9341205  63.3249434  40.4749512  10.9512420
  64.0339296  40.4720935  11.2857036  66.3329383  49.9499859  19.3226792
  65.4825013  50.0871573  19.4584437  66.4957510  49.2163637  19.7674494
  66.2313246  49.8613960  19.4082391  65.5714133  46.8999628  13.5180396
  64.7406063  47.0673446  13.3115645  65.5165650  46.5235579  14.3029282
  65.4403548  46.8689360  13.6028925  63.3797916  40.3908521  19.1536807
  64.0050620  39.8470654  19.4266239  62.9248396  39.9103439  18.5844597
  63.4046177  40.2398003  19.1098401  63.9450177  45.1755220   4.0470514
  64.0853138  45.6727684   4.7499155  64.4432710  44.4741514   4.1884728
  64.0391258  45.1457199   4.1722093  63.9750399  46.0422331   1.3763091
  64.6095479  46.6382756   1.3112553  64.0576010  45.7425789   2.1908961
  64.0806950  46.0863239   1.4866177  76.9532965  48.5737808  14.2449455
  77.5450805  49.2135059  14.2767653  77.3891960  47.8760845  14.5341522
  77.1051396  48.5656159  14.2930288  65.5529382  41.9736306   1.3508533
  65.8745223  41.4939389   0.6967795  65.8156326  42.7835952   1.1599345
  65.6395408  42.0226204   1.2264025  68.7826355  52.9955181  14.8707349
  68.2751446  53.5491028  15.3147980  68.4853001  53.0563471  14.0526124
  68.6631240  53.0861492  14.8155806  70.9488537  41.3608500  13.7132012
  71.3743609  40.9081027  13.1015538  70.3345530  40.8068571  13.9896799
  70.9217183  41.2122477  13.6637037  60.4803387  48.2390172   4.6452637
  60.9895617  48.8354679   5.0263942  60.9537660  47.9716145   3.9629057
  60.6246763  48.2875987   4.6007160  71.3934135  56.9118438   2.8011293
  70.6763445  56.7379301   2.3358530  72.0440873  56.6771011   2.2686779
  71.3835986  56.8514231   2.6540510  69.3882760  37.8323600   7.1222589
  68.7451078  37.6821247   7.6907727  69.0482167  37.5865945   6.3571694
  69.2427837  37.7735723   7.0925604  73.9782107  45.7883027   6.5452598
  73.3073296  46.3312729   6.4165663  74.6721857  46.2577882   6.3034292
  73.9810974  45.9381298   6.4908125  68.0268840  57.9279739  11.7764356
  67.8034495  57.1698568  12.1448382  67.5378684  57.9577760  11.0544796
  67.9212289  57.8201964  11.7241097  74.1410234  42.2438911   9.4542971
  74.4937844  41.8168634  10.1288770  73.2825036  42.1589754   9.5844047
  74.0659679  42.1683651   9.5737981  62.8393919  44.8746430   7.5125817
  62.1205908  45.2910563   7.7798681  63.2106281  45.4400669   6.9617456
  62.7885851  45.0195712   7.4708624  72.1393500  45.5074279  13.4027813
  72.1191427  45.3257574  14.2562592  72.1872701  46.3786298  13.3787397
  72.1428141  45.6090817  13.5251108  70.0839830  52.0961471  19.3276290
  70.0435685  51.4511148  18.7421446  70.8963148  52.0398089  19.6401702
  70.1982983  51.9920438  19.2873239  66.6747297  58.1480197   9.2301441
  66.2607696  57.4854327   8.8405282  67.3594671  58.2958056   8.7097135
  66.7145669  58.0720855   9.0957938  70.0412591  57.3070282   9.9825057
  69.6428875  57.4172553   9.2145877  69.4263811  57.5152349  10.5651617
  69.8911481  57.3543850   9.9556356  68.6140493  43.9144430   2.8499197
  68.0205333  44.2361427   2.2983764  68.6515771  43.0685526   2.6420303
  68.5314883  43.8368758   2.7381968  75.5734294  37.3657322  10.3827283
  75.0665159  36.6586462  10.3148461  76.3701728  37.0350511  10.5128360
  75.6161533  37.2130474  10.3926278  71.4898310  43.8723935   6.2800947
  71.2612003  43.8956636   5.4379305  71.7496386  43.0481402   6.3995958
  71.4944498  43.7540015   6.1726145  65.7717538  45.7258408  15.8826047
  65.2596441  45.1179591  16.2411079  65.5997035  46.4415000  16.3500023
  65.6707175  45.7421707  16.0042271  60.6183253  44.1695983  18.5328409
  60.4485843  44.8297358  17.9876616  60.1749203  44.3802544  19.2540898
  60.5282587  44.2981965  18.5590039  64.5443072  42.4100481   7.5755143
  65.0200439  42.7717561   6.9405324  64.0431672  43.0656949   7.8555285
  64.5408431  42.5594670   7.5231884  77.7754434  51.8822249   3.3668148
  78.1588040  52.6313605   3.5966245  76.9798547  52.1288069   3.1080137
  77.7148216  52.0291943   3.3625721  69.6486609  43.6482652  18.3228303
  70.2058039  43.4196462  17.6906768  69.3247674  44.4088318  18.0463515
  69.6833019  43.7266489  18.1884800  57.5185318  47.0742849  13.7916899
  56.9712037  46.4043494  13.9097767  58.3077696  46.7072697  13.8560366
  57.5537501  46.9207835  13.8185599  67.3669726  46.7350306  19.2880310
  68.1181053  47.0501983  19.6019864  67.5592303  46.5329477  18.4614232
  67.5061140  46.7517688  19.2123706  66.5869726  44.5541681   0.9428527
  66.9668690  44.5721310   0.1579641  65.8462322  44.9995670   0.8219374
  66.5338563  44.6223455   0.8092095  74.2155016  42.8623872   6.5304105
  74.2149243  42.7072529   7.3888382  74.0111196  43.7086859   6.4745491
  74.1854794  42.9644493   6.6492045  56.2772287  46.2863656  10.9462922
  56.0994048  45.8340265  11.6717838  55.9891309  47.0889818  11.1301399
  56.2085240  46.3386214  11.0806425  71.9395868  47.5421374  10.1840312
  72.4349534  46.8244369  10.1444333  71.1295644  47.2392171  10.0694799
  71.8939761  47.3919020  10.1614038  67.3854480  51.3919187   2.3337317
  66.5765802  51.0685861   2.2870626  67.8929389  50.6852409   2.2665565
  67.3404147  51.2400503   2.3167611  58.0144757  48.8191380   8.0584681
  57.1490276  48.8077071   7.9467452  58.1143573  48.6321603   8.9055820
  57.9018924  48.7897441   8.1673625  74.0047687  50.2925061  12.8717441
  74.4302759  49.7699483  12.3187866  73.6404607  50.8905899  12.3506064
  74.0134290  50.3035288  12.7126451  63.6401767  58.5889279  11.6314787
  63.9548326  59.4025667  11.6392568  64.0495180  58.2039497  12.2996946
  63.7469865  58.6517981  11.7318878  70.5926287  54.0059326   9.2018598
  71.0637465  54.7199588   9.3708584  70.9286465  53.4058076   9.7378468
  70.7121402  54.0230790   9.3050974  72.6803271  55.6160639  21.3810671
  72.7900237  54.8269200  21.7367418  73.0094168  55.5266575  20.5785009
  72.7455677  55.4866492  21.3153061  67.5095781  38.7786796  16.1576693
  67.6423687  37.9817790  16.4857669  67.8940934  39.3053199  16.7374969
  67.5852110  38.7386713  16.2920196  71.2300233  53.7977260  15.9646291
  70.6821179  53.1735143  15.6966356  71.6913262  53.9871532  15.2490370
  71.2167442  53.7336310  15.8196722  70.5828137  35.7017122  12.7557787
  69.7774100  35.5914852  13.0725625  70.4534872  35.8029578  11.8987652
  70.4448270  35.7000792  12.6765827  74.0394097  41.8662614  13.3497483
  73.4557086  42.3671821  12.9375051  74.3598391  41.3592170  12.7161807
  74.0007273  41.8654449  13.1955991  66.5788896  40.7803209   3.6256158
  67.4004591  40.9501522   3.3837853  66.1158547  40.9350470   2.9022456
  66.6320059  40.8284942   3.4827803  65.1684228  38.7745971  14.4054587
  65.7128641  38.4337098  14.9958929  65.2221164  39.6331433  14.5475872
  65.2573348  38.8501231  14.5136460  60.9814787  52.5362387  11.2793395
  61.5859644  52.4958221  10.6507216  60.7742100  53.3833539  11.3097451
  61.0403684  52.6550390  11.1909511  70.7958559  54.8028332  12.4955632
  71.6156933  54.6591298  12.7571927  70.5152637  55.4274531  13.0372070
  70.8755303  54.8738684  12.6143572  56.2166069  51.5197005  11.1492318
  56.1190347  50.7093276  11.4582375  56.9994939  51.4988798  10.7638586
  56.3182206  51.3964095  11.1379181  87.2672210  62.4593184   5.4598509
  87.2366214  63.3137821   5.6316778  87.8653558  62.1588477   6.0184652
  87.3509367  62.5409681   5.5673311  80.4671894  61.5468835  10.2151439
  79.6109790  61.7077333  10.2660556  80.5139548  60.6760899  10.2356500
  80.3471006  61.4419637  10.2257505  74.8513034  71.0831553   5.9788671
  74.0995934  70.7047091   5.7504716  75.2999046  71.1149987   5.2307481
  74.8062701  71.0317160   5.8346173  83.7765611  67.8155361  19.8211895
  84.4832378  67.3207392  19.9498830  83.9653546  68.2564442  19.0914553
  83.9093517  67.8073711  19.7320941  80.3037994  71.5056923   1.4074218
  79.9689362  72.1833844   0.9718440  80.8164864  71.1162234   0.8191089
  80.3303575  71.5481501   1.2561009  79.8442285  73.4571191   7.3485329
  80.2281665  74.0258090   6.8090105  79.7801426  72.7320702   6.8691145
  79.8915712  73.4346655   7.1979192  83.3123715  63.6060879  12.8583091
  83.8579675  64.2845966  12.9177060  83.2540592  63.4648340  11.9984672
  83.3839630  63.6852881  12.7395151  76.4297790  71.0949945   8.2451443
  76.5308153  70.2850299   8.5548571  75.8339536  71.0006892   7.6151122
  76.3570329  70.9614973   8.1977682  85.0888784  65.0345486   3.7316819
  84.9728310  65.7853172   4.1608957  85.8844671  64.7769439   3.9812906
  85.1893373  65.1080333   3.8320910  76.2698530  76.0127534   9.6466299
  76.9135985  76.4540698  10.0362458  76.5954785  75.2080961   9.5596558
  76.4130359  75.9592729   9.6911776  69.6262835  67.1170232   7.8703777
  69.3913019  66.2837884   7.7636046  69.7648475  67.3974897   7.0564978
  69.6118497  67.0353735   7.7346132  71.9252922  59.2855962  10.7688085
  71.3057954  58.6948610  10.5998099  71.8236786  59.8767398  10.1352408
  71.8190598  59.2860045  10.6493074  76.9719110  69.0239509   5.0186161
  77.2934951  69.5644717   4.4147469  77.6191206  68.4536281   5.1508451
  77.1145165  69.0198684   4.9493196  79.0220818  61.0255504   5.1020548
  79.7200982  61.2043632   5.5942011  79.3373150  60.5025843   4.4790937
  79.1716155  60.9749276   5.0822558  71.6522055  62.8308244  13.0131653
  71.5280752  63.4170690  13.6481472  72.3040340  62.3368440  13.3143928
  71.7295704  62.8447048  13.1517583  79.2108753  67.4125949   5.0900339
  79.6502389  66.8043050   5.5355112  79.0613416  67.0333322   4.3185804
  79.2530219  67.2664420   5.0419506  76.6780396  66.0069961  12.2919165
  77.3229399  65.5142404  11.9730113  76.9182173  66.1494748  13.1185243
  76.8090981  65.9547403  12.3668698  79.2166487  68.8524867  11.9426057
  79.4989730  68.0576273  11.7212813  79.9452648  69.3305454  11.9631118
  79.3656051  68.8059464  11.9129072  77.1947681  56.3947901   9.1841822
  76.8651011  56.8459044   8.5145521  76.5192683  56.3164064   9.7314829
  77.0458118  56.4499036   9.1665046  82.8118090  65.7653130   2.0431108
  82.7269385  66.6214097   2.1880677  83.3002473  65.4897455   2.7113267
  82.8706987  65.8510452   2.1633190  84.4024089  52.3833424   7.4291433
  84.0877530  53.0736902   7.8611855  83.8851031  52.3278206   6.7276934
  84.2788559  52.4768312   7.3888382  83.7436523  62.3837925   3.5428843
  83.2147994  62.5997558   4.2026150  84.2661543  63.0774063   3.4629813
  83.7424976  62.5181062   3.6284443  89.1984576  67.9584229   8.9161888
  88.3682279  68.1694873   9.0795304  89.1493828  67.1321284   8.6404172
  89.0691311  67.8673835   8.8999253  75.6336131  66.2801141   2.3436311
  75.0493346  66.7851173   2.7502175  75.2306226  66.0543528   1.6032903
  75.4875434  66.3209390   2.2941337  71.1880159  71.9955903   9.1459983
  70.7047737  72.7206392   9.1219567  72.0003477  72.2932033   9.2570141
  71.2370907  72.1458256   9.1587262  77.2594313  70.7888083  11.7509797
  76.7421255  70.4295498  11.1471106  77.9568705  70.2650258  11.7615864
  77.2859894  70.6585771  11.6640056  80.9157905  71.2382897  17.7125970
  81.0041251  71.0509038  18.5604181  81.3447618  70.5920327  17.3130817
  80.9920008  71.1145905  17.7797722  78.4828365  70.5214057  16.6943633
  77.9199200  70.1086667  17.2183294  79.2449389  70.4466963  17.1136776
  78.5122814  70.4491458  16.8336633  80.0913345  62.5266793   0.8205232
  80.3309349  62.7344777   0.0080575  80.4129186  61.7224302   0.9294177
  80.1750503  62.4380895   0.7165785  75.4003635  54.4560189   4.6664770
  76.1549603  54.8238506   4.4281820  75.2231170  54.8299744   5.4343950
  75.4858114  54.5658377   4.7449658  74.0424357  72.5112078   9.2980263
  74.7444936  71.9964068   9.3553019  73.9621840  72.8386230  10.1027138
  74.1348117  72.4826305   9.4253055  88.6938534  60.6054630  12.7112309
  87.8566955  60.6756817  12.9459904  88.6626765  60.6079125  11.8386612
  88.5656816  60.6164857  12.6171857  75.0903263  62.7487665  18.4260678
  75.2623767  62.6393560  19.2745959  75.6272621  63.3942071  18.1891870
  75.1948267  62.8279667  18.5165775  73.7560700  56.8630508   1.3642883
  73.5736273  57.0802389   0.5383876  74.6186313  56.9769521   1.4201497
  73.8565289  56.9120406   1.2497370  73.3675132  68.7018430   8.8065871
  74.2064031  68.9341363   8.8539632  73.3986901  67.8322742   8.7372906
  73.4956850  68.6075377   8.8030516  73.9927835  69.1219306  13.1079176
  74.5326060  68.9790437  13.7782549  73.3097781  69.5216056  13.4763203
  73.9719989  69.1598977  13.2613598  79.4360419  53.8656919   4.3991907
  80.1646580  53.6872874   3.9530063  79.5255312  54.7074999   4.6099085
  79.5567081  53.9640797   4.3645424  83.4168720  64.8010306   8.3024201
  84.1726235  65.2341821   8.3413109  83.5231044  64.1515076   8.8758837
  83.5438890  64.7687790   8.3922226  86.4548891  68.6283584   9.0526604
  86.0184123  68.6320326   9.8085575  86.1211806  69.3089082   8.6206181
  86.3411511  68.7296039   9.1007436  81.0277965  70.6691916  20.3769754
  81.8118381  70.7822764  20.7425496  80.8274559  69.8433053  20.5728440
  81.1143990  70.5638636  20.4604140  69.3964980  65.3419596  13.2613598
  69.1303395  64.5258713  13.4204588  69.4103544  65.3872752  12.3909113
  69.3589702  65.2276501  13.1567080  86.3746374  55.6697411  11.2956032
  87.0172282  55.7395516  11.8817947  86.6269395  55.0026634  10.7935574
  86.5068506  55.5823760  11.3083311  73.3022727  60.1404681  -0.1234644
  72.5880904  59.8542860   0.2887788  73.7866696  60.4801307   0.5171743
  73.2682090  60.1486331   0.0320991  74.1463586  58.8797975  15.9080606
  73.4535383  58.4094954  16.1541337  74.7623914  58.6536279  16.4822313
  74.1348116  58.7765107  16.0289758  81.1848358  72.5802018  14.0236210
  80.3863604  72.3401518  14.2810078  81.6334369  72.6316411  14.7703257
  81.1322969  72.5524410  14.1721134  89.5893237  65.3464503   7.9446241
  90.2509671  64.7855172   7.8442149  88.9484649  64.8516534   8.2698932
  89.5922105  65.1900912   7.9778581  80.4770045  68.6434635   0.2527164
  80.8921193  68.3119659  -0.4388340  79.6461975  68.4103537   0.1247301
  80.4158054  68.5605891   0.1318012  69.8058394  66.1278376  10.5425342
  69.6233967  66.1025262   9.6897634  70.5408063  66.5977314  10.5814251
  69.8872458  66.1939738  10.4223261  85.8758068  66.3629886   7.6858230
  86.1113657  66.5075085   6.8585080  86.0247631  67.1272294   8.0789743
  85.9323871  66.4968940   7.6221834  72.8704145  62.8463379  17.0507451
  73.5944118  62.8316409  17.5372346  72.9720282  63.5558734  16.5529419
  72.9922354  62.9488082  17.0486238  87.7048525  65.2031552   5.5227834
  88.0356742  65.7359192   4.9167928  88.2781613  65.2570439   6.1789784
  87.8382204  65.2901121   5.5305615  80.2449095  66.3262463  21.9156398
  79.4522076  66.6405975  22.1009017  80.3598022  66.5413932  21.0777182
  80.1444505  66.4046300  21.8194733  82.9180414  63.0496454   6.2051414
  83.0127268  63.7885749   6.6591039  82.2939257  62.6213930   6.6385978
  82.8389444  63.0957775   6.3359561  81.1732888  66.2282667  16.8541695
  81.7471749  65.5909911  17.0090258  81.0947691  66.2286749  15.9851352
  81.2466122  66.1347778  16.7488105  69.7729304  63.0071877  10.6924409
  70.3502807  62.8708327  11.3316654  69.0743366  62.5507661  10.9469993
  69.7550325  62.9194143  10.8246698  83.1703435  64.8945194  -0.5611634
  83.0883598  64.9647381   0.3043353  83.8083155  65.4574938  -0.7527894
  83.2523272  64.9884165  -0.4621685  76.5296606  64.6605932   8.9062892
  76.2715850  63.8277667   8.8794191  76.5845089  64.8863545   8.0655392
  76.4996384  64.5703703   8.7783029  81.6097656  56.7634383   9.0066985
  80.9053983  56.2743568   9.1650904  81.6582631  56.7756857   8.1355429
  81.5127708  56.6924031   8.9006324  75.5031318  62.2143695   9.3927787
  74.9280910  62.3735863  10.0291748  75.1266995  61.5779104   8.9296237
  75.3634131  62.1441508   9.4182345  79.1704607  60.6867044  14.2520165
  78.7819040  60.2621262  13.5972356  78.5059305  60.9349194  14.7597192
  79.0151535  60.6605765  14.2308033  88.8127876  60.4442049   7.0267995
  88.5564441  59.6321990   6.8365878  89.6557190  60.4519616   6.7998182
  88.8993902  60.3254046   6.9652812  65.2488137  61.8583769   7.4072227
  65.3348389  61.4815638   8.1885757  65.8763935  61.4844215   6.9292186
  65.3544688  61.7469252   7.4517705  82.9930969  54.3841673  11.7644149
  83.3741480  53.7019844  12.1512024  82.1894253  54.0951275  11.5819814
  82.9307430  54.2408721  11.7948205  80.2743545  64.9165649   2.4496972
  81.0884184  65.2080541   2.3379743  80.2102686  64.2625511   1.8755265
  80.3846284  64.8630843   2.3485809  86.4953035  67.5991645  16.8626548
  86.2591673  66.7679709  16.7438608  87.1396264  67.5477252  17.4481392
  86.5547706  67.4689333  16.9312441  76.1451453  68.3887166   7.5769284
  76.7825400  68.1498913   8.1221078  76.5706525  68.5924325   6.8422445
  76.3027620  68.3838176   7.5486442  70.8364096  70.6275502  11.4603588
  70.8768241  70.8990354  10.6323368  71.3958620  71.1517411  11.8761376
  70.9247442  70.7451258  11.3995476  76.7854268  63.6089456   1.9144174
  77.1699421  63.3897162   2.6660719  76.5365889  64.4352401   2.0445250
  76.8056341  63.6987602   2.0445250  76.9522809  56.8895871  21.6306758
  76.6376250  57.6595434  21.3676320  76.6312741  56.3266127  21.0458985
  76.8581728  56.9206140  21.5048108  87.5189456  67.3836093  12.9254842
  87.2135273  68.1164150  13.2868158  86.7995672  66.9774023  12.6447628
  87.3676798  67.4317826  12.9367979  78.5272925  68.8659589   9.2563070
  78.6011934  68.7034760  10.1104920  79.3442432  69.0549778   9.0123552
  78.6589284  68.8696331   9.3461096  93.2191248  64.0229094  12.2523186
  93.1515748  64.0425053  11.3825773  93.2046911  64.8659421  12.4778857
  93.2070005  64.1502829  12.1575663  72.2878682  69.2117451   6.2857514
  71.4616800  69.4579189   6.1591793  72.3490673  69.1329532   7.1519572
  72.1752849  69.2362400   6.3946458  74.5054706  55.2786392   7.2452954
  73.6377131  55.3508992   7.3110563  74.7929910  56.0808471   7.4340929
  74.4194454  55.4080539   7.2827721  83.6287595  55.4264252  15.5764276
  84.3741187  55.2374062  15.1627701  83.2124899  55.9522490  15.0178132
  83.6772569  55.4766397  15.4328849  77.0677511  71.8294332   3.9876544
  77.3575810  71.4383313   3.2635770  77.7980992  72.0111037   4.4281819
  77.2184395  71.7988145   3.9459351  91.0049865  62.7973480  10.5269781
  91.5557787  62.1641549  10.7666873  90.9893981  63.3288873  11.2185285
  91.0835062  62.7822428  10.6648639  77.6572256  66.6312078  15.0729674
  77.1583950  67.3427845  15.1514563  78.4672481  66.9512744  15.0347837
  77.7028363  66.7838926  15.0786243  75.0083427  73.8061714   7.0536694
  74.7883722  73.5159069   7.8463361  74.7877949  73.1476669   6.5254606
  74.9431021  73.6661422   7.0925602  73.9200374  65.8935031   9.3192395
  73.6313623  65.2672502   9.8538123  74.7883722  65.8355318   9.3857076
  74.0060626  65.7922575   9.4083350  84.7078272  61.0369814   9.6374377
  84.3643038  60.3160149   9.9881627  84.8071314  60.8283665   8.7952735
  84.6720315  60.8994017   9.5646057  77.1751382  75.1791104   5.8367386
  77.8275440  74.6467546   6.0658412  76.4776991  74.8259756   6.2235260
  77.1682100  75.0480627   5.9279554  74.1232647  67.5330282   5.2434760
  74.8778615  67.9143321   5.4570223  73.5303260  67.9841425   5.6981457
  74.1469361  67.6559109   5.3417639  85.1691301  67.4995518   5.1798365
  85.7349333  68.1588728   5.0956908  84.5219204  67.8445216   5.6514767
  85.1570057  67.6477459   5.2371122  76.5839314  59.4893122  20.3691973
  75.7739090  59.7950902  20.2581815  77.0614001  60.2098704  20.4844557
  76.5342793  59.6407723  20.3699044  75.4430874  68.7038843  10.6174876
  74.9211627  68.8439135  11.3026740  75.8304894  67.9449507  10.8076993
  75.4234575  68.6124367  10.7475952  72.4322058  58.7544652   4.6869830
  72.1446854  58.3845922   3.9501778  73.1192526  59.2239507   4.4253535
  72.4910955  58.7691621   4.5384906  81.6397879  70.4434302   4.6035444
  81.3984555  69.7102163   4.1962509  81.8199212  70.9921159   3.9501778
  81.6305503  70.4156693   4.4465667  76.8697200  65.7342862   6.0156367
  76.6739982  66.3417597   5.4216670  77.0931545  65.0410806   5.5348041
  76.8731841  65.7220388   5.8572448  75.2675730  62.6197600   6.1337235
  75.9898381  62.7838758   5.6741041  74.7883722  63.3407265   6.0276575
  75.3039460  62.7495829   6.0502849  83.2269237  58.9561399  11.5133920
  82.3880338  58.9822678  11.2772183  83.2973604  59.6032134  12.0939267
  83.1137631  59.0557525  11.5643037  72.9183346  65.0255672  15.2391375
  73.4304443  65.3039926  14.5900135  72.6319689  65.7644966  15.6054188
  72.9518209  65.1758026  15.1981253  81.6738515  55.8546776   6.2461536
  82.3764868  55.6554524   5.7681494  81.4082704  55.0822718   6.5530379
  81.7385148  55.7109742   6.2206978  87.1026761  64.1629385   8.7995162
  87.0160735  64.3184812   9.6529941  86.6477241  64.8067461   8.4254567
  87.0230018  64.2805141   8.8702269  70.0050253  59.5325864   5.5355111
  70.1066389  60.3352026   5.8636087  70.8006139  59.3313200   5.2378192
  70.1378158  59.6211763   5.5390467  76.4367072  57.1182061  15.2992417
  76.2450269  57.1337195  16.1491840  77.2865668  57.3145735  15.2759071
  76.5342794  57.1496412  15.4215711  70.8213985  59.6473042  13.2776233
  70.6799476  58.7956983  13.4020741  71.1054548  59.6901703  12.4538439
  70.8421831  59.5272792  13.1743857  80.9752577  61.4840133   7.4220721
  80.7287291  61.4035884   8.2557510  81.3037700  60.6993600   7.2283249
  80.9873821  61.3566398   7.5168244  84.8700626  68.1923492  11.2107503
  84.7314985  68.8904538  11.7156245  84.0900624  68.0372148  10.8543684
  84.7343853  68.2723659  11.2333777  83.2078711  64.4919867  17.4629884
  83.2026749  63.6199684  17.4672311  83.9139705  64.6908036  16.9899340
  83.3123715  64.3923741  17.3936920  76.9349604  64.2196851  16.8343704
  77.0792980  64.7998059  16.1986814  77.2825253  64.5973148  17.5393559
  77.0077066  64.3617555  16.8442699  79.1069522  63.4187020  14.6168836
  78.3592836  63.6118034  14.2117114  79.2611047  62.5932239  14.3792957
  79.0191949  63.3252131  14.5214242  76.0077359  72.4099623  13.7004731
  76.1566923  71.8502539  13.0478136  76.7877361  72.4891625  14.0837250
  76.1451453  72.3385188  13.6601680  86.3653999  67.5501746   1.9724002
  85.9860807  66.7638884   1.9653291  85.7020244  68.0988603   1.8295646
  86.2112473  67.5146570   1.9504799  78.5330660  72.5814266  14.9789222
  78.4574331  71.9123076  15.5340010  78.4620519  73.2832054  15.4929888
  78.5111267  72.5859173  15.1366070  79.3471299  57.3137570  15.5064240
  79.8043913  58.0461545  15.6337032  79.4227627  56.8904036  16.2651495
  79.4262269  57.3594808  15.6365316  71.5904290  57.5603390  16.5953683
  71.0546479  56.9483748  16.9114451  71.6522055  58.1351526  17.2487350
  71.5199923  57.5550318  16.7389110  83.8198625  50.4927445   9.3758083
  83.9382193  50.9503909   8.6425385  83.6460800  49.6872707   9.0894300
  83.8117796  50.4421218   9.2259016  79.1900907  71.1015265   5.8112828
  79.9550798  70.8324908   5.4895492  79.0878997  70.6165275   6.5282891
  79.2882402  70.9904829   5.8692656  77.2253677  59.3039674  12.3506064
  76.4349751  59.1231134  12.6723399  77.6214299  58.5266627  12.3336358
  77.1670553  59.1627135  12.3958612  81.7119567  68.1327449  -2.2087223
  82.4792552  68.1927573  -2.6181371  81.2650876  67.5607890  -2.6930904
  81.7592995  68.0564024  -2.3409512  82.6097363  66.9382104  10.0765510
  81.9342365  66.7067337  10.5778897  82.6189739  66.3303287   9.4507615
  82.5115867  66.8141030  10.0581662  79.7391507  61.7799933  16.8329563
  79.6750648  62.6409890  16.7049699  79.8788695  61.4631927  16.0325114
  79.7506977  61.8600100  16.6957775  84.6114097  69.7947237   2.3075688
  84.6933935  70.6014223   1.9837138  85.0963840  69.8143196   3.0316461
  84.6951255  69.9167899   2.3662586  78.4210601  64.4732073  10.9745766
  77.9972850  64.6736572  10.2384784  78.2455456  63.6260921  11.0870065
  78.3321481  64.3780854  10.8819456  77.9222294  75.9882586  13.4367223
  78.4118225  75.2893375  13.2542887  77.3506526  75.6906456  14.0243280
  77.9106824  75.8408809  13.4968264  73.7093046  64.9684124   6.4073738
  73.8657665  64.9030927   7.2629730  74.0493639  65.7432677   6.1952418
  73.7826281  65.0733322   6.5028332  80.2472190  64.3442008   5.2767101
  80.7887736  63.8412389   5.7405722  80.5618749  64.2907202   4.4656587
  80.3736587  64.2621429   5.2250913  84.1189298  68.5544655  22.3894013
  84.9324163  68.2829804  22.5499146  83.9584264  68.2552195  21.5854209
  84.2159246  68.4699581  22.2939419  78.4158640  69.7359359   2.5607129
  78.4851460  68.8773898   2.7000130  79.1947095  69.9531240   2.2326154
  78.5411490  69.6412223   2.5324287  81.3961460  59.2378312  15.3289402
  81.6103429  58.5989226  14.7752756  80.7795359  59.6824136  14.8997263
  81.3366789  59.2088456  15.1839833  82.8066128  72.1597060   6.7743623
  82.4145919  71.8563776   6.0566489  82.9619200  72.9966150   6.5848576
  82.7719717  72.2380897   6.6400120  70.2827307  62.1519075   6.7234505
  70.6626272  62.5703619   6.0594773  69.7082672  62.7332530   7.0303349
  70.2538632  62.2996933   6.6711246  83.5600548  60.8467377  16.2672709
  82.7477229  60.5393268  16.3485882  84.0190482  60.3666377  16.8315421
  83.5080932  60.7303870  16.3627303  82.9705802  68.7247049   6.7149653
  82.6120457  68.8961692   7.4913686  82.4844513  69.1860255   6.1577652
  82.8464499  68.8186020   6.7474922  80.7876188  52.3478248  10.3176745
  79.9169746  52.3216969  10.2710054  81.0416530  52.1755440   9.5002590
  80.6969748  52.3188392  10.1896881  77.7594168  64.4046215  -0.7450112
  78.0486693  65.1811097  -0.4706538  77.8465967  63.8934946  -0.0435613
  77.8148424  64.4438133  -0.6007615  80.6554055  62.2527449  21.0501411
  81.1253686  62.8769565  21.4369285  80.7015935  61.5844424  21.6094626
  80.7321931  62.2462129  21.1901483  77.8125329  54.3584476  11.7750215
  77.2963817  53.6664668  11.9001794  77.2519258  55.0255253  11.7212814
  77.6531842  54.3547734  11.7856281  79.8817562  54.8977436  13.6043067
  79.4949315  54.9226468  14.3856597  79.3950500  54.3319115  13.1517584
  79.7530071  54.8173187  13.6530971  84.1310542  69.6150945  17.6616854
  84.7690262  69.1211141  17.3279310  83.4884633  69.5428346  17.0769081
  84.1304768  69.5309954  17.5259209  85.8567542  61.4640091  12.2282770
  85.4295150  61.3766440  11.4730869  85.2193595  61.5717867  12.8137614
  85.6997149  61.4672751  12.2028211  79.5474704  51.7844422  15.8953327
  80.1767822  52.3204722  15.6174398  79.7160567  51.6921781  16.7466893
  79.6652499  51.8505784  15.9801856  79.3488619  56.5715617  18.1679739
  80.1762048  56.3000765  18.2238353  79.3696465  57.3676458  18.5243557
  79.4741469  56.6495371  18.2294922  84.1864798  70.3070754  14.3022211
  84.9757177  69.9559818  14.4224292  84.3608396  71.1207142  14.0398845
  84.3285080  70.3756611  14.2810079  73.9258109  63.7179479  11.3550000
  73.0846115  63.6183353  11.5628893  74.1348117  64.4874960  11.7064320
  73.8322801  63.8171523  11.4377315  71.4033676  61.3399016   9.1834750
  71.0090373  61.4142028   8.4084860  70.8473793  61.7256963   9.7343112
  71.2636488  61.4080791   9.1502410  83.0398623  54.3180310   8.8638629
  83.2448216  54.2502618   9.7095626  82.7125046  55.1239131   8.7959807
  83.0213870  54.4266251   8.9798284  77.7374774  61.6460879  10.6047597
  77.4337911  61.0916867  11.2058005  77.0354194  61.8253088  10.1175631
  77.5890983  61.5905661  10.6217303  76.7940871  58.9561398   5.1692299
  77.0700605  58.2380311   4.7569867  77.3939540  59.5546318   4.9613405
  76.9234135  58.9381769   5.0773060  75.7993125  68.8610599  15.3119695
  75.6913480  68.8712661  16.1781753  76.0088906  69.6865380  15.1224649
  75.8143236  68.9851674  15.4123787  86.2932310  54.8712075   8.3441395
  85.6806624  55.3582477   8.7295127  86.3896485  54.1955565   8.8879046
  86.2170208  54.8430383   8.4820253  80.2951391  56.6274916   3.4438894
  80.7495138  56.7985476   4.1686739  80.7691437  56.0143026   3.0436670
  80.4319711  56.5625801   3.4912656  73.8166917  66.1123242  12.7741633
  73.2254850  66.7532740  12.7444648  74.5787940  66.5360859  12.7472932
  73.8415177  66.2699080  12.7656780  74.2127539  57.2725239  13.4409650
  74.6729021  57.3464169  14.1784774  74.2583646  58.0706493  13.0909472
  74.2878095  57.4019386  13.4982407  75.8610889  57.9391934  18.0081677
  75.4696454  57.2925281  18.4437455  76.0296752  58.5303370  18.6275933
  75.8281799  57.9306202  18.1644383  89.9357338  65.9429011  13.7718911
  89.9940462  66.3915660  14.5178887  89.3023806  66.3527824  13.3348991
  89.8508633  66.0702746  13.8171459  83.5756433  71.5632553  10.2073657
  83.3776122  72.0523368   9.5129868  82.9544144  71.7673795  10.7857790
  83.4543997  71.6649091  10.1896880  77.6364411  63.3317450   4.5483901
  78.3806456  63.7191726   4.7866851  77.7825107  62.4874875   4.7124389
  77.7674996  63.2647923   4.6077871  79.5543987  55.1267709   9.5815763
  78.7080032  55.2990517   9.4557112  79.5515119  54.3217053   9.9181591
  79.4291137  55.0328738   9.6126890  80.6242287  58.9042923  10.4477821
  80.1502241  58.3784685  10.9583132  80.9960423  58.3572396   9.8792682
  80.6092176  58.7458920  10.4392968  71.0015317  60.9014430  15.8161366
  71.8640930  60.8010139  15.7298696  70.6707100  60.3209139  15.2546939
  71.0800514  60.8006057  15.7206772  86.8879018  63.9645299  11.8584601
  86.6477241  63.1251714  11.8627028  87.3671025  64.0445466  12.5825375
  86.9231201  63.8526699  11.9659403  82.5525787  59.7979478   3.5103574
  82.0248805  59.8808222   2.8209283  83.0121495  60.5397349   3.5068219
  82.5427637  59.9200140   3.4078270  88.8884205  60.7446756   9.8113860
  88.6493975  60.7042590   8.9734645  89.0518106  61.5917908   9.9379581
  88.8774508  60.8638841   9.7067342  85.4930235  65.1296705  15.7418905
  86.2164434  64.6769232  15.5629925  85.2280197  65.4101371  14.9591233
  85.5611508  65.1047674  15.5997621  74.3617103  59.7256879  12.4771785
  73.7370173  59.7375271  11.8697737  74.0262698  60.2017054  13.1263025
  74.2202595  59.7975396  12.4828353  74.5458852  58.0681998  -1.4655530
  74.1971656  58.7201723  -1.0023981  74.0655298  58.0539111  -2.1931659
  74.4229096  58.1625051  -1.5044439  71.0742779  67.7857339  13.9175549
  70.5442703  67.0949778  13.9670524  71.3467872  67.7767524  13.0888257
  71.0367501  67.6824471  13.8022965  82.1062869  68.3683041   2.6413231
  82.8297068  68.8341154   2.4977805  81.6663460  68.4356651   1.8910828
  82.1478561  68.4466878   2.5098013  81.2749024  65.2280584  13.8913920
  80.6606017  64.6838634  14.1862556  81.7916309  64.7144820  13.4119737
  81.2604687  65.0716993  13.8638149  80.5145321  66.2984854  11.6258219
  80.0872930  65.6734572  11.1923654  80.5070266  66.0159776  12.4517226
  80.4504463  66.1637634  11.6838047  73.6307849  61.3350027  14.6946653
  73.7901335  60.5793351  15.0998375  73.4500742  61.8840966  15.3487391
  73.6273208  61.3043841  14.8509359  81.5728152  53.5011262  15.2497443
  81.0768713  53.6974937  14.5589009  82.3297214  53.9003931  15.0786244
  81.6114976  53.5888996  15.1217579  78.8431031  57.1753608  11.8400753
  78.8673518  56.6413721  11.1513533  79.0942505  56.6670917  12.5026344
  78.8840950  57.0214512  11.8365398  66.3538621  64.4585103  11.2743897
  66.2482070  64.4131948  10.4095981  65.6038841  64.8038884  11.5558182
  66.2274224  64.5026011  11.1881227  75.1232353  55.9024427  11.2206497
  75.1630725  56.4033633  11.9341205  74.2982018  55.9934820  10.9512420
  75.0071879  55.9906243  11.2857036  77.3061966  65.4685167  19.3226792
  76.4557597  65.6056881  19.4584437  77.4690094  64.7348945  19.7674494
  77.2045830  65.3799268  19.4082391  76.5446717  62.4184936  13.5180396
  75.7138646  62.5858754  13.3115645  76.4898234  62.0420887  14.3029282
  76.4136132  62.3874668  13.6028925  74.3530500  55.9093829  19.1536807
  74.9783203  55.3655962  19.4266239  73.8980980  55.4288747  18.5844597
  74.3778761  55.7583311  19.1098401  74.9182761  60.6940528   4.0470514
  75.0585722  61.1912992   4.7499155  75.4165293  59.9926822   4.1884728
  75.0123842  60.6642507   4.1722093  74.9482983  61.5607639   1.3763091
  75.5828062  62.1568064   1.3112553  75.0308594  61.2611097   2.1908961
  75.0539534  61.6048547   1.4866177  87.9265549  64.0923116  14.2449455
  88.5183389  64.7320367  14.2767653  88.3624543  63.3946153  14.5341522
  88.0783980  64.0841467  14.2930288  76.5261966  57.4921614   1.3508533
  76.8477807  57.0124697   0.6967795  76.7888910  58.3021260   1.1599345
  76.6127991  57.5411512   1.2264025  79.7558939  68.5140489  14.8707349
  79.2484030  69.0676336  15.3147980  79.4585585  68.5748779  14.0526124
  79.6363824  68.6046800  14.8155806  81.9221121  56.8793808  13.7132012
  82.3476192  56.4266335  13.1015538  81.3078114  56.3253879  13.9896799
  81.8949766  56.7307785  13.6637037  71.4535971  63.7575480   4.6452637
  71.9628200  64.3539987   5.0263942  71.9270243  63.4901453   3.9629057
  71.5979347  63.8061295   4.6007160  82.3666719  72.4303746   2.8011293
  81.6496029  72.2564609   2.3358530  83.0173457  72.1956319   2.2686779
  82.3568569  72.3699539   2.6540510  80.3615344  53.3508908   7.1222589
  79.7183662  53.2006554   7.6907727  80.0214751  53.1051253   6.3571694
  80.2160421  53.2921031   7.0925604  84.9514690  61.3068335   6.5452598
  84.2805880  61.8498037   6.4165663  85.6454440  61.7763190   6.3034292
  84.9543558  61.4566606   6.4908125  79.0001424  73.4465047  11.7764356
  78.7767078  72.6883876  12.1448382  78.5111267  73.4763068  11.0544796
  78.8944873  73.3387271  11.7241097  85.1142818  57.7624219   9.4542971
  85.4670428  57.3353941  10.1288770  84.2557619  57.6775062   9.5844047
  85.0392262  57.6868959   9.5737981  73.8126503  60.3931738   7.5125817
  73.0938492  60.8095871   7.7798681  74.1838865  60.9585977   6.9617456
  73.7618434  60.5381020   7.4708624  83.1126083  61.0259587  13.4027813
  83.0924011  60.8442882  14.2562592  83.1605284  61.8971606  13.3787397
  83.1160724  61.1276125  13.5251108  81.0572413  67.6146779  19.3276290
  81.0168268  66.9696456  18.7421446  81.8695732  67.5583397  19.6401702
  81.1715567  67.5105746  19.2873239  77.6479881  73.6665505   9.2301441
  77.2340279  73.0039635   8.8405282  78.3327255  73.8143364   8.7097135
  77.6878253  73.5906163   9.0957938  81.0145175  72.8255590   9.9825057
  80.6161458  72.9357861   9.2145877  80.3996395  73.0337657  10.5651617
  80.8644064  72.8729158   9.9556356  79.5873077  59.4329738   2.8499197
  78.9937916  59.7546735   2.2983764  79.6248355  58.5870834   2.6420303
  79.5047466  59.3554066   2.7381968  86.5466878  52.8842630  10.3827283
  86.0397742  52.1771770  10.3148461  87.3434311  52.5535819  10.5128360
  86.5894117  52.7315782  10.3926278  82.4630894  59.3909243   6.2800947
  82.2344587  59.4141944   5.4379305  82.7228970  58.5666710   6.3995958
  82.4677082  59.2725323   6.1726145  76.7450122  61.2443716  15.8826047
  76.2329025  60.6364899  16.2411079  76.5729618  61.9600308  16.3500023
  76.6439759  61.2607015  16.0042271  71.5915837  59.6881291  18.5328409
  71.4218427  60.3482666  17.9876616  71.1481787  59.8987852  19.2540898
  71.5015170  59.8167273  18.5590039  75.5175656  57.9285789   7.5755143
  75.9933022  58.2902869   6.9405324  75.0164256  58.5842257   7.8555285
  75.5141015  58.0779978   7.5231884  88.7487018  67.4007557   3.3668148
  89.1320623  68.1498913   3.5966245  87.9531131  67.6473377   3.1080137
  88.6880800  67.5477251   3.3625721  80.6219192  59.1667960  18.3228303
  81.1790622  58.9381770  17.6906768  80.2980257  59.9273626  18.0463515
  80.6565603  59.2451797  18.1884800  68.4917901  62.5928157  13.7916899
  67.9444621  61.9228802  13.9097767  69.2810279  62.2258004  13.8560366
  68.5270085  62.4393143  13.8185599  78.3402310  62.2535614  19.2880310
  79.0913637  62.5687290  19.6019864  78.5324886  62.0514785  18.4614232
  78.4793724  62.2702995  19.2123706  77.5602309  60.0726989   0.9428527
  77.9401274  60.0906618   0.1579641  76.8194905  60.5180978   0.8219374
  77.5071147  60.1408763   0.8092095  85.1887600  58.3809180   6.5304105
  85.1881826  58.2257837   7.3888382  84.9843780  59.2272167   6.4745491
  85.1587378  58.4829801   6.6492045  67.2504871  61.8048964  10.9462922
  67.0726632  61.3525573  11.6717838  66.9623893  62.6075126  11.1301399
  67.1817824  61.8571522  11.0806425  82.9128452  63.0606682  10.1840312
  83.4082117  62.3429677  10.1444333  82.1028228  62.7577479  10.0694799
  82.8672345  62.9104328  10.1614038  78.3587063  66.9104495   2.3337317
  77.5498386  66.5871169   2.2870626  78.8661972  66.2037717   2.2665565
  78.3136730  66.7585811   2.3167611  68.9877341  64.3376688   8.0584681
  68.1222860  64.3262379   7.9467452  69.0876156  64.1506911   8.9055820
  68.8751508  64.3082749   8.1673625  84.9780271  65.8110369  12.8717441
  85.4035342  65.2884791  12.3187866  84.6137191  66.4091207  12.3506064
  84.9866873  65.8220596  12.7126451  74.6134350  74.1074587  11.6314787
  74.9280909  74.9210975  11.6392568  75.0227764  73.7224805  12.2996946
  74.7202448  74.1703289  11.7318878  81.5658870  69.5244634   9.2018598
  82.0370048  70.2384896   9.3708584  81.9019049  68.9243384   9.7378468
  81.6853985  69.5416098   9.3050974  83.6535855  71.1345947  21.3810671
  83.7632820  70.3454507  21.7367418  83.9826751  71.0451883  20.5785009
  83.7188260  71.0051800  21.3153061  78.4828365  54.2972104  16.1576693
  78.6156271  53.5003098  16.4857669  78.8673518  54.8238507  16.7374969
  78.5584694  54.2572021  16.2920196  82.2032816  69.3162568  15.9646291
  81.6553762  68.6920451  15.6966356  82.6645845  69.5056840  15.2490370
  82.1900026  69.2521618  15.8196722  81.5560720  51.2202430  12.7557787
  80.7506684  51.1100160  13.0725625  81.4267456  51.3214886  11.8987652
  81.4180853  51.2186100  12.6765827  85.0126681  57.3847922  13.3497483
  84.4289670  57.8857129  12.9375051  85.3330975  56.8777478  12.7161807
  84.9739856  57.3839757  13.1955991  77.5521480  56.2988517   3.6256158
  78.3737174  56.4686830   3.3837853  77.0891131  56.4535778   2.9022456
  77.6052642  56.3470250   3.4827803  76.1416812  54.2931279  14.4054587
  76.6861225  53.9522406  14.9958929  76.1953748  55.1516741  14.5475872
  76.2305931  54.3686539  14.5136460  71.9547371  68.0547695  11.2793395
  72.5592228  68.0143529  10.6507216  71.7474683  68.9018847  11.3097451
  72.0136268  68.1735698  11.1909511  81.7691143  70.3213640  12.4955632
  82.5889517  70.1776606  12.7571927  81.4885220  70.9459839  13.0372070
  81.8487886  70.3923992  12.6143572  67.1898653  67.0382313  11.1492318
  67.0922931  66.2278584  11.4582375  67.9727523  67.0174106  10.7638586
  67.2914789  66.9149403  11.1379181  91.4404478  77.0654143  10.2151439
  90.5842373  77.2262641  10.2660556  91.4872132  76.1946207  10.2356500
  91.3203589  76.9604945  10.2257505  94.7498194  83.3340669  19.8211895
  95.4564962  82.8392699  19.9498830  94.9386130  83.7749750  19.0914553
  94.8826100  83.3259019  19.7320941  94.2856299  79.1246187  12.8583091
  94.8312259  79.8031274  12.9177060  94.2273175  78.9833648  11.9984672
  94.3572213  79.2038189  12.7395151  80.5995418  82.6355540   7.8703777
  80.3645603  81.8023192   7.7636046  80.7381059  82.9160205   7.0564978
  80.5851081  82.5539043   7.7346132  82.8985506  74.8041270  10.7688085
  82.2790537  74.2133918  10.5998099  82.7969369  75.3952705  10.1352408
  82.7923181  74.8045353  10.6493074  82.6254639  78.3493552  13.0131653
  82.5013335  78.9355997  13.6481472  83.2772923  77.8553748  13.3143928
  82.7028288  78.3632356  13.1517583  87.6512980  81.5255269  12.2919165
  88.2961982  81.0327712  11.9730113  87.8914757  81.6680056  13.1185243
  87.7823565  81.4732711  12.3668698  90.1899071  84.3710175  11.9426057
  90.4722314  83.5761581  11.7212813  90.9185231  84.8490762  11.9631118
  90.3388635  84.3244772  11.9129072  88.1680265  71.9133209   9.1841822
  87.8383595  72.3644352   8.5145521  87.4925267  71.8349372   9.7314829
  88.0190701  71.9684344   9.1665046  95.3756673  67.9018732   7.4291433
  95.0610114  68.5922210   7.8611855  94.8583614  67.8463514   6.7276934
  95.2521143  67.9953620   7.3888382  82.1612743  87.5141210   9.1459983
  81.6780321  88.2391700   9.1219567  82.9736061  87.8117340   9.2570141
  82.2103491  87.6643564   9.1587262  88.2326897  86.3073391  11.7509797
  87.7153838  85.9480806  11.1471106  88.9301288  85.7835566  11.7615864
  88.2592478  86.1771079  11.6640056  91.8890489  86.7568205  17.7125970
  91.9773835  86.5694346  18.5604181  92.3180201  86.1105635  17.3130817
  91.9652591  86.6331213  17.7797722  89.4560949  86.0399365  16.6943633
  88.8931783  85.6271975  17.2183294  90.2181972  85.9652271  17.1136776
  89.4855397  85.9676766  16.8336633  86.3736219  69.9745497   4.6664770
  87.1282187  70.3423814   4.4281820  86.1963753  70.3485052   5.4343950
  86.4590697  70.0843685   4.7449658  99.6671118  76.1239938  12.7112309
  98.8299539  76.1942125  12.9459904  99.6359349  76.1264432  11.8386612
  99.5389400  76.1350165  12.6171857  86.0635847  78.2672973  18.4260678
  86.2356350  78.1578868  19.2745959  86.6005204  78.9127379  18.1891870
  86.1680851  78.3464975  18.5165775  84.7293284  72.3815816   1.3642883
  84.5468857  72.5987697   0.5383876  85.5918897  72.4954829   1.4201497
  84.8297873  72.4305714   1.2497370  84.3407715  84.2203738   8.8065871
  85.1796615  84.4526671   8.8539632  84.3719485  83.3508050   8.7372906
  84.4689433  84.1260685   8.8030516  84.9660418  84.6404614  13.1079176
  85.5058643  84.4975745  13.7782549  84.2830365  85.0401364  13.4763203
  84.9452572  84.6784284  13.2613598  90.4093003  69.3842227   4.3991907
  91.1379163  69.2058182   3.9530063  90.4987896  70.2260307   4.6099085
  90.5299665  69.4826105   4.3645424  92.0010548  86.1877224  20.3769754
  92.7850965  86.3008072  20.7425496  91.8007143  85.3618361  20.5728440
  92.0876574  86.0823944  20.4604140  80.3697564  80.8604904  13.2613598
  80.1035979  80.0444021  13.4204588  80.3836128  80.9058060  12.3909113
  80.3322286  80.7461809  13.1567080  97.3478957  71.1882719  11.2956032
  97.9904866  71.2580824  11.8817947  97.6001978  70.5211942  10.7935574
  97.4801090  71.1009068  11.3083311  85.1196170  74.3983283  15.9080606
  84.4267967  73.9280262  16.1541337  85.7356497  74.1721587  16.4822313
  85.1080700  74.2950414  16.0289758  92.1580941  88.0987326  14.0236210
  91.3596187  87.8586826  14.2810078  92.6066953  88.1501719  14.7703257
  92.1055553  88.0709717  14.1721134  80.7790977  81.6463684  10.5425342
  80.5966550  81.6210570   9.6897634  81.5140646  82.1162622  10.5814251
  80.8605041  81.7125046  10.4223261  83.8436729  78.3648687  17.0507451
  84.5676701  78.3501717  17.5372346  83.9452865  79.0744042  16.5529419
  83.9654938  78.4673390  17.0486238  91.2181678  81.8447771  21.9156398
  90.4254659  82.1591283  22.1009017  91.3330605  82.0599240  21.0777182
  91.1177089  81.9231608  21.8194733  92.1465471  81.7467975  16.8541695
  92.7204333  81.1095219  17.0090258  92.0680275  81.7472057  15.9851352
  92.2198706  81.6533086  16.7488105  80.7461888  78.5257184  10.6924409
  81.3235390  78.3893635  11.3316654  80.0475949  78.0692969  10.9469993
  80.7282909  78.4379451  10.8246698  87.5029190  80.1791240   8.9062892
  87.2448434  79.3462975   8.8794191  87.5577673  80.4048853   8.0655392
  87.4728968  80.0889011   8.7783029  92.5830240  72.2819691   9.0066985
  91.8786567  71.7928876   9.1650904  92.6315214  72.2942165   8.1355429
  92.4860291  72.2109339   8.9006324  86.4763902  77.7329003   9.3927787
  85.9013493  77.8921171  10.0291748  86.0999578  77.0964412   8.9296237
  86.3366714  77.6626815   9.4182345  90.1437191  76.2052352  14.2520165
  89.7551623  75.7806570  13.5972356  89.4791889  76.4534501  14.7597192
  89.9884118  76.1791073  14.2308033  76.2220721  77.3769077   7.4072227
  76.3080973  77.0000946   8.1885757  76.8496518  77.0029523   6.9292186
  76.3277272  77.2654559   7.4517705  93.9663552  69.9026981  11.7644149
  94.3474064  69.2205152  12.1512024  93.1626836  69.6136583  11.5819814
  93.9040014  69.7594029  11.7948205  97.4685619  83.1176953  16.8626548
  97.2324256  82.2865017  16.7438608  98.1128848  83.0662560  17.4481392
  97.5280290  82.9874641  16.9312441  81.8096679  86.1460810  11.4603588
  81.8500825  86.4175661  10.6323368  82.3691204  86.6702718  11.8761376
  81.8980025  86.2636565  11.3995476  87.9255392  72.4081179  21.6306758
  87.6108834  73.1780742  21.3676320  87.6045325  71.8451435  21.0458985
  87.8314312  72.4391448  21.5048108  98.4922040  82.9021401  12.9254842
  98.1867857  83.6349458  13.2868158  97.7728255  82.4959331  12.6447628
  98.3409382  82.9503134  12.9367979  85.4787289  70.7971700   7.2452954
  84.6109715  70.8694300   7.3110563  85.7662494  71.5993779   7.4340929
  85.3927038  70.9265847   7.2827721  94.6020178  70.9449560  15.5764276
  95.3473770  70.7559370  15.1627701  94.1857483  71.4707798  15.0178132
  94.6505152  70.9951705  15.4328849  88.6304840  82.1497385  15.0729674
  88.1316534  82.8613153  15.1514563  89.4405064  82.4698052  15.0347837
  88.6760947  82.3024234  15.0786243  84.8932958  81.4120338   9.3192395
  84.6046206  80.7857810   9.8538123  85.7616306  81.3540626   9.3857076
  84.9793209  81.3107883   9.4083350  95.6810855  76.5555122   9.6374377
  95.3375621  75.8345457   9.9881627  95.7803898  76.3468973   8.7952735
  95.6452898  76.4179325   9.5646057  87.5571898  75.0078430  20.3691973
  86.7471674  75.3136210  20.2581815  88.0346585  75.7284012  20.4844557
  87.5075377  75.1593031  20.3699044  86.4163457  84.2224151  10.6174876
  85.8944211  84.3624443  11.3026740  86.8037478  83.4634815  10.8076993
  86.3967158  84.1309675  10.7475952  83.4054642  74.2729960   4.6869830
  83.1179437  73.9031230   3.9501778  84.0925110  74.7424815   4.4253535
  83.4643539  74.2876929   4.5384906  86.2408313  78.1382908   6.1337235
  86.9630965  78.3024066   5.6741041  85.7616306  78.8592573   6.0276575
  86.2772044  78.2681137   6.0502849  94.2001821  74.4746707  11.5133920
  93.3612921  74.5007986  11.2772183  94.2706188  75.1217442  12.0939267
  94.0870214  74.5742832  11.5643037  83.8915930  80.5440980  15.2391375
  84.4037027  80.8225234  14.5900135  83.6052272  81.2830274  15.6054188
  83.9250793  80.6943334  15.1981253  92.6471099  71.3732084   6.2461536
  93.3497452  71.1739832   5.7681494  92.3815288  70.6008026   6.5530379
  92.7117731  71.2295050   6.2206978  80.9782836  75.0511172   5.5355111
  81.0798973  75.8537334   5.8636087  81.7738723  74.8498508   5.2378192
  81.1110742  75.1397071   5.5390467  87.4099655  72.6367369  15.2992417
  87.2182852  72.6522503  16.1491840  88.2598251  72.8331043  15.2759071
  87.5075377  72.6681720  15.4215711  81.7946568  75.1658350  13.2776233
  81.6532060  74.3142291  13.4020741  82.0787132  75.2087011  12.4538439
  81.8154414  75.0458100  13.1743857  91.9485161  77.0025441   7.4220721
  91.7019875  76.9221191   8.2557510  92.2770284  76.2178908   7.2283249
  91.9606404  76.8751706   7.5168244  94.1811295  80.0105175  17.4629884
  94.1759333  79.1384992  17.4672311  94.8872288  80.2093344  16.9899340
  94.2856299  79.9109049  17.3936920  87.9082188  79.7382159  16.8343704
  88.0525564  80.3183367  16.1986814  88.2557836  80.1158456  17.5393559
  87.9809649  79.8802863  16.8442699  90.0802105  78.9372327  14.6168836
  89.3325419  79.1303342  14.2117114  90.2343630  78.1117547  14.3792957
  89.9924533  78.8437439  14.5214242  86.9809943  87.9284931  13.7004731
  87.1299507  87.3687847  13.0478136  87.7609945  88.0076933  14.0837250
  87.1184036  87.8570496  13.6601680  89.5063243  88.0999574  14.9789222
  89.4306915  87.4308384  15.5340010  89.4353103  88.8017362  15.4929888
  89.4843850  88.1044481  15.1366070  90.3203882  72.8322878  15.5064240
  90.7776496  73.5646853  15.6337032  90.3960211  72.4089343  16.2651495
  90.3994852  72.8780116  15.6365316  82.5636873  73.0788698  16.5953683
  82.0279063  72.4669056  16.9114451  82.6254638  73.6536834  17.2487350
  82.4932506  73.0735626  16.7389110  94.7931208  66.0112753   9.3758083
  94.9114776  66.4689217   8.6425385  94.6193384  65.2058015   9.0894300
  94.7850379  65.9606526   9.2259016  88.1986260  74.8224982  12.3506064
  87.4082335  74.6416442  12.6723399  88.5946883  74.0451935  12.3336358
  88.1403136  74.6812443  12.3958612  93.5829946  82.4567412  10.0765510
  92.9074948  82.2252645  10.5778897  93.5922323  81.8488595   9.4507615
  93.4848451  82.3326337  10.0581662  90.7124090  77.2985241  16.8329563
  90.6483232  78.1595198  16.7049699  90.8521278  76.9817234  16.0325114
  90.7239560  77.3785408  16.6957775  89.3943184  79.9917381  10.9745766
  88.9705433  80.1921880  10.2384784  89.2188040  79.1446229  11.0870065
  89.3054065  79.8966162  10.8819456  88.8954878  91.5067894  13.4367223
  89.3850808  90.8078683  13.2542887  88.3239110  91.2091764  14.0243280
  88.8839408  91.3594117  13.4968264  84.6825629  80.4869432   6.4073738
  84.8390248  80.4216235   7.2629730  85.0226222  81.2617985   6.1952418
  84.7558864  80.5918630   6.5028332  95.0921881  84.0729963  22.3894013
  95.9056747  83.8015112  22.5499146  94.9316848  83.7737503  21.5854209
  95.1891830  83.9884889  22.2939419  92.3694043  74.7563620  15.3289402
  92.5836013  74.1174534  14.7752756  91.7527942  75.2009444  14.8997263
  92.3099373  74.7273764  15.1839833  81.2559891  77.6704382   6.7234505
  81.6358856  78.0888927   6.0594773  80.6815256  78.2517838   7.0303349
  81.2271216  77.8182241   6.6711246  94.5333131  76.3652685  16.2672709
  93.7209813  76.0578576  16.3485882  94.9923066  75.8851685  16.8315421
  94.4813516  76.2489178  16.3627303  91.7608772  67.8663556  10.3176745
  90.8902330  67.8402277  10.2710054  92.0149113  67.6940748   9.5002590
  91.6702332  67.8373699  10.1896881  91.6286639  77.7712757  21.0501411
  92.0986270  78.3954873  21.4369285  91.6748519  77.1029732  21.6094626
  91.7054515  77.7647437  21.1901483  88.7857912  69.8769784  11.7750215
  88.2696401  69.1849976  11.9001794  88.2251841  70.5440561  11.7212814
  88.6264426  69.8733042  11.7856281  90.8550146  70.4162744  13.6043067
  90.4681899  70.4411776  14.3856597  90.3683083  69.8504423  13.1517584
  90.7262655  70.3358495  13.6530971  95.1043125  85.1336253  17.6616854
  95.7422846  84.6396449  17.3279310  94.4617217  85.0613654  17.0769081
  95.1037352  85.0495262  17.5259209  96.8300125  76.9825399  12.2282770
  96.4027733  76.8951748  11.4730869  96.1926178  77.0903175  12.8137614
  96.6729733  76.9858059  12.2028211  90.5207288  67.3029730  15.8953327
  91.1500406  67.8390030  15.6174398  90.6893150  67.2107089  16.7466893
  90.6385082  67.3691092  15.9801856  90.3221202  72.0900924  18.1679739
  91.1494632  71.8186073  18.2238353  90.3429049  72.8861766  18.5243557
  90.4474053  72.1680679  18.2294922  95.1597382  85.8256062  14.3022211
  95.9489760  85.4745126  14.4224292  95.3340980  86.6392450  14.0398845
  95.3017664  85.8941919  14.2810079  84.8990692  79.2364787  11.3550000
  84.0578699  79.1368661  11.5628893  85.1080700  80.0060268  11.7064320
  84.8055385  79.3356831  11.4377315  82.3766259  76.8584324   9.1834750
  81.9822957  76.9327336   8.4084860  81.8206376  77.2442271   9.7343112
  82.2369072  76.9266099   9.1502410  94.0131206  69.8365618   8.8638629
  94.2180799  69.7687926   9.7095626  93.6857630  70.6424439   8.7959807
  93.9946454  69.9451559   8.9798284  88.7107357  77.1646186  10.6047597
  88.4070495  76.6102175  11.2058005  88.0086778  77.3438396  10.1175631
  88.5623567  77.1090969  10.6217303  87.7673454  74.4746706   5.1692299
  88.0433189  73.7565619   4.7569867  88.3672124  75.0731626   4.9613405
  87.8966719  74.4567077   5.0773060  86.7725708  84.3795907  15.3119695
  86.6646063  84.3897969  16.1781753  86.9821490  85.2050688  15.1224649
  86.7875819  84.5036982  15.4123787  97.2664894  70.3897382   8.3441395
  96.6539207  70.8767785   8.7295127  97.3629069  69.7140873   8.8879046
  97.1902791  70.3615691   8.4820253  91.2683975  72.1460224   3.4438894
  91.7227721  72.3170784   4.1686739  91.7424021  71.5328334   3.0436670
  91.4052295  72.0811109   3.4912656  84.7899500  81.6308550  12.7741633
  84.1987433  82.2718048  12.7444648  85.5520524  82.0546167  12.7472932
  84.8147761  81.7884388  12.7656780  85.1860123  72.7910547  13.4409650
  85.6461605  72.8649477  14.1784774  85.2316230  73.5891801  13.0909472
  85.2610678  72.9204694  13.4982407  86.8343473  73.4577242  18.0081677
  86.4429038  72.8110589  18.4437455  87.0029335  74.0488677  18.6275933
  86.8014383  73.4491510  18.1644383 100.9089922  81.4614319  13.7718911
 100.9673045  81.9100968  14.5178887 100.2756389  81.8713132  13.3348991
 100.8241217  81.5888054  13.8171459  90.5276570  70.6453017   9.5815763
  89.6812615  70.8175825   9.4557112  90.5247703  69.8402361   9.9181591
  90.4023720  70.5514046   9.6126890  91.5974871  74.4228231  10.4477821
  91.1234825  73.8969993  10.9583132  91.9693006  73.8757704   9.8792682
  91.5824760  74.2644228  10.4392968  81.9747901  76.4199738  15.8161366
  82.8373514  76.3195447  15.7298696  81.6439684  75.8394447  15.2546939
  82.0533097  76.3191365  15.7206772  97.8611601  79.4830607  11.8584601
  97.6209824  78.6437022  11.8627028  98.3403608  79.5630774  12.5825375
  97.8963785  79.3712007  11.9659403  99.8616788  76.2632064   9.8113860
  99.6226558  76.2227898   8.9734645 100.0250690  77.1103216   9.9379581
  99.8507092  76.3824149   9.7067342  96.4662818  80.6482013  15.7418905
  97.1897017  80.1954540  15.5629925  96.2012781  80.9286679  14.9591233
  96.5344092  80.6232982  15.5997621  85.3349687  75.2442187  12.4771785
  84.7102757  75.2560579  11.8697737  84.9995282  75.7202362  13.1263025
  85.1935179  75.3160704  12.4828353  82.0475362  83.3042647  13.9175549
  81.5175287  82.6135086  13.9670524  82.3200456  83.2952832  13.0888257
  82.0100085  83.2009779  13.8022965  92.2481608  80.7465892  13.8913920
  91.6338601  80.2023942  14.1862556  92.7648893  80.2330128  13.4119737
  92.2337270  80.5902301  13.8638149  91.4877905  81.8170162  11.6258219
  91.0605513  81.1919880  11.1923654  91.4802849  81.5345084  12.4517226
  91.4237046  81.6822942  11.6838047  84.6040432  76.8535335  14.6946653
  84.7633919  76.0978659  15.0998375  84.4233326  77.4026274  15.3487391
  84.6005791  76.8229149  14.8509359  92.5460735  69.0196570  15.2497443
  92.0501296  69.2160245  14.5589009  93.3029797  69.4189239  15.0786244
  92.5847560  69.1074304  15.1217579  89.8163615  72.6938916  11.8400753
  89.8406102  72.1599029  11.1513533  90.0675088  72.1856225  12.5026344
  89.8573533  72.5399820  11.8365398  77.3271205  79.9770411  11.2743897
  77.2214654  79.9317256  10.4095981  76.5771425  80.3224192  11.5558182
  77.2006807  80.0211319  11.1881227  86.0964937  71.4209734  11.2206497
  86.1363309  71.9218941  11.9341205  85.2714602  71.5120128  10.9512420
  85.9804463  71.5091551  11.2857036  88.2794550  80.9870474  19.3226792
  87.4290180  81.1242189  19.4584437  88.4422678  80.2534253  19.7674494
  88.1778413  80.8984576  19.4082391  87.5179300  77.9370244  13.5180396
  86.6871230  78.1044062  13.3115645  87.4630818  77.5606195  14.3029282
  87.3868715  77.9059976  13.6028925  85.3263084  71.4279137  19.1536807
  85.9515787  70.8841270  19.4266239  84.8713564  70.9474055  18.5844597
  85.3511344  71.2768619  19.1098401  85.8915344  76.2125836   4.0470514
  86.0318305  76.7098300   4.7499155  86.3897877  75.5112130   4.1884728
  85.9856425  76.1827815   4.1722093  98.8998132  79.6108424  14.2449455
  99.4915973  80.2505675  14.2767653  99.3357127  78.9131461  14.5341522
  99.0516564  79.6026775  14.2930288  90.7291522  84.0325797  14.8707349
  90.2216613  84.5861643  15.3147980  90.4318168  84.0934087  14.0526124
  90.6096407  84.1232108  14.8155806  92.8953704  72.3979116  13.7132012
  93.3208776  71.9451643  13.1015538  92.2810698  71.8439187  13.9896799
  92.8682350  72.2493092  13.6637037  82.4268554  79.2760788   4.6452637
  82.9360784  79.8725295   5.0263942  82.9002827  79.0086761   3.9629057
  82.5711930  79.3246603   4.6007160  91.3347927  68.8694216   7.1222589
  90.6916245  68.7191862   7.6907727  90.9947334  68.6236561   6.3571694
  91.1893005  68.8106339   7.0925604  96.0875401  73.2809526   9.4542971
  96.4403011  72.8539249  10.1288770  95.2290203  73.1960370   9.5844047
  96.0124846  73.2054267   9.5737981  84.7859086  75.9117046   7.5125817
  84.0671075  76.3281179   7.7798681  85.1571448  76.4771285   6.9617456
  84.7351018  76.0566328   7.4708624  94.0858667  76.5444895  13.4027813
  94.0656594  76.3628190  14.2562592  94.1337868  77.4156914  13.3787397
  94.0893308  76.6461433  13.5251108  92.0304997  83.1332087  19.3276290
  91.9900852  82.4881764  18.7421446  92.8428315  83.0768704  19.6401702
  92.1448150  83.0291054  19.2873239  97.5199461  68.4027938  10.3827283
  97.0130326  67.6957078  10.3148461  98.3166895  68.0721127  10.5128360
  97.5626700  68.2501090  10.3926278  93.4363477  74.9094551   6.2800947
  93.2077170  74.9327252   5.4379305  93.6961553  74.0852018   6.3995958
  93.4409665  74.7910631   6.1726145  87.7182706  76.7629024  15.8826047
  87.2061609  76.1550207  16.2411079  87.5462202  77.4785616  16.3500023
  87.6172343  76.7792323  16.0042271  82.5648420  75.2066599  18.5328409
  82.3951011  75.8667974  17.9876616  82.1214370  75.4173160  19.2540898
  82.4747754  75.3352581  18.5590039  86.4908240  73.4471097   7.5755143
  86.9665606  73.8088177   6.9405324  85.9896839  74.1027564   7.8555285
  86.4873599  73.5965286   7.5231884  91.5951776  74.6853268  18.3228303
  92.1523206  74.4567078  17.6906768  91.2712841  75.4458934  18.0463515
  91.6298186  74.7637105  18.1884800  79.4650485  78.1113465  13.7916899
  78.9177204  77.4414110  13.9097767  80.2542863  77.7443312  13.8560366
  79.5002668  77.9578451  13.8185599  89.3134893  77.7720922  19.2880310
  90.0646220  78.0872598  19.6019864  89.5057470  77.5700092  18.4614232
  89.4526307  77.7888303  19.2123706  96.1620183  73.8994488   6.5304105
  96.1614410  73.7443144   7.3888382  95.9576363  74.7457475   6.4745491
  96.1319961  74.0015109   6.6492045  78.2237454  77.3234272  10.9462922
  78.0459215  76.8710881  11.6717838  77.9356476  78.1260434  11.1301399
  78.1550407  77.3756830  11.0806425  93.8861035  78.5791990  10.1840312
  94.3814701  77.8614985  10.1444333  93.0760811  78.2762787  10.0694799
  93.8404929  78.4289636  10.1614038  79.9609924  79.8561996   8.0584681
  79.0955444  79.8447687   7.9467452  80.0608740  79.6692219   8.9055820
  79.8484091  79.8268057   8.1673625  95.9512854  81.3295677  12.8717441
  96.3767926  80.8070099  12.3187866  95.5869774  81.9276515  12.3506064
  95.9599457  81.3405904  12.7126451  85.5866934  89.6259895  11.6314787
  85.9013493  90.4396283  11.6392568  85.9960347  89.2410113  12.2996946
  85.6935032  89.6888597  11.7318878  94.6268438  86.6531255  21.3810671
  94.7365404  85.8639815  21.7367418  94.9559335  86.5637191  20.5785009
  94.6920844  86.5237108  21.3153061  89.4560949  69.8157412  16.1576693
  89.5888854  69.0188405  16.4857669  89.8406101  70.3423815  16.7374969
  89.5317277  69.7757329  16.2920196  93.1765400  84.8347876  15.9646291
  92.6286346  84.2105759  15.6966356  93.6378429  85.0242148  15.2490370
  93.1632609  84.7706926  15.8196722  92.5293304  66.7387738  12.7557787
  91.7239268  66.6285468  13.0725625  92.4000039  66.8400194  11.8987652
  92.3913437  66.7371408  12.6765827  95.9859264  72.9033230  13.3497483
  95.4022253  73.4042437  12.9375051  96.3063558  72.3962786  12.7161807
  95.9472440  72.9025065  13.1955991  88.5254063  71.8173825   3.6256158
  89.3469758  71.9872138   3.3837853  88.0623714  71.9721086   2.9022456
  88.5785226  71.8655558   3.4827803  87.1149395  69.8116587  14.4054587
  87.6593808  69.4707714  14.9958929  87.1686331  70.6702049  14.5475872
  87.2038515  69.8871846  14.5136460  82.9279954  83.5733003  11.2793395
  83.5324812  83.5328837  10.6507216  82.7207267  84.4204155  11.3097451
  82.9868851  83.6921006  11.1909511  92.7423726  85.8398948  12.4955632
  93.5622100  85.6961914  12.7571927  92.4617804  86.4645147  13.0372070
  92.8220470  85.9109300  12.6143572  78.1631236  82.5567621  11.1492318
  78.0655514  81.7463892  11.4582375  78.9460106  82.5359414  10.7638586
  78.2647373  82.4334711  11.1379181  96.0928754  89.9168591  15.9080606
  95.4000550  89.4465570  16.1541337  96.7089081  89.6906895  16.4822313
  96.0813283  89.8135722  16.0289758  98.8987976  87.9266487  21.6306758
  98.5841417  88.6966050  21.3676320  98.5777909  87.3636743  21.0458985
  98.8046895  87.9576755  21.5048108  98.5304481  90.5263738  20.3691973
  97.7204257  90.8321518  20.2581815  99.0079168  91.2469320  20.4844557
  98.4807960  90.6778339  20.3699044  93.5369457  88.5974006  16.5953683
  93.0011647  87.9854364  16.9114451  93.5987222  89.1722142  17.2487350
  93.4665090  88.5920934  16.7389110 102.6019222  93.2898065  21.0501411
 103.0718854  93.9140181  21.4369285 102.6481103  92.6215040  21.6094626
 102.6787098  93.2832745  21.1901483 101.4939871  82.8215038  15.8953327
 102.1232989  83.3575338  15.6174398 101.6625734  82.7292397  16.7466893
 101.6117666  82.8876400  15.9801856 101.2953786  87.6086232  18.1679739
 102.1227215  87.3371381  18.2238353 101.3161632  88.4047074  18.5243557
 101.4206636  87.6865987  18.2294922  97.8076056  88.9762550  18.0081677
  97.4161621  88.3295897  18.4437455  97.9761919  89.5673985  18.6275933
  97.7746967  88.9676818  18.1644383  92.9480484  91.9385046  15.8161366
  93.8106097  91.8380755  15.7298696  92.6172267  91.3579755  15.2546939
  93.0265681  91.8376673  15.7206772  96.2995667  86.9464445  19.1536807
  96.9248371  86.4026578  19.4266239  95.8446147  86.4659363  18.5844597
  96.3243928  86.7953926  19.1098401  93.5381004  90.7251907  18.5328409
  93.3683594  91.3853282  17.9876616  93.0946954  90.9358468  19.2540898
  93.4480337  90.8537889  18.5590039 100.4293532  85.3342720  16.1576693
 100.5621438  84.5373713  16.4857669 100.8138685  85.8609123  16.7374969
 100.5049861  85.2942637  16.2920196  98.0881979  85.3301895  14.4054587
  98.6326392  84.9893022  14.9958929  98.1418915  86.1887357  14.5475872
  98.1771098  85.4057154  14.5136460  72.4983851  29.2348184   6.7551942
  73.2050619  28.7400215   6.8838876  72.6871787  29.6757266   6.0254600
  72.6311757  29.2266534   6.6660987  69.6376146  32.6575721   4.6466017
  69.7259491  32.4701861   5.4944228  70.0665858  32.0113150   4.2470864
  69.7138248  32.5338728   4.7137769  67.2046605  31.9406881   3.6283679
  66.6417440  31.5279490   4.1523341  67.9667629  31.8659786   4.0476823
  67.2341054  31.8684281   3.7676680  69.7496205  32.0884740   7.3109801
  70.5336622  32.2015587   7.6765543  69.5492799  31.2625877   7.5068487
  69.8362230  31.9831459   7.3944187  69.9066598  33.9994842   0.9576256
  69.1081844  33.7594342   1.2150125  70.3552610  34.0509235   1.7043304
  69.8541209  33.9717233   1.1061181  68.9667335  27.7455287   8.8496445
  68.1740316  28.0598798   9.0349064  69.0816262  27.9606755   8.0117229
  68.8662746  27.8239123   8.7534779  75.2171276  29.0184468   3.7966595
  74.9809913  28.1872533   3.6778655  75.8614505  28.9670075   4.3821439
  75.2765946  28.8882156   3.8652488  67.2548900  34.0007089   1.9129269
  67.1792571  33.3315900   2.4680057  67.1838759  34.7024877   2.4269935
  67.2329507  34.0051996   2.0706117  66.6440535  37.4075409   0.3707270
  67.1336465  36.7086198   0.1882934  66.0724767  37.1099279   0.9583327
  66.6325065  37.2601633   0.4308310  72.8407538  29.9737478   9.3234060
  73.6542403  29.7022627   9.4839193  72.6802504  29.6745018   8.5194256
  72.9377487  29.8892404   9.2279466  69.3772296  23.6720272   7.9841458
  69.8471927  24.2962388   8.3709332  69.4234176  23.0037248   8.5434673
  69.4540171  23.6654952   8.1241529  72.8528782  31.0343769   4.5956901
  73.4908503  30.5403964   4.2619357  72.2102874  30.9621169   4.0109128
  72.8523009  30.9502777   4.4599256  72.9083039  31.7263577   1.2362258
  73.6975417  31.3752642   1.3564339  73.0826637  32.5399965   0.9738891
  73.0503320  31.7949434   1.2150126  66.0280207  26.8877990   6.2566839
  65.1775837  27.0249704   6.3924484  66.1908334  26.1541768   6.7014540
  65.9264070  26.7992091   6.3422438  69.7790654  29.0339602   6.2616336
  69.7386508  28.3889279   5.6761492  70.5913972  28.9776220   6.5741748
  69.8933807  28.9298569   6.2213286  72.3754095  32.5538770   8.3150717
  72.4851061  31.7647331   8.6707465  72.7044992  32.4644706   7.5125055
  72.4406501  32.4244623   8.2493108  70.9251057  30.7355391   2.8986338
  70.3772003  30.1113275   2.6306403  71.3864086  30.9249663   2.1830417
  70.9118266  30.6714441   2.7536769  80.1622718  38.4846966  -2.8508514
  79.3060614  38.6455465  -2.7999397  80.2090372  37.6139030  -2.8303453
  80.0421830  38.3797768  -2.8402448  74.5463858  48.0209684  -7.0871283
  73.7946758  47.6425223  -7.3155237  74.9949870  48.0528118  -7.8352472
  74.5013525  47.9695291  -7.2313780  83.4716435  44.7533492   6.7551942
  84.1783202  44.2585523   6.8838876  83.6604370  45.1942573   6.0254600
  83.6044340  44.7451842   6.6660987  79.5393109  50.3949322  -5.7174624
  79.9232489  50.9636221  -6.2569849  79.4752250  49.6698833  -6.1968808
  79.5866536  50.3724786  -5.8680761  83.0074539  40.5439010  -0.2076863
  83.5530499  41.2224097  -0.1482893  82.9491416  40.4026471  -1.0675281
  83.0790454  40.6231012  -0.3264802  76.1248614  48.0328076  -4.8208510
  76.2258977  47.2228430  -4.5111382  75.5290359  47.9385023  -5.4508832
  76.0521153  47.8993104  -4.8682272  75.9649354  52.9505666  -3.4193654
  76.6086809  53.3918830  -3.0297496  76.2905609  52.1459092  -3.5063395
  76.1081182  52.8970860  -3.3748177  76.6669934  45.9617640  -8.0473792
  76.9885775  46.5022848  -8.6512484  77.3142030  45.3914412  -7.9151503
  76.8095989  45.9576816  -8.1166757  71.3472879  39.7686375  -0.0528300
  71.2231576  40.3548821   0.5821519  71.9991163  39.2746571   0.2483975
  71.4246528  39.7825180   0.0857630  78.9059577  44.3504080  -7.9759614
  79.3453212  43.7421181  -7.5304841  78.7564240  43.9711454  -8.7474149
  78.9481043  44.2042551  -8.0240447  76.3731220  42.9448092  -0.7740789
  77.0180222  42.4520535  -1.0929840  76.6132997  43.0872879   0.0525290
  76.5041805  42.8925534  -0.6991255  78.9117311  45.7902998  -1.1233896
  79.1940554  44.9954404  -1.3447140  79.6403472  46.2683585  -1.1028835
  79.0606875  45.7437595  -1.1530881  88.8935400  44.8962360  -4.1498065
  88.0633103  45.1073004  -3.9864649  88.8444652  44.0699415  -4.4255782
  88.7642135  44.8051967  -4.1660700  70.8830983  48.9334034  -3.9199970
  70.3998561  49.6584523  -3.9440387  71.6954301  49.2310164  -3.8089813
  70.9321731  49.0836387  -3.9072691  76.9545137  47.7266214  -1.3150156
  76.4372079  47.3673629  -1.9188848  77.6519528  47.2028389  -1.3044090
  76.9810718  47.5963902  -1.4019897  80.6108729  48.1761028   4.6466017
  80.6992075  47.9887169   5.4944228  81.0398442  47.5298458   4.2470864
  80.6870832  48.0524036   4.7137769  78.1779189  47.4592188   3.6283679
  77.6150024  47.0464798   4.1523341  78.9400212  47.3845094   4.0476823
  78.2073638  47.3869589   3.7676680  73.7375180  49.4490210  -3.7679690
  74.4395760  48.9342199  -3.7106934  73.6572663  49.7764361  -2.9632815
  73.8298941  49.4204436  -3.6406898  88.3889358  37.5432761  -0.3547644
  87.5517779  37.6134948  -0.1200049  88.3577589  37.5457256  -1.2273342
  88.2607640  37.5542988  -0.4488096  74.7854087  39.6865797   5.3600725
  74.9574591  39.5771691   6.2086006  75.3223444  40.3320202   5.1231917
  74.8899091  39.7657798   5.4505821  73.0625956  45.6396562  -4.2594082
  73.9014855  45.8719494  -4.2120321  73.0937725  44.7700873  -4.3287047
  73.1907673  45.5453508  -4.2629438  73.6878659  46.0597437   0.0419223
  74.2276884  45.9168568   0.7122596  73.0048605  46.4594188   0.4103249
  73.6670813  46.0977108   0.1953645  83.1119544  41.7388437  -4.7635752
  83.8677059  42.1719952  -4.7246844  83.2181868  41.0893207  -4.1901116
  83.2389714  41.7065921  -4.6737727  86.1499715  45.5661715  -4.0133350
  85.7134947  45.5698457  -3.2574378  85.8162630  46.2467214  -4.4453772
  86.0362335  45.6674170  -3.9652517  80.7228788  47.6070047   7.3109801
  81.5069205  47.7200895   7.6765543  80.5225383  46.7811185   7.5068487
  80.8094814  47.5016767   7.3944187  69.0915804  42.2797728   0.1953645
  68.8254219  41.4636844   0.3544635  69.1054368  42.3250883  -0.6750840
  69.0540526  42.1654632   0.0907127  86.0697198  32.6075542  -1.7703922
  86.7123106  32.6773647  -1.1842006  86.3220218  31.9404765  -2.2724380
  86.2019330  32.5201891  -1.7576642  73.8414410  35.8176106   2.8420652
  73.1486207  35.3473086   3.0881384  74.4574738  35.5914410   3.4162360
  73.8298940  35.7143238   2.9629805  80.8799182  49.5180150   0.9576256
  80.0814428  49.2779650   1.2150125  81.3285193  49.5694542   1.7043304
  80.8273793  49.4902541   1.1061181  89.2844061  42.2842635  -5.1213712
  89.9460495  41.7233303  -5.2217804  88.6435473  41.7894665  -4.7961021
  89.2872929  42.1279044  -5.0881372  69.5009218  43.0656507  -2.5234611
  69.3184791  43.0403393  -3.3762319  70.2358887  43.5355445  -2.4845702
  69.5823281  43.1317869  -2.6436693  85.5708892  43.3008017  -5.3801723
  85.8064481  43.4453216  -6.2074873  85.7198455  44.0650425  -4.9870210
  85.6274695  43.4347071  -5.4438120  72.5654969  39.7841510   3.9847498
  73.2894942  39.7694541   4.4712392  72.6671106  40.4936865   3.4869466
  72.6873178  39.8866213   3.9826284  79.9399919  43.2640594   8.8496445
  79.1472899  43.5784106   9.0349064  80.0548846  43.4792063   8.0117229
  79.8395329  43.3424431   8.7534779  82.6131238  39.9874586  -6.8608540
  82.7078092  40.7263880  -6.4068914  81.9890081  39.5592061  -6.4273975
  82.5340268  40.0335906  -6.7300392  80.8683711  43.1660798   3.7881741
  81.4422573  42.5288042   3.9430305  80.7898515  43.1664881   2.9191399
  80.9416946  43.0725910   3.6828152  69.4680128  39.9450008  -2.3735544
  70.0453631  39.8086458  -1.7343299  68.7694190  39.4885792  -2.1189960
  69.4501149  39.8572274  -2.2413255  76.2247430  41.5984063  -4.1597061
  75.9666674  40.7655798  -4.1865762  76.2795913  41.8241676  -5.0004561
  76.1947208  41.5081835  -4.2876924  75.1982142  39.1521826  -3.6732166
  74.6231734  39.3113994  -3.0368206  74.8217819  38.5157235  -4.1363716
  75.0584955  39.0819639  -3.6477608  78.8655431  37.6245175   1.1860212
  78.4769864  37.1999393   0.5312403  78.2010129  37.8727325   1.6937239
  78.7102359  37.5983896   1.1648080  82.6881792  31.3219804  -1.3015804
  83.0692304  30.6397975  -0.9147930  81.8845077  31.0329406  -1.4840139
  82.6258254  31.1786852  -1.2711748  86.1903859  44.5369776   3.7966595
  85.9542497  43.7057841   3.6778655  86.8347088  44.4855383   4.3821439
  86.2498530  44.4067464   3.8652488  75.8402277  45.3265297  -5.4890669
  76.4776224  45.0877045  -4.9438876  76.2657349  45.5302456  -6.2237508
  75.9978444  45.3216307  -5.5173512  70.5314920  47.5653634  -1.6056365
  70.5719065  47.8368485  -2.4336586  71.0909444  48.0895542  -1.1898577
  70.6198266  47.6829389  -1.6664477  76.6473633  33.8274002   8.5646805
  76.3327074  34.5973565   8.3016367  76.3263565  33.2644258   7.9799032
  76.5532552  33.8584271   8.4388155  87.2140280  44.3214225  -0.1405111
  86.9086097  45.0542281   0.2208205  86.4946496  43.9152154  -0.4212325
  87.0627622  44.3695958  -0.1291974  78.2223749  45.8037720  -3.8096883
  78.2962758  45.6412892  -2.9555033  79.0393256  45.9927909  -4.0536401
  78.3540108  45.8074462  -3.7198857  92.9142072  40.9607225  -0.8136767
  92.8466572  40.9803184  -1.6834180  92.8997734  41.8037552  -0.5881096
  92.9020829  41.0880960  -0.9084290  71.9829506  46.1495583  -6.7802439
  71.1567624  46.3957320  -6.9068160  72.0441497  46.0707663  -5.9140381
  71.8703673  46.1740532  -6.6713495  83.3238419  32.3642383   2.5104323
  84.0692011  32.1752193   2.0967748  82.9075723  32.8900621   1.9518179
  83.3723393  32.4144528   2.3668896  76.7628335  48.7672463  -9.0783409
  77.0526633  48.3761444  -9.8024183  77.4931816  48.9489168  -8.6378134
  76.9135219  48.7366277  -9.1200602  90.7000689  39.7351611  -2.5390172
  91.2508611  39.1019680  -2.2993080  90.6844805  40.2667004  -1.8474668
  90.7785886  39.7200560  -2.4011314  77.3523080  43.5690209   2.0069721
  76.8534774  44.2805976   2.0854610  78.1623305  43.8890875   1.9687884
  77.3979187  43.7217057   2.0126290  74.7034251  50.7439845  -6.0123260
  74.4834546  50.4537200  -5.2196593  74.4828773  50.0854800  -6.5405347
  74.6381845  50.6039554  -5.9734351  73.6151198  42.8313162  -3.7467558
  73.3264446  42.2050633  -3.2121831  74.4834546  42.7733449  -3.6802877
  73.7011450  42.7300706  -3.6576603  84.4029096  37.9747945  -3.4285576
  84.0593862  37.2538280  -3.0778326  84.5022138  37.7661796  -4.2707218
  84.3671138  37.8372148  -3.5013896  76.8702206  52.1169235  -7.2292567
  77.5226264  51.5845677  -7.0001541  76.1727815  51.7637887  -6.8424693
  76.8632924  51.9858758  -7.1380399  84.8642125  44.4373649  -7.8861588
  85.4300157  45.0966859  -7.9703045  84.2170028  44.7823347  -7.4145186
  84.8520881  44.5855591  -7.8288831  76.2790138  36.4271253   7.3032019
  75.4689914  36.7329033   7.1921862  76.7564825  37.1476835   7.4184603
  76.2293617  36.5785854   7.3039090  75.1381698  45.6416974  -2.4485077
  74.6162451  45.7817266  -1.7633213  75.5255718  44.8827638  -2.2582960
  75.1185399  45.5502498  -2.3184001  81.3348703  47.3812433  -8.4624509
  81.0935379  46.6480294  -8.8697444  81.5150036  47.9299290  -9.1158175
  81.3256327  47.3534825  -8.6194286  82.9220061  35.8939530  -1.5526033
  82.0831162  35.9200809  -1.7887770  82.9924428  36.5410265  -0.9720687
  82.8088455  35.9935656  -1.5016916  72.6134170  41.9633803   2.1731422
  73.1255267  42.2418057   1.5240182  72.3270513  42.7023098   2.5394235
  72.6469033  42.1136157   2.1321300  86.7977585  41.1007517  -4.2664791
  86.7111559  41.2562943  -3.4130013  86.3428065  41.7445592  -4.6405386
  86.7180842  41.2183272  -4.1957685  76.1317896  34.0560192   2.2332463
  75.9401093  34.0715327   3.0831887  76.9816492  34.2523866   2.2099118
  76.2293617  34.0874543   2.3555758  70.5164809  36.5851174   0.2116280
  70.3750300  35.7335114   0.3360788  70.8005372  36.6279834  -0.6121514
  70.5372655  36.4650924   0.1083904  80.6703401  38.4218264  -5.6439232
  80.4238115  38.3414015  -4.8102443  80.9988524  37.6371732  -5.8376704
  80.6824644  38.2944529  -5.5491709  84.5651450  45.1301623  -1.8552451
  84.4265809  45.8282669  -1.3503708  83.7851448  44.9750280  -2.2116269
  84.4294677  45.2101790  -1.8326177  82.9029535  41.4297998   4.3969931
  82.8977573  40.5577815   4.4012357  83.6090529  41.6286168   3.9239387
  83.0074539  41.3301873   4.3276966  76.6300428  41.1574982   3.7683751
  76.7743804  41.7376190   3.1326861  76.9776077  41.5351279   4.4733606
  76.7027890  41.2995686   3.7782746  78.8020346  40.3565151   1.5508883
  78.0543660  40.5496165   1.1457161  78.9561871  39.5310370   1.3133004
  78.7142773  40.2630262   1.4554289  75.7028183  49.3477754   0.6344778
  75.8517747  48.7880670  -0.0181818  76.4828185  49.4269756   1.0177297
  75.8402277  49.2763320   0.5941727  78.2281484  49.5192397   1.9129269
  78.1525155  48.8501208   2.4680057  78.1571343  50.2210185   2.4269935
  78.2062091  49.5237304   2.0706117  79.0422123  34.2515701   2.4404286
  79.4994737  34.9839676   2.5677079  79.1178451  33.8282167   3.1991542
  79.1213092  34.2972940   2.5705363  71.2855114  34.4981521   3.5293730
  70.7497303  33.8861879   3.8454497  71.3472879  35.0729657   4.1827397
  71.2150746  34.4928449   3.6729157  78.8851731  48.0393396  -7.2547125
  79.6501622  47.7703040  -7.5764461  78.7829821  47.5543406  -6.5377062
  78.9833226  47.9282961  -7.1967298  76.9204501  36.2417805  -0.7153889
  76.1300575  36.0609265  -0.3936554  77.3165123  35.4644758  -0.7323595
  76.8621377  36.1005266  -0.6701341  82.3048187  43.8760236  -2.9894444
  81.6293189  43.6445468  -2.4881057  82.3140563  43.2681418  -3.6152339
  82.2066691  43.7519161  -3.0078291  79.4342331  38.7178064   3.7669609
  79.3701472  39.5788021   3.6389746  79.5739519  38.4010058   2.9665161
  79.4457801  38.7978231   3.6297822  84.3064921  46.7325368 -10.7584266
  84.3884759  47.5392354 -11.0822815  84.7914664  46.7521327 -10.0343492
  84.3902079  46.8546030 -10.6997367  78.1161425  41.4110204  -2.0914188
  77.6923674  41.6114703  -2.8275169  77.9406280  40.5639052  -1.9789888
  78.0272305  41.3158985  -2.1840498  77.6173118  52.9260717   0.3707270
  78.1069048  52.2271506   0.1882934  77.0457350  52.6284587   0.9583327
  77.6057648  52.7786940   0.4308310  83.8140122  45.4922786   9.3234060
  84.6274987  45.2207935   9.4839193  83.6535088  45.1930326   8.5194256
  83.9110070  45.4077712   9.2279466  81.0912284  36.1756443   2.2629449
  81.3054253  35.5367358   1.7092803  80.4746183  36.6202267   1.8337310
  81.0317613  36.1466587   2.1179880  82.5016952  49.0975192  -6.2916331
  82.1096743  48.7941907  -7.0093464  82.6570024  49.9344282  -6.4811377
  82.4670541  49.1759028  -6.4259833  83.2551372  37.7845509   3.2012756
  82.4428053  37.4771399   3.2825928  83.7141306  37.3044509   3.7655468
  83.2031756  37.6682001   3.2967350  82.6656626  45.6625181  -6.3510300
  82.3071281  45.8339823  -5.5746268  82.1795337  46.1238386  -6.9082302
  82.5415323  45.7564152  -6.3185031  80.3504879  39.1905580   7.9841458
  80.8204510  39.8147696   8.3709332  80.3966759  38.5222555   8.5434673
  80.4272755  39.1840260   8.1241529  79.5768386  31.8355567   0.5383114
  79.1900139  31.8604599   1.3196644  79.0901324  31.2697246   0.0857631
  79.4480895  31.7551318   0.5871018  83.8261366  46.5529076   4.5956901
  84.4641086  46.0589272   4.2619357  83.1835457  46.4806477   4.0109128
  83.8255592  46.4688085   4.4599256  85.5518366  38.4018222  -0.8377184
  85.1245974  38.3144571  -1.5929084  84.9144419  38.5095998  -0.2522339
  85.3947973  38.4050882  -0.8631742  79.2425528  28.7222553   2.8293374
  79.8718646  29.2582853   2.5514445  79.4111391  28.6299912   3.6806940
  79.3603323  28.7883915   2.9141902  79.0439443  33.5093748   5.1019786
  79.8712872  33.2378897   5.1578400  79.0647289  34.3054589   5.4583604
  79.1692293  33.5873502   5.1634969  83.8815622  47.2448885   1.2362258
  84.6708000  46.8937949   1.3564339  84.0559220  48.0585273   0.9738891
  84.0235904  47.3134742   1.2150126  73.6208933  40.6557610  -1.7109954
  72.7796939  40.5561485  -1.5031060  73.8298941  41.4253091  -1.3595633
  73.5273625  40.7549654  -1.6282639  77.4325598  38.5839010  -2.4612356
  77.1288735  38.0294998  -1.8601948  76.7305018  38.7631220  -2.9484322
  77.2841807  38.5283792  -2.4442650  75.4943949  45.7988730   2.2459742
  75.3864303  45.8090793   3.1121800  75.7039730  46.6243511   2.0564696
  75.5094060  45.9229805   2.3463833  73.5117741  43.0501373  -0.2918321
  72.9205674  43.6910871  -0.3215306  74.2738764  43.4738990  -0.3187021
  73.5366001  43.2077211  -0.3003173  73.9078363  34.2103371   0.3749697
  74.3679845  34.2842300   1.1124821  73.9534470  35.0084625   0.0249518
  73.9828919  34.3397518   0.4322453  75.5561713  34.8770065   4.9421724
  75.1647278  34.2303413   5.3777502  75.7247576  35.4681501   5.5615979
  75.5232623  34.8684333   5.0984430  89.6308162  42.8807142   0.7058958
  89.6891286  43.3293791   1.4518934  88.9974630  43.2905955   0.2689038
  89.5459457  43.0080877   0.7511506  83.2707257  48.5010684  -2.8586296
  83.0726945  48.9901499  -3.5530085  82.6494968  48.7051926  -2.2802163
  83.1494821  48.6027223  -2.8763073  80.3193111  35.8421054  -2.6182133
  79.8453065  35.3162817  -2.1076822  80.6911247  35.2950527  -3.1867271
  80.3043000  35.6837051  -2.6266985  70.6966141  37.8392561   2.7501413
  71.5591754  37.7388270   2.6638743  70.3657924  37.2587270   2.1886985
  70.7751338  37.7384188   2.6546819  86.5829842  40.9023430  -1.2075352
  86.3428064  40.0629845  -1.2032926  87.0621849  40.9823597  -0.4834579
  86.6182025  40.7904830  -1.1000550  88.5835029  37.6824887  -3.2546093
  88.3444799  37.6420722  -4.0925308  88.7468930  38.5296039  -3.1280372
  88.5725332  37.8016972  -3.3592611  85.1881059  42.0674837   2.6758952
  85.9115258  41.6147363   2.4969972  84.9231021  42.3479502   1.8931280
  85.2562332  42.0425805   2.5337668  74.0567927  36.6635010  -0.5888169
  73.4320997  36.6753402  -1.1962216  73.7213522  37.1395185   0.0603072
  73.9153419  36.7353527  -0.5831600  70.7693603  44.7235470   0.8515596
  70.2393527  44.0327909   0.9010570  71.0418696  44.7145656   0.0228304
  70.7318325  44.6202602   0.7363012  80.9699848  42.1658715   0.8253967
  80.3556841  41.6216765   1.1202603  81.4867133  41.6522951   0.3459783
  80.9555511  42.0095124   0.7978196  80.2096145  43.2362985  -1.4401734
  79.7823753  42.6112704  -1.8736299  80.2021090  42.9537907  -0.6142727
  80.1455287  43.1015766  -1.3821907  73.3258673  38.2728158   1.6286700
  73.4852159  37.5171482   2.0338422  73.1451566  38.8219098   2.2827438
  73.3224031  38.2421972   1.7849406  81.2678975  30.4389394   2.1837489
  80.7719537  30.6353068   1.4929056  82.0248038  30.8382062   2.0126291
  81.3065800  30.5267127   2.0557626  78.5381855  34.1131739  -1.2259200
  78.5624342  33.5791852  -1.9146420  78.7893329  33.6049048  -0.5633610
  78.5791774  33.9592643  -1.2294555  77.0012790  42.4063298   6.2566839
  76.1508421  42.5435012   6.3924484  77.1640918  41.6727076   6.7014540
  76.8996654  42.3177399   6.3422438  76.2397541  39.3563068   0.4520443
  75.4089470  39.5236886   0.2455691  76.1849058  38.9799018   1.2369328
  76.1086956  39.3252799   0.5368971  74.0481324  32.8471960   6.0876854
  74.6734027  32.3034093   6.3606286  73.5931804  32.3666878   5.5184644
  74.0729585  32.6961442   6.0438448  87.6216373  41.0301247   1.1789502
  88.2134213  41.6698498   1.2107700  88.0575367  40.3324284   1.4681569
  87.7734804  41.0219598   1.2270335  79.4509763  45.4518620   1.8047396
  78.9434854  46.0054467   2.2488026  79.1536409  45.5126910   0.9866170
  79.3314648  45.5424931   1.7495853  81.6171945  33.8171939   0.6472059
  82.0427016  33.3644466   0.0355585  81.0028938  33.2632010   0.9236846
  81.5900590  33.6685916   0.5977084  82.0617543  49.3681878 -10.2648661
  81.3446853  49.1942740 -10.7301423  82.7124280  49.1334450 -10.7973175
  82.0519393  49.3077670 -10.4119443  84.6465514  38.2446466  -6.5207356
  83.9756704  38.7876168  -6.6494290  85.3405264  38.7141321  -6.7625661
  84.6494382  38.3944737  -6.5751828  78.6952248  50.3843178  -1.2895597
  78.4717902  49.6262007  -0.9211571  78.2062091  50.4141199  -2.0115158
  78.5895697  50.2765403  -1.3418856  84.8093642  34.7002350  -3.6116982
  85.1621252  34.2732073  -2.9371184  83.9508443  34.6153193  -3.4815906
  84.7343086  34.6247090  -3.4921972  82.8076907  37.9637718   0.3367860
  82.7874835  37.7821014   1.1902639  82.8556108  38.8349737   0.3127444
  82.8111548  38.0654257   0.4591155  80.7523237  44.5524910   6.2616336
  80.7119092  43.9074587   5.6761492  81.5646555  44.4961528   6.5741748
  80.8666391  44.4483877   6.2213286  77.3430705  50.6043636  -3.8358513
  76.9291103  49.9417766  -4.2254671  78.0278079  50.7521495  -4.3562819
  77.3829076  50.5284294  -3.9702016  80.7095999  49.7633722  -3.0834896
  80.3112282  49.8735992  -3.8514076  80.0947218  49.9715788  -2.5008336
  80.5594888  49.8107290  -3.1103597  76.4400946  38.1821847   2.8166094
  75.9279849  37.5743030   3.1751125  76.2680442  38.8978439   3.2840070
  76.3390583  38.1985146   2.9382318  71.2866661  36.6259422   5.4668456
  71.1169251  37.2860797   4.9216662  70.8432611  36.8365983   6.1880945
  71.1965994  36.7545404   5.4930085  80.3170016  36.1046092   5.2568350
  80.8741446  35.8759901   4.6246815  79.9931081  36.8651757   4.9803562
  80.3516426  36.1829928   5.1224847  68.1868725  39.5306288   0.7256946
  67.6395445  38.8606933   0.8437814  68.9761103  39.1636136   0.7900413
  68.2220909  39.3771274   0.7525646  78.0353134  39.1913745   6.2220357
  78.7864461  39.5065422   6.5359911  78.2275710  38.9892916   5.3954278
  78.1744548  39.2081127   6.1463752  82.6079276  39.9984813  -2.8819641
  83.1032941  39.2807808  -2.9215621  81.7979051  39.6955611  -2.9965154
  82.5623169  39.8482459  -2.9045915  84.6731095  42.7488500  -0.1942512
  85.0986166  42.2262922  -0.7472087  84.3088014  43.3469338  -0.7153889
  84.6817697  42.7598727  -0.3533502  74.3085174  51.0452718  -1.4345167
  74.6231733  51.8589106  -1.4267385  74.7178588  50.6602937  -0.7663008
  74.4153272  51.1081420  -1.3341075  81.2609694  46.4622765  -3.8641355
  81.7320872  47.1763027  -3.6951370  81.5969873  45.8621515  -3.3281485
  81.3804809  46.4794229  -3.7608979  83.3486679  48.0724078   8.3150717
  83.4583644  47.2832639   8.6707465  83.6777575  47.9830014   7.5125055
  83.4139084  47.9429931   8.2493108  78.1779189  31.2350235   3.0916740
  78.3107095  30.4381229   3.4197716  78.5624342  31.7616638   3.6715016
  78.2535518  31.1950152   3.2260243  81.8983640  46.2540699   2.8986338
  81.3504586  45.6298582   2.6306403  82.3596669  46.4434971   2.1830417
  81.8850850  46.1899749   2.7536769  84.7077505  34.3226053   0.2837530
  84.1240494  34.8235260  -0.1284902  85.0281799  33.8155609  -0.3498146
  84.6690680  34.3217888   0.1296037  75.8367636  31.2309410   1.3394634
  76.3812049  30.8900537   1.9298976  75.8904571  32.0894872   1.4815918
  75.9256755  31.3064670   1.4476507  71.6498195  44.9925826  -1.7866558
  72.2543052  44.9521661  -2.4152738  71.4425507  45.8396978  -1.7562502
  71.7087092  45.1113829  -1.8750442  81.4641967  47.2591772  -0.5704321
  82.2840340  47.1154738  -0.3088026  81.1836044  47.8837970  -0.0287883
  81.5438710  47.3302124  -0.4516381  66.8849477  43.9760444  -1.9167635
  66.7873755  43.1656715  -1.6077578  67.6678347  43.9552237  -2.3021367
  66.9865613  43.8527534  -1.9280772  91.1355302  54.0032274  -2.8508514
  90.2793197  54.1640773  -2.7999397  91.1822956  53.1324338  -2.8303453
  91.0154413  53.8983076  -2.8402448  94.4449018  60.2718800   6.7551942
  95.1515786  59.7770831   6.8838876  94.6336954  60.7127881   6.0254600
  94.5776924  60.2637150   6.6660987  93.9807123  56.0624318  -0.2076863
  94.5263083  56.7409405  -0.1482893  93.9223999  55.9211779  -1.0675281
  94.0523037  56.1416320  -0.3264802  80.2946242  59.5733671  -5.1956176
  80.0596426  58.7401323  -5.3023908  80.4331883  59.8538337  -6.0094975
  80.2801905  59.4917174  -5.3313821  82.5936330  51.7419401  -2.2971869
  81.9741361  51.1512049  -2.4661854  82.4920193  52.3330837  -2.9307545
  82.4874005  51.7423484  -2.4166879  89.6904225  53.4818943  -7.9639406
  90.3884390  53.6607071  -7.4717942  90.0056558  52.9589283  -8.5869016
  89.8399562  53.4312715  -7.9837395  82.3205463  55.2871683  -0.0528300
  82.1964159  55.8734129   0.5821519  82.9723747  54.7931879   0.2483975
  82.3979112  55.3010488   0.0857630  87.3463804  58.4633400  -0.7740789
  87.9912806  57.9705843  -1.0929840  87.5865581  58.6058187   0.0525290
  87.4774389  58.4110842  -0.6991255  89.8849895  61.3088306  -1.1233896
  90.1673138  60.5139712  -1.3447140  90.6136055  61.7868893  -1.1028835
  90.0339459  61.2622903  -1.1530881  87.8631089  48.8511340  -3.8818131
  87.5334419  49.3022483  -4.5514432  87.1876091  48.7727503  -3.3345125
  87.7141525  48.9062475  -3.8994908  81.8563567  64.4519342  -3.9199970
  81.3731145  65.1769831  -3.9440387  82.6686885  64.7495472  -3.8089813
  81.9054314  64.6021695  -3.9072691  87.9277721  63.2451522  -1.3150156
  87.4104662  62.8858937  -1.9188848  88.6252112  62.7213697  -1.3044090
  87.9543302  63.1149210  -1.4019897  91.5841313  63.6946336   4.6466017
  91.6724659  63.5072477   5.4944228  92.0131025  63.0483766   4.2470864
  91.6603415  63.5709344   4.7137769  89.1511773  62.9777496   3.6283679
  88.5882607  62.5650106   4.1523341  89.9132796  62.9030402   4.0476823
  89.1806221  62.9054897   3.7676680  86.0687043  46.9123628  -8.3995183
  86.8233011  47.2801945  -8.6378133  85.8914577  47.2863183  -7.6316004
  86.1541521  47.0221816  -8.3210295  84.7107764  64.9675518  -3.7679690
  85.4128343  64.4527507  -3.7106934  84.6305247  65.2949669  -2.9632815
  84.8031524  64.9389744  -3.6406898  99.3621942  53.0618069  -0.3547644
  98.5250363  53.1320256  -0.1200049  99.3310172  53.0642564  -1.2273342
  99.2340224  53.0728296  -0.4488096  85.7586671  55.2051104   5.3600725
  85.9307174  55.0956999   6.2086006  86.2956028  55.8505510   5.1231917
  85.8631675  55.2843106   5.4505821  84.4244107  49.3193947 -11.7017070
  84.2419681  49.5365828 -12.5276077  85.2869720  49.4332960 -11.6458456
  84.5248697  49.3683845 -11.8162583  84.0358539  61.1581870  -4.2594082
  84.8747439  61.3904802  -4.2120321  84.0670309  60.2886181  -4.3287047
  84.1640257  61.0638816  -4.2629438  84.6611242  61.5782745   0.0419223
  85.2009467  61.4353876   0.7122596  83.9781189  61.9779496   0.4103249
  84.6403396  61.6162416   0.1953645  91.6961372  63.1255355   7.3109801
  92.4801789  63.2386203   7.6765543  91.4957967  62.2996493   7.5068487
  91.7827397  63.0202075   7.3944187  80.0648387  57.7983036   0.1953645
  79.7986803  56.9822152   0.3544635  80.0786952  57.8436191  -0.6750840
  80.0273110  57.6839940   0.0907127  97.0429781  48.1260850  -1.7703922
  97.6855690  48.1958955  -1.1842006  97.2952802  47.4590073  -2.2724380
  97.1751913  48.0387199  -1.7576642  84.8146994  51.3361414   2.8420652
  84.1218791  50.8658394   3.0881384  85.4307321  51.1099718   3.4162360
  84.8031524  51.2328546   2.9629805  91.8531765  65.0365457   0.9576256
  91.0547011  64.7964958   1.2150125  92.3017777  65.0879850   1.7043304
  91.8006377  65.0087849   1.1061181  80.4741801  58.5841815  -2.5234611
  80.2917374  58.5588701  -3.3762319  81.2091470  59.0540753  -2.4845702
  80.5555865  58.6503177  -2.6436693  83.5387553  55.3026818   3.9847498
  84.2627525  55.2879848   4.4712392  83.6403689  56.0122173   3.4869466
  83.6605762  55.4051521   3.9826284  90.9132502  58.7825902   8.8496445
  90.1205483  59.0969414   9.0349064  91.0281429  58.9977371   8.0117229
  90.8127913  58.8609739   8.7534779  91.8416295  58.6846106   3.7881741
  92.4155157  58.0473350   3.9430305  91.7631099  58.6850189   2.9191399
  91.9149530  58.5911218   3.6828152  80.4412711  55.4635316  -2.3735544
  81.0186214  55.3271766  -1.7343299  79.7426773  55.0071100  -2.1189960
  80.4233733  55.3757582  -2.2413255  87.1980014  57.1169371  -4.1597061
  86.9399258  56.2841106  -4.1865762  87.2528496  57.3426984  -5.0004561
  87.1679792  57.0267143  -4.2876924  92.2781064  49.2197822  -4.0592969
  91.5737391  48.7307007  -3.9009049  92.3266038  49.2320296  -4.9304524
  92.1811115  49.1487470  -4.1653629  86.1714726  54.6707134  -3.6732166
  85.5964317  54.8299302  -3.0368206  85.7950402  54.0342543  -4.1363716
  86.0317538  54.6004947  -3.6477608  89.8388014  53.1430483   1.1860212
  89.4502447  52.7184701   0.5312403  89.1742713  53.3912633   1.6937239
  89.6834942  53.1169204   1.1648080  75.9171545  54.3147209  -5.6587726
  76.0031797  53.9379077  -4.8774196  76.5447342  53.9407654  -6.1367768
  76.0228096  54.2032691  -5.6142249  93.6614376  46.8405112  -1.3015804
  94.0424888  46.1583283  -0.9147930  92.8577660  46.5514714  -1.4840139
  93.5990838  46.6972160  -1.2711748  97.1636443  60.0555084   3.7966595
  96.9275080  59.2243149   3.6778655  97.8079672  60.0040691   4.3821439
  97.2231114  59.9252772   3.8652488  81.5047503  63.0838942  -1.6056365
  81.5451649  63.3553793  -2.4336586  82.0642027  63.6080850  -1.1898577
  81.5930849  63.2014697  -1.6664477  87.6206216  49.3459310   8.5646805
  87.3059657  50.1158873   8.3016367  87.2996149  48.7829566   7.9799032
  87.5265135  49.3769579   8.4388155  98.1872864  59.8399533  -0.1405111
  97.8818681  60.5727589   0.2208205  97.4679079  59.4337462  -0.4212325
  98.0360206  59.8881265  -0.1291974  85.1738113  47.7349832  -5.8206999
  84.3060539  47.8072431  -5.7549390  85.4613318  48.5371910  -5.6319024
  85.0877861  47.8643979  -5.7832232  94.2971002  47.8827691   2.5104323
  95.0424594  47.6937501   2.0967748  93.8808307  48.4085929   1.9518179
  94.3455976  47.9329836   2.3668896 101.6733273  55.2536919  -2.5390172
 102.2241195  54.6204988  -2.2993080 101.6577388  55.7852312  -1.8474668
 101.7518469  55.2385868  -2.4011314  88.3255664  59.0875517   2.0069721
  87.8267358  59.7991284   2.0854610  89.1355888  59.4076183   1.9687884
  88.3711771  59.2402365   2.0126290  84.5883781  58.3498470  -3.7467558
  84.2997030  57.7235941  -3.2121831  85.4567129  58.2918757  -3.6802877
  84.6744033  58.2486014  -3.6576603  95.3761679  53.4933253  -3.4285576
  95.0326445  52.7723588  -3.0778326  95.4754722  53.2847104  -4.2707218
  95.3403722  53.3557456  -3.5013896  87.2522722  51.9456561   7.3032019
  86.4422498  52.2514341   7.1921862  87.7297409  52.6662143   7.4184603
  87.2026201  52.0971162   7.3039090  86.1114281  61.1602282  -2.4485077
  85.5895035  61.3002574  -1.7633213  86.4988302  60.4012946  -2.2582960
  86.0917982  61.0687806  -2.3184001  83.1005465  51.2108091  -8.3790123
  82.8130261  50.8409361  -9.1158176  83.7875934  51.6802946  -8.6406418
  83.1594363  51.2255060  -8.5275047  85.9359137  55.0761039  -6.9322718
  86.6581789  55.2402197  -7.3918912  85.4567130  55.7970704  -7.0383378
  85.9722868  55.2059269  -7.0157104  93.8952645  51.4124838  -1.5526033
  93.0563745  51.4386117  -1.7887770  93.9657012  52.0595573  -0.9720687
  93.7821038  51.5120964  -1.5016916  83.5866754  57.4819111   2.1731422
  84.0987851  57.7603365   1.5240182  83.3003096  58.2208405   2.5394235
  83.6201617  57.6321465   2.1321300  80.6733660  51.9889303  -7.5304842
  80.7749797  52.7915465  -7.2023866  81.4689547  51.7876639  -7.8281761
  80.8061566  52.0775202  -7.5269486  87.1050479  49.5745500   2.2332463
  86.9133676  49.5900634   3.0831887  87.9549075  49.7709174   2.2099118
  87.2026201  49.6059851   2.3555758  81.4897392  52.1036481   0.2116280
  81.3482884  51.2520422   0.3360788  81.7737956  52.1465142  -0.6121514
  81.5105238  51.9836232   0.1083904  91.6435985  53.9403572  -5.6439232
  91.3970699  53.8599323  -4.8102443  91.9721108  53.1557040  -5.8376704
  91.6557228  53.8129837  -5.5491709  95.5384033  60.6486931  -1.8552451
  95.3998393  61.3467977  -1.3503708  94.7584031  60.4935587  -2.2116269
  95.4027260  60.7287098  -1.8326177  93.8762118  56.9483306   4.3969931
  93.8710157  56.0763123   4.4012357  94.5823112  57.1471476   3.9239387
  93.9807122  56.8487181   4.3276966  87.6033012  56.6760290   3.7683751
  87.7476388  57.2561498   3.1326861  87.9508660  57.0536587   4.4733606
  87.6760473  56.8180994   3.7782746  89.7752929  55.8750459   1.5508883
  89.0276243  56.0681473   1.1457161  89.9294454  55.0495678   1.3133004
  89.6875357  55.7815570   1.4554289  86.6760767  64.8663062   0.6344778
  86.8250331  64.3065978  -0.0181818  87.4560769  64.9455064   1.0177297
  86.8134860  64.7948628   0.5941727  89.2014067  65.0377705   1.9129269
  89.1257739  64.3686516   2.4680057  89.1303927  65.7395493   2.4269935
  89.1794674  65.0422612   2.0706117  90.0154706  49.7701009   2.4404286
  90.4727320  50.5024984   2.5677079  90.0911035  49.3467475   3.1991542
  90.0945676  49.8158247   2.5705363  82.2587697  50.0166829   3.5293730
  81.7229887  49.4047187   3.8454497  82.3205462  50.5914965   4.1827397
  82.1883330  50.0113757   3.6729157  87.8937084  51.7603113  -0.7153889
  87.1033159  51.5794573  -0.3936554  88.2897707  50.9830066  -0.7323595
  87.8353960  51.6190574  -0.6701341  93.2780770  59.3945543  -2.9894444
  92.6025772  59.1630776  -2.4881057  93.2873147  58.7866726  -3.6152339
  93.1799275  59.2704469  -3.0078291  90.4074914  54.2363372   3.7669609
  90.3434056  55.0973329   3.6389746  90.5472102  53.9195366   2.9665161
  90.4190384  54.3163539   3.6297822  89.0894008  56.9295512  -2.0914188
  88.6656257  57.1300011  -2.8275169  88.9138863  56.0824360  -1.9789888
  89.0004889  56.8344293  -2.1840498  88.5905702  68.4446025   0.3707270
  89.0801632  67.7456814   0.1882934  88.0189934  68.1469895   0.9583327
  88.5790232  68.2972248   0.4308310  84.3776453  57.4247563  -6.6586215
  84.5341072  57.3594366  -5.8030223  84.7177046  58.1996116  -6.8707536
  84.4509688  57.5296761  -6.5631621  94.7872705  61.0108094   9.3234060
  95.6007571  60.7393243   9.4839193  94.6267672  60.7115634   8.5194256
  94.8842654  60.9263020   9.2279466  92.0644867  51.6941751   2.2629449
  92.2786837  51.0552665   1.7092803  91.4478766  52.1387575   1.8337310
  92.0050196  51.6651895   2.1179880  80.9510715  54.6082514  -6.3425448
  81.3309680  55.0267059  -7.0065181  80.3766080  55.1895969  -6.0356605
  80.9222040  54.7560372  -6.3948707  94.2283955  53.3030816   3.2012756
  93.4160637  52.9956707   3.2825928  94.6873890  52.8229817   3.7655468
  94.1764340  53.1867309   3.2967350  91.4559596  44.8041687  -2.7483209
  90.5853154  44.7780408  -2.7949899  91.7099937  44.6318879  -3.5657363
  91.3653156  44.7751831  -2.8763072  91.3237463  54.7090888   7.9841458
  91.7937094  55.3333004   8.3709332  91.3699343  54.0407863   8.5434673
  91.4005339  54.7025568   8.1241529  88.4808736  46.8147915  -1.2909738
  87.9647225  46.1228107  -1.1658159  87.9202665  47.4818692  -1.3447140
  88.3215250  46.8111173  -1.2803672  90.5500970  47.3540875   0.5383114
  90.1632723  47.3789907   1.3196644  90.0633907  46.7882554   0.0857631
  90.4213479  47.2736626   0.5871018  94.7993949  62.0714384   4.5956901
  95.4373670  61.5774580   4.2619357  94.1568041  61.9991785   4.0109128
  94.7988176  61.9873393   4.4599256  96.5250949  53.9203530  -0.8377184
  96.0978557  53.8329879  -1.5929084  95.8877002  54.0281306  -0.2522339
  96.3680557  53.9236190  -0.8631742  90.2158112  44.2407861   2.8293374
  90.8451230  44.7768161   2.5514445  90.3843974  44.1485220   3.6806940
  90.3335906  44.3069223   2.9141902  90.0172026  49.0279056   5.1019786
  90.8445456  48.7564204   5.1578400  90.0379872  49.8239897   5.4583604
  90.1424877  49.1058810   5.1634969  94.8548206  62.7634193   1.2362258
  95.6440584  62.4123257   1.3564339  95.0291804  63.5770581   0.9738891
  94.9968488  62.8320050   1.2150126  84.5941516  56.1742918  -1.7109954
  83.7529523  56.0746793  -1.5031060  84.8031524  56.9438399  -1.3595633
  84.5006209  56.2734962  -1.6282639  82.0717083  53.7962455  -3.8825203
  81.6773781  53.8705467  -4.6575093  81.5157200  54.1820402  -3.3316841
  81.9319896  53.8644230  -3.9157543  93.7082030  46.7743749  -4.2021324
  93.9131623  46.7066057  -3.3564327  93.3808454  47.5802571  -4.2700147
  93.6897278  46.8829690  -4.0861669  88.4058181  54.1024318  -2.4612356
  88.1021319  53.5480306  -1.8601948  87.7037602  54.2816528  -2.9484322
  88.2574391  54.0469100  -2.4442650  87.4624278  51.4124837  -7.8967654
  87.7384013  50.6943750  -8.3090087  88.0622948  52.0109757  -8.1046548
  87.5917543  51.3945208  -7.9886893  86.4676532  61.3174038   2.2459742
  86.3596887  61.3276100   3.1121800  86.6772314  62.1428819   2.0564696
  86.4826643  61.4415113   2.3463833  84.4850324  58.5686681  -0.2918321
  83.8938257  59.2096179  -0.3215306  85.2471348  58.9924298  -0.3187021
  84.5098585  58.7262519  -0.3003173  84.8810947  49.7288678   0.3749697
  85.3412429  49.8027608   1.1124821  84.9267054  50.5269932   0.0249518
  84.9561502  49.8582826   0.4322453  86.5294297  50.3955373   4.9421724
  86.1379862  49.7488720   5.3777502  86.6980159  50.9866809   5.5615979
  86.4965207  50.3869641   5.0984430 100.6040746  58.3992450   0.7058958
 100.6623869  58.8479099   1.4518934  99.9707213  58.8091263   0.2689038
 100.5192041  58.5266185   0.7511506  90.2227394  47.5831148  -3.4844191
  89.3763439  47.7553956  -3.6102841  90.2198527  46.7780492  -3.1478362
  90.0974544  47.4892177  -3.4533064  91.2925695  51.3606362  -2.6182133
  90.8185649  50.8348124  -2.1076822  91.6643830  50.8135835  -3.1867271
  91.2775584  51.2022359  -2.6266985  81.6698725  53.3577869   2.7501413
  82.5324338  53.2573578   2.6638743  81.3390508  52.7772578   2.1886985
  81.7483921  53.2569496   2.6546819  97.5562425  56.4208738  -1.2075352
  97.3160648  55.5815153  -1.2032926  98.0354432  56.5008905  -0.4834579
  97.5914609  56.3090138  -1.1000550  99.5567612  53.2010195  -3.2546093
  99.3177382  53.1606029  -4.0925308  99.7201513  54.0481347  -3.1280372
  99.5457916  53.3202280  -3.3592611  96.1613642  57.5860145   2.6758952
  96.8847841  57.1332671   2.4969972  95.8963605  57.8664810   1.8931280
  96.2294916  57.5611113   2.5337668  85.0300511  52.1820318  -0.5888169
  84.4053581  52.1938710  -1.1962216  84.6946106  52.6580493   0.0603072
  84.8886003  52.2538835  -0.5831600  81.7426186  60.2420778   0.8515596
  81.2126111  59.5513217   0.9010570  82.0151280  60.2330964   0.0228304
  81.7050909  60.1387910   0.7363012  91.9432432  57.6844023   0.8253967
  91.3289425  57.1402073   1.1202603  92.4599717  57.1708259   0.3459783
  91.9288094  57.5280432   0.7978196  91.1828729  58.7548293  -1.4401734
  90.7556337  58.1298012  -1.8736299  91.1753673  58.4723215  -0.6142727
  91.1187870  58.6201074  -1.3821907  84.2991256  53.7913466   1.6286700
  84.4584743  53.0356790   2.0338422  84.1184150  54.3404405   2.2827438
  84.2956615  53.7607280   1.7849406  92.2411559  45.9574701   2.1837489
  91.7452120  46.1538376   1.4929056  92.9980621  46.3567370   2.0126291
  92.2798384  46.0452435   2.0557626  89.5114439  49.6317047  -1.2259200
  89.5356926  49.0977160  -1.9146420  89.7625912  49.1234356  -0.5633610
  89.5524357  49.4777951  -1.2294555  77.0222028  56.9148542  -1.7916056
  76.9165478  56.8695387  -2.6563972  76.2722248  57.2602323  -1.5101771
  76.8957631  56.9589451  -1.8778726  85.7915761  48.3587866  -1.8453456
  85.8314133  48.8597072  -1.1318748  84.9665426  48.4498259  -2.1147533
  85.6755287  48.4469682  -1.7802918  87.9745374  57.9248606   6.2566839
  87.1241004  58.0620320   6.3924484  88.1373502  57.1912384   6.7014540
  87.8729237  57.8362707   6.3422438  87.2130124  54.8748375   0.4520443
  86.3822054  55.0422193   0.2455691  87.1581641  54.4984326   1.2369328
  87.0819539  54.8438107   0.5368971  85.0213908  48.3657268   6.0876854
  85.6466611  47.8219401   6.3606286  84.5664387  47.8852186   5.5184644
  85.0462168  48.2146750   6.0438448  85.5866168  53.1503967  -9.0189439
  85.7269129  53.6476431  -8.3160798  86.0848701  52.4490261  -8.8775225
  85.6807249  53.1205946  -8.8937860  98.5948956  56.5486555   1.1789502
  99.1866797  57.1883806   1.2107700  99.0307951  55.8509592   1.4681569
  98.7467387  56.5404906   1.2270335  90.4242346  60.9703928   1.8047396
  89.9167437  61.5239775   2.2488026  90.1268992  61.0312218   0.9866170
  90.3047231  61.0610239   1.7495853  92.5904528  49.3357247   0.6472059
  93.0159600  48.8829774   0.0355585  91.9761521  48.7817318   0.9236846
  92.5633174  49.1871224   0.5977084  82.1219378  56.2138919  -8.4207316
  82.6311608  56.8103426  -8.0396011  82.5953651  55.9464892  -9.1030897
  82.2662754  56.2624734  -8.4652794  91.0298751  45.8072347  -5.9437364
  90.3867069  45.6569994  -5.3752226  90.6898158  45.5614692  -6.7088260
  90.8843829  45.7484470  -5.9734349  95.7826225  50.2187658  -3.6116982
  96.1353835  49.7917381  -2.9371184  94.9241027  50.1338501  -3.4815906
  95.7075670  50.1432398  -3.4921972  84.4809910  52.8495177  -5.5534136
  83.7621899  53.2659310  -5.2861272  84.8522272  53.4149416  -6.1042498
  84.4301842  52.9944459  -5.5951329  93.7809491  53.4823026   0.3367860
  93.7607418  53.3006321   1.1902639  93.8288692  54.3535045   0.3127444
  93.7844132  53.5839565   0.4591155  91.7255821  60.0710218   6.2616336
  91.6851676  59.4259895   5.6761492  92.5379139  60.0146836   6.5741748
  91.8398974  59.9669185   6.2213286  93.1314301  51.8472682  -6.7859006
  92.9027994  51.8705383  -7.6280648  93.3912377  51.0230149  -6.6663996
  93.1360489  51.7288762  -6.8933808  87.4133530  53.7007155   2.8166094
  86.9012433  53.0928338   3.1751125  87.2413026  54.4163747   3.2840070
  87.3123167  53.7170454   2.9382318  82.2599244  52.1444730   5.4668456
  82.0901834  52.8046105   4.9216662  81.8165194  52.3551291   6.1880945
  82.1698578  52.2730712   5.4930085  86.1859064  50.3849228  -5.4904810
  86.6616430  50.7466308  -6.1254629  85.6847663  51.0405696  -5.2104668
  86.1824423  50.5343417  -5.5428070  91.2902600  51.6231399   5.2568350
  91.8474030  51.3945209   4.6246815  90.9663665  52.3837065   4.9803562
  91.3249010  51.7015236   5.1224847  79.1601309  55.0491596   0.7256946
  78.6128028  54.3792241   0.8437814  79.9493687  54.6821444   0.7900413
  79.1953492  54.8956582   0.7525646  89.0085717  54.7099053   6.2220357
  89.7597044  55.0250730   6.5359911  89.2008294  54.5078224   5.3954278
  89.1477131  54.7266435   6.1463752  77.9188278  54.2612403  -2.1197031
  77.7410039  53.8089012  -1.3942116  77.6307300  55.0638565  -1.9358554
  77.8501231  54.3134961  -1.9853528  93.5811859  55.5170121  -2.8819641
  94.0765525  54.7993116  -2.9215621  92.7711635  55.2140919  -2.9965154
  93.5355753  55.3667767  -2.9045915  79.6560748  56.7940127  -5.0075272
  78.7906268  56.7825818  -5.1192501  79.7559564  56.6070350  -4.1604133
  79.5434915  56.7646188  -4.8986328  95.6463678  58.2673808  -0.1942512
  96.0718750  57.7448230  -0.7472087  95.2820598  58.8654646  -0.7153889
  95.6550281  58.2784035  -0.3533502  85.2817758  66.5638026  -1.4345167
  85.5964317  67.3774414  -1.4267385  85.6911171  66.1788245  -0.7663008
  85.3885856  66.6266728  -1.3341075  94.3219262  63.5909386   8.3150717
  94.4316228  62.8017947   8.6707465  94.6510159  63.5015322   7.5125055
  94.3871668  63.4615239   8.2493108  89.1511773  46.7535543   3.0916740
  89.2839678  45.9566537   3.4197716  89.5356925  47.2801946   3.6715016
  89.2268101  46.7135460   3.2260243  92.8716224  61.7726007   2.8986338
  92.3237170  61.1483890   2.6306403  93.3329253  61.9620279   2.1830417
  92.8583433  61.7085057   2.7536769  92.2244128  43.6765869  -0.3102167
  91.4190091  43.5663599   0.0065672  92.0950863  43.7778325  -1.1672301
  92.0864261  43.6749539  -0.3894126  95.6810088  49.8411361   0.2837530
  95.0973077  50.3420568  -0.1284902  96.0014382  49.3340917  -0.3498146
  95.6423264  49.8403196   0.1296037  88.2204887  48.7551956  -9.4403795
  89.0420582  48.9250269  -9.6822100  87.7574538  48.9099217 -10.1637497
  88.2736050  48.8033689  -9.5832151  86.8100219  46.7494718   1.3394634
  87.3544632  46.4085845   1.9298976  86.8637155  47.6080180   1.4815918
  86.8989339  46.8249978   1.4476507  82.6230778  60.5111134  -1.7866558
  83.2275635  60.4706968  -2.4152738  82.4158091  61.3582286  -1.7562502
  82.6819675  60.6299137  -1.8750442  92.4374550  62.7777079  -0.5704321
  93.2572924  62.6340045  -0.3088026  92.1568628  63.4023278  -0.0287883
  92.5171294  62.8487431  -0.4516381  77.8582060  59.4945752  -1.9167635
  77.7606338  58.6842023  -1.6077578  78.6410930  59.4737545  -2.3021367
  77.9598197  59.3712842  -1.9280772  96.7319254  70.7236412   5.3600725
  96.9039758  70.6142307   6.2086006  97.2688612  71.3690818   5.1231917
  96.8364258  70.8028414   5.4505821  95.7879577  66.8546722   2.8420652
  95.0951374  66.3843701   3.0881384  96.4039905  66.6285026   3.4162360
  95.7764107  66.7513854   2.9629805  98.5938800  64.8644618   8.5646805
  98.2792241  65.6344181   8.3016367  98.2728733  64.3014874   7.9799032
  98.4997719  64.8954887   8.4388155  98.2255305  67.4641869   7.3032019
  97.4155081  67.7699649   7.1921862  98.7029992  68.1847451   7.4184603
  98.1758784  67.6156470   7.3039090  98.0783063  65.0930808   2.2332463
  97.8866260  65.1085942   3.0831887  98.9281659  65.2894482   2.2099118
  98.1758785  65.1245159   2.3555758  93.2320281  65.5352137   3.5293730
  92.6962470  64.9232495   3.8454497  93.2938046  66.1100273   4.1827397
  93.1615914  65.5299065   3.6729157 102.2970046  70.2276196   7.9841458
 102.7669677  70.8518312   8.3709332 102.3431926  69.5593171   8.5434673
 102.3737922  70.2210876   8.1241529 101.1890695  59.7593169   2.8293374
 101.8183813  60.2953469   2.5514445 101.3576558  59.6670528   3.6806940
 101.3068490  59.8254531   2.9141902 100.9904610  64.5464364   5.1019786
 101.8178039  64.2749512   5.1578400 101.0112456  65.3425205   5.4583604
 101.1157460  64.6244118   5.1634969  97.5026880  65.9140681   4.9421724
  97.1112445  65.2674028   5.3777502  97.6712743  66.5052117   5.5615979
  97.4697791  65.9054949   5.0984430  92.6431308  68.8763177   2.7501413
  93.5056921  68.7758886   2.6638743  92.3123091  68.2957886   2.1886985
  92.7216505  68.7754804   2.6546819  95.9946491  63.8842576   6.0876854
  96.6199195  63.3404709   6.3606286  95.5396971  63.4037494   5.5184644
  96.0194752  63.7332058   6.0438448  93.2331828  67.6630038   5.4668456
  93.0634418  68.3231413   4.9216662  92.7897778  67.8736599   6.1880945
  93.1431161  67.7916020   5.4930085 102.2635183  67.1416707   5.2568350
 102.8206614  66.9130517   4.6246815 101.9396248  67.9022373   4.9803562
 102.2981594  67.2200544   5.1224847  99.9818301  70.2284361   6.2220357
 100.7329628  70.5436038   6.5359911 100.1740877  70.0263532   5.3954278
 100.1209715  70.2451742   6.1463752 100.1244356  62.2720851   3.0916740
 100.2572262  61.4751845   3.4197716 100.5089509  62.7987254   3.6715016
 100.2000685  62.2320768   3.2260243  97.7832803  62.2680026   1.3394634
  98.3277216  61.9271153   1.9298976  97.8369739  63.1265488   1.4815918
  97.8721922  62.3435286   1.4476507   1.3922955  99.9042644  70.5163635
   1.3616959 100.7587281  70.6881904   1.9904303  99.6037936  71.0749779
   1.4760112  99.9859140  70.6238437   3.3235321 105.4033689  73.9727014
   2.4933024 105.6144332  74.1360431   3.2744573 104.5770743  73.6969298
   3.1942056 105.3123295  73.9564380   2.8189279  98.0504089  77.7677436
   1.9817700  98.1206276  78.0025030   2.7877510  98.0528584  76.8951738
   2.6907561  98.0614316  77.6736984   3.7143982 102.7913963  73.0011367
   4.3760416 102.2304632  72.9007276   3.0735394 102.2965994  73.3264058
   3.7172850 102.6350372  73.0343708   1.8299270 102.6481011  70.5792960
   2.1607487 103.1808652  69.9733055   2.4032358 102.7019899  71.2354911
   1.9632949 102.7350580  70.5870742   2.9378621  97.8891508  72.0833122
   2.6815186  97.0771450  71.8931004   3.7807935  97.8969075  71.8563309
   3.0244646  97.7703506  72.0217939   1.6440201 104.8285553  77.9819969
   1.3386018 105.5613610  78.3433284   0.9246417 104.4223483  77.7012755
   1.4927543 104.8767286  77.9933106   7.3441993 101.4678554  77.3088313
   7.2766493 101.4874513  76.4390899   7.3297656 102.3108881  77.5343983
   7.3320750 101.5952288  77.2140790   5.1300610 100.2422940  75.5834907
   5.6808532  99.6091009  75.8231999   5.1144726 100.7738333  76.2750412
   5.2085807 100.2271888  75.7213766   1.2277506 101.6078845  73.8560288
   1.1411480 101.7634271  74.7095067   0.7727986 102.2516921  73.4819693
   1.1480763 101.7254600  73.9267395   4.0608083 103.3878471  78.8284037
   4.1191207 103.8365120  79.5744014   3.4274551 103.7977284  78.3914117
   3.9759378 103.5152206  78.8736585   1.0129763 101.4094759  76.9149728
   0.7727986 100.5701174  76.9192154   1.4921770 101.4894925  77.6390501
   1.0481946 101.2976158  77.0224530   3.0134950  98.1896216  74.8678987
   2.7744720  98.1492050  74.0299771   3.1768851  99.0367368  74.9944708
   3.0025253  98.3088301  74.7632469   2.0516294 101.5372576  79.3014581
   2.6434134 102.1769827  79.3332780   2.4875288 100.8395613  79.5906648
   2.2034725 101.5290926  79.3495414   2.8737763 104.8457017  68.4233274
   3.2571368 105.5948373  68.6531371   2.0781876 105.0922836  68.1645263
   2.8131545 104.9926711  68.4190848   9.5007418 105.3468191  72.4856559
   9.1860859 106.0371670  72.9176982   8.9834359 105.2912974  71.7842060
   9.3771888 105.4403080  72.4453508   4.5343748 106.8291686  69.4557033
   5.2629908 106.6507641  69.0095189   4.6238641 107.6709766  69.6664211
   4.6550410 106.9275565  69.4210551  11.4729702 108.6332179  76.3521158
  12.1155611 108.7030284  76.9383073  11.7252723 107.9661402  75.8500700
  11.6051834 108.5458528  76.3648437   8.0914297 107.3476440  76.8209276
   8.4724809 106.6654611  77.2077150   7.2877581 107.0586042  76.6384940
   8.0290759 107.2043489  76.8513332   8.7270923 108.3899019  80.6329402
   9.4724515 108.2008830  80.2192828   8.3108228 108.9157257  80.0743259
   8.7755897 108.4401165  80.4893976   6.7721844 108.8181543  71.3026662
   7.4748197 108.6189292  70.8246621   6.5066033 108.0457486  71.6095506
   6.8368476 108.6744509  71.2772104   8.9181953 103.4562213  74.4323209
   9.0365521 103.9138676  73.6990512   8.7444129 102.6507474  74.1459427
   8.9101124 103.4055985  74.2824143   5.8859517 105.3113015  75.3741871
   5.0153075 105.2851737  75.3275180   6.1399858 105.1390208  74.5567717
   5.7953077 105.2823159  75.2462008   2.9108657 107.3219244  76.8315341
   2.3947146 106.6299435  76.9566920   2.3502586 107.9890021  76.7777940
   2.7515171 107.3182502  76.8421407   4.9800891 107.8612204  78.6608194
   4.5932644 107.8861235  79.4421724   4.4933828 107.2953883  78.2082710
   4.8513400 107.7807955  78.7096098   4.6458033 104.7479189  80.9518454
   5.2751151 105.2839489  80.6739524   4.8143895 104.6556548  81.8032019
   4.7635827 104.8140552  81.0366982   8.1381951 107.2815078  73.9203756
   8.3431544 107.2137386  74.7660753   7.8108375 108.0873899  73.8524933
   8.1197199 107.3901018  74.0363411  11.3915639 107.8346842  73.4006521
  10.7789952 108.3217244  73.7860253  11.4879814 107.1590333  73.9444172
  11.3153536 107.8065151  73.5385379   4.6527315 108.0902477  74.6380889
   3.8063360 108.2625284  74.5122239   4.6498448 107.2851820  74.9746717
   4.5274465 107.9963505  74.6692016   6.6711480 106.4646030  80.3062569
   6.1752041 106.6609704  79.6154136   7.4280542 106.8638698  80.1351371
   6.7098305 106.5523764  80.1782706   5.4598672 106.3143676  72.1787715
   4.8166990 106.1641322  72.7472854   5.1198079 106.0686021  71.4136820
   5.3143750 106.2555798  72.1490731  11.6450206 105.8477398  75.4392410
  11.1381071 105.1406538  75.3713587  12.4417640 105.5170587  75.5693486
  11.6877445 105.6950549  75.4491405   3.5811694 107.2606872  81.2141820
   3.7139599 106.4637865  81.5422795   3.9656846 107.7873275  81.7940095
   3.6568022 107.2206788  81.3485323   6.6544049 104.1837198  77.8122913
   5.8490012 104.0734927  78.1290751   6.5250784 104.2849654  76.9552779
   6.5164182 104.1820868  77.7330953   1.0873778  76.8420775  57.4503682
   1.0567783  77.6965412  57.6221951   1.6855127  76.5416068  58.0089825
   1.1710936  76.9237272  57.5578484   3.0186145  82.3411820  60.9067061
   2.1883848  82.5522464  61.0700478   2.9695397  81.5148875  60.6309345
   2.8892880  82.2501426  60.8904427   2.5140103  74.9882221  64.7017482
   1.6768524  75.0584408  64.9365077   2.4828334  74.9906715  63.8291785
   2.3858385  74.9992448  64.6077030   3.4094806  79.7292094  59.9351414
   4.0711240  79.1682763  59.8347323   2.7686218  79.2344125  60.2604105
   3.4123674  79.5728503  59.9683754   1.5250093  79.5859143  57.5133007
   1.8558311  80.1186783  56.9073102   2.0983182  79.6398030  58.1694958
   1.6583773  79.6728711  57.5210788   2.6329445  74.8269639  59.0173168
   2.3766010  74.0149581  58.8271051   3.4758759  74.8347207  58.7903356
   2.7195470  74.7081637  58.9557985   1.3391025  81.7663684  64.9160015
   1.0336842  82.4991741  65.2773331   0.6197241  81.3601614  64.6352802
   1.1878367  81.8145417  64.9273153   7.0392817  78.4056685  64.2428360
   6.9717317  78.4252644  63.3730946   7.0248479  79.2487012  64.4684030
   7.0271574  78.5330420  64.1480837   4.8251434  77.1801071  62.5174954
   5.3759356  76.5469140  62.7572046   4.8095550  77.7116464  63.2090458
   4.9036631  77.1650019  62.6553812   3.7558907  80.3256602  65.7624084
   3.8142031  80.7743251  66.5084060   3.1225375  80.7355415  65.3254164
   3.6710202  80.4530337  65.8076632   2.7085774  75.1274347  61.8019033
   2.4695544  75.0870181  60.9639818   2.8719675  75.9745499  61.9284755
   2.6976077  75.2466432  61.6972515   1.7467118  78.4750707  66.2354628
   2.3384958  79.1147958  66.2672826   2.1826112  77.7773744  66.5246695
   1.8985549  78.4669058  66.2835461   2.5688587  81.7835148  55.3573321
   2.9522192  82.5326504  55.5871418   1.7732700  82.0300968  55.0985310
   2.5082369  81.9304842  55.3530894  12.0606362  92.3606083  57.4503682
  12.0300366  93.2150720  57.6221951  12.6587711  92.0601376  58.0089825
  12.1443520  92.4422579  57.5578484   5.2606047  91.4481734  62.2056612
   4.4043942  91.6090232  62.2565729   5.3073701  90.5773798  62.2261673
   5.1405158  91.3432536  62.2162678   8.5699763  97.7168260  71.8117068
   9.2766531  97.2220290  71.9404003   8.7587699  98.1577341  71.0819726
   8.7027669  97.7086610  71.7226114   5.0972146 101.4069821  53.3979391
   4.7623515 102.0846743  52.9623613   5.6099017 101.0175133  52.8096263
   5.1237728 101.4494400  53.2466182   4.6376438 103.3584090  59.3390503
   5.0215817 103.9270989  58.7995278   4.5735579 102.6333600  58.8596319
   4.6849865 103.3359553  59.1884365   8.1057868  93.5073778  64.8488264
   8.6513828  94.1858864  64.9082234   8.0474744  93.3661239  63.9889845
   8.1773782  93.5865780  64.7300324   1.2231943 100.9962844  60.2356616
   1.3242306 100.1863198  60.5453744   0.6273688 100.9019790  59.6056295
   1.1504481 100.8627872  60.1882855   9.8822937  94.9358385  55.7221992
   9.7662462  95.6866071  56.1514130  10.6778823  94.6782338  55.9718079
   9.9827526  95.0093232  55.8226083   1.0632682 105.9140433  61.6371472
   1.7070138 106.3553597  62.0267631   1.3888938 105.1093859  61.5501731
   1.2064511 105.8605628  61.6816950   1.7653262  98.9252408  57.0091334
   2.0869103  99.4657615  56.4052642   2.4125359  98.3549179  57.1413624
   1.9079317  98.9211583  56.9398369   3.8154970  90.9268403  57.0925721
   4.5135135  91.1056530  57.5847184   4.1307303  90.4038742  56.4696110
   3.9650307  90.8762175  57.0727731   4.0042905  97.3138848  57.0805512
   4.4436541  96.7055948  57.5260285   3.8547568  96.9346221  56.3090977
   4.0464371  97.1677319  57.0324680   1.4714549  95.9082860  64.2824338
   2.1163551  95.4155303  63.9635286   1.7116326  96.0507646  65.1090416
   1.6025134  95.8560302  64.3573871   4.0100640  98.7537766  63.9331230
   4.2923883  97.9589171  63.7117986   4.7386800  99.2318353  63.9536291
   4.1590204  98.7072363  63.9034246   1.9881834  86.2960800  61.1746995
   1.6585164  86.7471943  60.5050694   1.3126836  86.2176963  61.7220002
   1.8392270  86.3511935  61.1570219   7.6052242  95.6666029  54.0336282
   7.5203537  96.5226996  54.1785850   8.0936625  95.3910353  54.7018441
   7.6641139  95.7523351  54.1538363   9.1958241  82.2846322  59.4196606
   8.8811682  82.9749801  59.8517028   8.6785183  82.2291105  58.7182107
   9.0722712  82.3781211  59.3793555   8.5370675  92.2850823  55.5334017
   8.0082147  92.5010457  56.1931323   9.0595695  92.9786962  55.4534986
   8.5359128  92.4193960  55.6189616  13.9918728  97.8597128  60.9067061
  13.1616431  98.0707772  61.0700478  13.9427980  97.0334182  60.6309345
  13.8625464  97.7686734  60.8904427   2.0528466 100.6900982  63.7414971
   1.5355407 100.3308397  63.1376279   2.7502857 100.1663156  63.7521037
   2.0794047 100.5598670  63.6545229   5.7092058 101.1395796  69.7031144
   5.7975404 100.9521936  70.5509354   6.1381770 100.4933226  69.3035990
   5.7854160 101.0158804  69.7702895   3.2762517 100.4226956  68.6848806
   2.7133352 100.0099566  69.2088467   4.0383541 100.3479862  69.1041949
   3.3056966 100.3504357  68.8241806   4.8847498  92.4279692  52.8110405
   5.1243501  92.6357676  51.9985748   5.2063338  91.6237201  52.9199350
   4.9684655  92.3393793  52.7070958  13.4872686  90.5067529  64.7017482
  12.6501108  90.5769716  64.9365077  13.4560917  90.5092023  63.8291785
  13.3590969  90.5177756  64.6077030   4.2294572  83.7669818  56.3897080
   4.9580732  83.5885773  55.9435236   4.3189465  84.6087897  56.6004258
   4.3501234  83.8653696  56.3550598   8.2102872  94.7023205  60.2929374
   8.9660387  95.1354719  60.3318283   8.3165197  94.0527975  60.8664010
   8.3373043  94.6700689  60.3827400  11.2483043  98.5296482  61.0431777
  10.8118275  98.5333225  61.7990748  10.9145959  99.2101981  60.6111354
  11.1345663  98.6308938  61.0912609   5.8212117 100.5704815  72.3674927
   6.6052534 100.6835663  72.7330669   5.6208712  99.7445952  72.5633613
   5.9078142 100.4651535  72.4509313  11.1680526  85.5710310  63.2861205
  11.8106435  85.6408415  63.8723120  11.4203547  84.9039533  62.7840747
  11.3002658  85.4836659  63.2988484   5.9782510 102.4814917  66.0141383
   5.1797756 102.2414417  66.2715251   6.4268522 102.5329310  66.7608430
   5.9257122 102.4537308  66.1626307  14.3827390  95.2477402  59.9351414
  15.0443824  94.6868071  59.8347323  13.7418802  94.7529433  60.2604105
  14.3856257  95.0913811  59.9683754   5.2704197  98.5447534  52.2432337
   5.6855346  98.2132557  51.5516833   4.4396127  98.3116436  52.1152474
   5.2092206  98.4618790  52.1223185  10.6692220  96.2642785  59.6763403
  10.9047809  96.4087983  58.8490254  10.8181784  97.0285193  60.0694917
  10.7258024  96.3981839  59.6127007  12.4982677  95.1044450  57.5133007
  12.8290894  95.6372091  56.9073102  13.0715765  95.1583338  58.1694958
  12.6316356  95.1914019  57.5210788   5.0383247  96.2275362  73.9061571
   4.2456228  96.5418874  74.0914191   5.1532174  96.4426830  73.0682356
   4.9378658  96.3059199  73.8099906   7.7114566  92.9509353  58.1956587
   7.8061421  93.6898647  58.6496212   7.0873410  92.5226829  58.6291151
   7.6323596  92.9970674  58.3264734   5.9667040  96.1295566  68.8446868
   6.5405902  95.4922810  68.9995432   5.8881844  96.1299648  67.9756525
   6.0400275  96.0360677  68.7393279   7.9637587  94.7958093  51.4293539
   7.8817750  94.8660280  52.2948526   8.6017308  95.3587837  51.2377279
   8.0457425  94.8897064  51.5283488   1.3230759  94.5618831  60.8968065
   1.0650003  93.7290566  60.8699365   1.3779241  94.7876444  60.0560566
   1.2930537  94.4716602  60.7688202   6.4031809  86.6647282  60.9972158
   5.6988136  86.1756467  61.1556077   6.4516783  86.6769756  60.1260602
   6.3061860  86.5936930  60.8911498   3.9638759  90.5879943  66.2425338
   3.5753192  90.1634160  65.5877530   3.2993458  90.8362092  66.7502365
   3.8085687  90.5618664  66.2213206  13.6062029  90.3454947  59.0173168
  13.3498593  89.5334889  58.8271051  14.4491343  90.3532515  58.7903356
  13.6928054  90.2266945  58.9557985   7.7865121  84.2854571  63.7549323
   8.1675633  83.6032743  64.1417197   6.9828405  83.9964174  63.5724987
   7.7241583  84.1421620  63.7853378   5.0677698  94.8178547  54.4402145
   5.8818337  95.1093440  54.3284917   5.0036839  94.1638410  53.8660438
   5.1780437  94.7643742  54.3390983  11.2887188  97.5004543  68.8531721
  11.0525825  96.6692608  68.7343782  11.9330417  97.4490151  69.4386565
  11.3481859  97.3702231  68.9217615   0.9385606  98.2900065  59.5674457
   1.5759553  98.0511812  60.1126251   1.3640678  98.4937224  58.8327618
   1.0961772  98.2851075  59.5391615   1.5788421  93.5102355  53.9049347
   1.9633574  93.2910061  54.6565892   1.3300041  94.3365300  54.0350423
   1.5990494  93.6000501  54.0350423   1.7456961  86.7908770  73.6211931
   1.4310402  87.5608332  73.3581494   1.4246894  86.2279026  73.0364158
   1.6515880  86.8219038  73.4953281  12.3123608  97.2848992  64.9160015
  12.0069426  98.0177049  65.2773331  11.5929824  96.8786922  64.6352802
  12.1610951  97.3330725  64.9273153   3.3207078  98.7672487  61.2468244
   3.3946086  98.6047659  62.1010094   4.1376584  98.9562677  61.0028725
   3.4523437  98.7709230  61.3366269  18.0125401  93.9241993  64.2428360
  17.9449901  93.9437952  63.3730946  17.9981063  94.7672320  64.4684030
  18.0004157  94.0515728  64.1480837   8.4221747  85.3277151  67.5669449
   9.1675339  85.1386961  67.1532875   8.0059052  85.8535389  67.0083305
   8.4706721  85.3779296  67.4234022   1.8611664 101.7307230  55.9781717
   2.1509962 101.3396212  55.2540944   2.5915144 101.9123935  56.4186992
   2.0118548 101.7001044  55.9364524  15.7984018  92.6986379  62.5174954
  16.3491940  92.0654448  62.7572046  15.7828133  93.2301772  63.2090458
  15.8769214  92.6835327  62.6553812   2.4506409  96.5324976  67.0634848
   1.9518102  97.2440744  67.1419736   3.2606633  96.8525643  67.0253010
   2.4962516  96.6851825  67.0691416   9.5012424  90.9382713  61.6279550
   9.1577190  90.2173048  61.9786800   9.6005467  90.7296564  60.7857909
   9.4654467  90.8006916  61.5551230   1.9685535 105.0804003  57.8272559
   2.6209593 104.5480445  58.0563585   1.2711144 104.7272655  58.2140433
   1.9616253 104.9493526  57.9184727   9.9625453  97.4008417  57.1703538
  10.5283486  98.0601627  57.0862081   9.3153357  97.7458115  57.6419941
   9.9504210  97.5490358  57.2276295   6.4332031 100.3447201  56.5940618
   6.1918707  99.6115062  56.1867683   6.6133364 100.8934058  55.9406951
   6.4239655 100.3169592  56.4370841   1.6631352  95.6355761  58.0061540
   1.4674135  96.2430495  57.4121843   1.8865698  94.9423705  57.5253214
   1.6665993  95.6233286  57.8477621   8.0203390  88.8574297  63.5039093
   7.1814490  88.8835576  63.2677356   8.0907757  89.5045033  64.0844440
   7.9071783  88.9570423  63.5548210   6.4672668  85.7559675  58.2366709
   7.1699021  85.5567423  57.7586667   6.2016857  84.9835617  58.5435553
   6.5319300  85.6122641  58.2112151  11.8960913  94.0642284  60.7900335
  11.8094888  94.2197710  61.6435114  11.4411393  94.7080360  60.4159740
  11.8164170  94.1818039  60.8607442   1.2301224  87.0194960  67.2897590
   1.0384421  87.0350094  68.1397013   2.0799820  87.2158634  67.2664245
   1.3276946  87.0509311  67.4120884   5.7686729  91.3853031  59.4125894
   5.5221444  91.3048782  60.2462683   6.0971853  90.6006499  59.2188422
   5.7807973  91.2579297  59.5073418   9.6634778  98.0936391  63.2012676
   9.5249138  98.7917437  63.7061418   8.8834776  97.9385047  62.8448857
   9.5278005  98.1736557  63.2238950   8.0012863  94.3932766  69.4535057
   7.9960902  93.5212583  69.4577484   8.7073857  94.5920935  68.9804513
   8.1057867  94.2936640  69.3842093   1.7283757  94.1209750  68.8248878
   1.8727133  94.7010958  68.1891988   2.0759405  94.4986047  69.5298732
   1.8011218  94.2630454  68.8347872   3.9003674  93.3199918  66.6074009
   3.1526988  93.5130933  66.2022287   4.0545199  92.4945138  66.3698130
   3.8126102  93.2265030  66.5119415   0.8011512 102.3112522  65.6909904
   0.9501075 101.7515438  65.0383309   1.5811514 102.3904523  66.0742423
   0.9385605 102.2398087  65.6506854  11.1588151  97.4514644  53.9629175
  10.7794960  96.6651782  53.9558464  10.4954397  98.0001501  53.8200819
  11.0046626  97.4159468  53.9409972   3.3264812 102.4827165  66.9694395
   3.2508483 101.8135975  67.5245183   3.2554672 103.1844953  67.4835061
   3.3045419 102.4872072  67.1271243   4.1405451  87.2150469  67.4969413
   4.5978065  87.9474443  67.6242205   4.2161780  86.7916934  68.2556669
   4.2196421  87.2607707  67.6270489   8.6132777  80.3940344  61.3663256
   8.7316345  80.8516808  60.6330559   8.4394953  79.5885605  61.0799473
   8.6051948  80.3434116  61.2164189   3.9835059 101.0028164  57.8018001
   4.7484950 100.7337807  57.4800665   3.8813149 100.5178174  58.5188064
   4.0816555 100.8917728  57.8597829   2.0187829  89.2052573  64.3411237
   1.2283904  89.0244033  64.6628573   2.4148452  88.4279526  64.3241531
   1.9604705  89.0640034  64.3863785   6.5053720  98.0340347  49.7817950
   7.2726705  98.0940472  49.3723802   6.0585029  97.4620789  49.2974269
   6.5527147  97.9576923  49.6495661   7.4031515  96.8395003  62.0670683
   6.7276517  96.6080235  62.5684070   7.4123891  96.2316186  61.4412788
   7.3050020  96.7153928  62.0486835   4.5325659  91.6812832  68.8234736
   4.4684801  92.5422789  68.6954873   4.6722847  91.3644825  68.0230287
   4.5441129  91.7612999  68.6862949   9.4048250  99.6960136  54.2980861
   9.4868087 100.5027122  53.9742312   9.8897992  99.7156095  55.0221634
   9.4885408  99.8180798  54.3567759   3.2144753  94.3744971  62.9650939
   2.7907002  94.5749470  62.2289957   3.0389608  93.5273819  63.0775239
   3.1255634  94.2793753  62.8724629   2.7156447 105.8895484  65.4272396
   3.2052377 105.1906274  65.2448061   2.1440679 105.5919354  66.0148453
   2.7040977 105.7421708  65.4873437   5.0406343  94.2454906  57.2672274
   5.5821888  93.7425288  57.7310895   5.3552902  94.1920101  56.4561760
   5.1670740  94.1634327  57.2156087   8.9123450  98.4557554  74.3799187
   9.7258316  98.1842703  74.5404319   8.7518417  98.1565094  73.5759383
   9.0093399  98.3712480  74.2844593   3.2092793  99.6372258  54.5512302
   3.2785613  98.7786796  54.6905303   3.9881248  99.8544139  54.2231327
   3.3345643  99.5425122  54.5229460   6.1895612  89.1391211  67.3194575
   6.4037582  88.5002125  66.7657929   5.5729511  89.5837035  66.8902437
   6.1300941  89.1101355  67.1745006   7.6000280 102.0609959  58.7648796
   7.2080072 101.7576674  58.0471662   7.7553352 102.8979049  58.5753750
   7.5653870 102.1393796  58.6305293   8.3534700  90.7480276  68.2577882
   7.5411382  90.4406167  68.3391055   8.8124635  90.2679276  68.8220594
   8.3015085  90.6316769  68.3532476   7.7639955  98.6259948  58.7054826
   7.4054610  98.7974591  59.4818859   7.2778666  99.0873154  58.1482825
   7.6398652  98.7198919  58.7380095   5.5810341  82.2491147  62.3081918
   4.7103899  82.2229868  62.2615227   5.8350682  82.0768339  61.4907763
   5.4903901  82.2201290  62.1802054   2.5528320  94.3059114  51.2455061
   2.8420845  95.0823996  51.5198635   2.6400119  93.7947845  51.9469560
   2.6082577  94.3451032  51.3897559   5.4488208  92.1540348  73.0406584
   5.9187839  92.7782464  73.4274458   5.4950088  91.4857323  73.5999799
   5.5256084  92.1475028  73.1806656   2.6059481  84.2597375  63.7655388
   2.0897970  83.5677567  63.8906967   2.0453410  84.9268152  63.7117987
   2.4465995  84.2560633  63.7761454   4.6751715  84.7990335  65.5948241
   4.2883468  84.8239367  66.3761771   4.1884652  84.2332014  65.1422757
   4.5464224  84.7186086  65.6436144   8.9244694  99.5163844  69.6522027
   9.5624415  99.0224040  69.3184483   8.2818786  99.4441245  69.0674254
   8.9238921  99.4322853  69.5164382  10.6501694  91.3652990  64.2187943
  10.2229302  91.2779339  63.4636042  10.0127747  91.4730766  64.8042787
  10.4931302  91.3685650  64.1933384   4.3408857  81.6857321  67.8858501
   4.9701974  82.2217621  67.6079571   4.5094719  81.5934680  68.7372066
   4.4586651  81.7518683  67.9707029   4.1422771  86.4728515  70.1584912
   4.9696201  86.2013664  70.2143527   4.1630617  87.2689357  70.5148730
   4.2675621  86.5508270  70.2200095   8.9798951 100.2083652  66.2927384
   9.7691329  99.8572717  66.4129466   9.1542549 101.0220041  66.0304018
   9.1219232 100.2769509  66.2715252   7.8332775  84.2193209  60.8543802
   8.0382368  84.1515517  61.7000800   7.5059199  85.0252030  60.7864980
   7.8148023  84.3279149  60.9703458   2.5308926  91.5473777  62.5952770
   2.2272064  90.9929766  63.1963178   1.8288347  91.7265987  62.1080805
   2.3825136  91.4918560  62.6122476   1.5875023  88.8574297  57.1597472
   1.8634758  88.1393210  56.7475040   2.1873693  89.4559217  56.9518578
   1.7168288  88.8394668  57.0678233  11.0866463  84.7724973  60.3346568
  10.4740776  85.2595375  60.7200300  11.1830638  84.0968464  60.8784219
  11.0104360  84.7443282  60.4725426   5.0885544  86.5287814  55.4344067
   5.5429290  86.6998375  56.1591912   5.5625589  85.9155925  55.0341843
   5.2253864  86.4638700  55.4817829  14.7291491  95.8441910  65.7624084
  14.7874614  96.2928559  66.5084060  14.0957958  96.2540723  65.3254164
  14.6442786  95.9715645  65.8076632   8.3690585 101.4645452  62.1978830
   8.1710274 101.9536266  61.5035042   7.7478296 101.6686693  62.7762964
   8.2478150 101.5661990  62.1802053   2.4298564  93.2330349  56.5389074
   3.1740609  93.6204625  56.7772024   2.5759260  92.3887774  56.7029562
   2.5609149  93.1660822  56.5983044   4.3478139  85.0280608  61.5720936
   3.5014184  85.2003415  61.4462286   4.3449272  84.2229951  61.9086764
   4.2225289  84.9341637  61.6032063   5.4176440  88.8055822  62.4382994
   4.9436394  88.2797584  62.9488305   5.7894575  88.2585295  61.8697855
   5.4026329  88.6471819  62.4298141  11.6813170  93.8658198  63.8489774
  11.4411393  93.0264613  63.8532201  12.1605177  93.9458364  64.5730548
  11.7165354  93.7539597  63.9564577   7.3459939  89.6992377  55.5008748
   6.8182958  89.7821121  54.8114456   7.8055647  90.4410248  55.4973392
   7.3361790  89.8213039  55.3983443  13.6818357  90.6459655  61.8019033
  13.4428127  90.6055489  60.9639818  13.8452258  91.4930807  61.9284755
  13.6708661  90.7651740  61.6972515  10.2864387  95.0309604  67.7324079
  11.0098586  94.5782131  67.5535098  10.0214350  95.3114270  66.9496406
  10.3545661  95.0060573  67.5902794   6.8997022  98.2695940  54.6318405
   7.6231221  98.7354053  54.4882978   6.4597613  98.3369550  53.8816002
   6.9412714  98.3479777  54.5003186   6.0683177  95.1293483  65.8819094
   5.4540170  94.5851533  66.1767729   6.5850462  94.6157719  65.4024910
   6.0538839  94.9729892  65.8543322   5.3079474  96.1997753  63.6163392
   4.8807082  95.5747471  63.1828828   5.3004418  95.9172674  64.4422399
   5.2438615  96.0650533  63.6743220   6.3662304  83.4024161  67.2402616
   5.8702865  83.5987835  66.5494182   7.1231366  83.8016829  67.0691417
   6.4049129  83.4901895  67.1122752   3.6365184  87.0766507  63.8305926
   3.6607671  86.5426619  63.1418706   3.8876657  86.5683816  64.4931517
   3.6775102  86.9227411  63.8270571   2.0996119  95.3698065  71.3131965
   1.2491749  95.5069780  71.4489610   2.2624246  94.6361844  71.7579667
   1.9979982  95.2812167  71.3987564  12.7199701  93.9936015  66.2354628
  13.3117542  94.6333266  66.2672826  13.1558696  93.2959052  66.5246695
  12.8718132  93.9854365  66.2835461   1.3196118  87.3934513  53.3413706
   1.6411959  86.9137596  52.6872968   1.5823062  88.2034159  53.1504518
   1.4062144  87.4424411  53.2169198   4.5493091  98.4153387  66.8612522
   4.0418182  98.9689234  67.3053153   4.2519737  98.4761677  66.0431297
   4.4297976  98.5059699  66.8060979   6.7155273  86.7806707  65.7037185
   7.1410345  86.3279234  65.0920712   6.1012266  86.2266778  65.9801973
   6.6883919  86.6320683  65.6542210   7.1600871 102.3316645  54.7916466
   6.4430181 102.1577507  54.3263703   7.8107609 102.0969217  54.2591952
   7.1502722 102.2712438  54.6445684   5.1549496  83.2521807  59.1127762
   4.5117814  83.1019453  59.6812901   4.8148903  83.0064152  58.3476867
   5.0094573  83.1933929  59.0830777   9.7448843  91.2081234  58.5357771
   9.0740033  91.7510936  58.4070836  10.4388593  91.6776089  58.2939466
   9.7477710  91.3579505  58.4813299   3.7935576 103.3477946  63.7669529
   3.5701231 102.5896775  64.1353555   3.3045420 103.3775967  63.0449969
   3.6879025 103.2400170  63.7146270   9.9076970  87.6637117  61.4448144
  10.2604580  87.2366840  62.1193943   9.0491772  87.5787961  61.5749220
   9.8326415  87.5881858  61.5643154   7.9060236  90.9272486  65.3932986
   7.8858163  90.7455781  66.2467765   7.9539437  91.7984504  65.3692570
   7.9094877  91.0289024  65.5156281   5.8506566  97.5159678  71.3181463
   5.8102421  96.8709355  70.7326619   6.6629884  97.4596295  71.6306875
   5.9649719  97.4118645  71.2778412   2.4414033 103.5678404  61.2206614
   2.0274432 102.9052534  60.8310455   3.1261408 103.7156263  60.7002308
   2.4812405 103.4919062  61.0863111   5.8079327 102.7268489  61.9730230
   5.4095611 102.8370759  61.2051051   5.1930547 102.9350555  62.5556790
   5.6578217 102.7742057  61.9461530   4.3807229  89.3342637  54.8404370
   3.7872069  89.6559633  54.2888937   4.4182507  88.4883732  54.6325476
   4.2981619  89.2566965  54.7287141  11.3401030  82.7855529  62.3732457
  10.8331895  82.0784669  62.3053634  12.1368464  82.4548718  62.5033533
  11.3828269  82.6328681  62.3831451   7.2565046  89.2922141  58.2706120
   7.0278739  89.3154843  57.4284478   7.5163122  88.4679608  58.3901131
   7.2611234  89.1738221  58.1631318   1.5384274  91.1456614  67.8731220
   1.0263178  90.5377797  68.2316252   1.3663771  91.8613207  68.3405196
   1.4373911  91.1619914  67.9947444  13.5421170  97.3020456  55.3573321
  13.9254776  98.0511812  55.5871418  12.7465283  97.5486275  55.0985310
  13.4814952  97.4490150  55.3530894   5.4153345  89.0680859  70.3133476
   5.9724775  88.8394669  69.6811941   5.0914410  89.8286525  70.0368688
   5.4499755  89.1464696  70.1789973   3.1336462  92.1548512  71.2785483
   3.8847789  92.4700189  71.5925037   3.3259039  91.9527683  70.4519405
   3.2727876  92.1715894  71.2028879   2.3536462  89.9739888  52.9333700
   2.7335427  89.9919517  52.1484815   1.6129058  90.4193876  52.8124547
   2.3005299  90.0421662  52.7997268   9.9821752  88.2822079  58.5209279
   9.9815979  88.1270735  59.3793555   9.7777932  89.1285066  58.4650664
   9.9521530  88.3842699  58.6397218   7.7062604  92.9619581  62.1745485
   8.2016270  92.2442576  62.1349506   6.8962380  92.6590378  62.0599972
   7.6606498  92.8117227  62.1519211   3.1521216  96.8117394  54.3242490
   2.3432539  96.4884067  54.2775799   3.6596125  96.1050616  54.2570739
   3.1070883  96.6598710  54.3072784   9.7714423  95.7123268  64.8622614
  10.1969495  95.1897690  64.3093039   9.4071343  96.3104105  64.3411237
   9.7801026  95.7233495  64.7031624   6.3593023  99.4257532  61.1923772
   6.8304201 100.1397795  61.3613757   6.6953201  98.8256282  61.7283641
   6.4788138  99.4428997  61.2956148   8.4470007 101.0358846  73.3715844
   8.5566973 100.2467406  73.7272591   8.7760904 100.9464782  72.5690182
   8.5122413 100.9064699  73.3058234   3.2762518  84.1985003  68.1481866
   3.4090423  83.4015996  68.4762842   3.6607670  84.7251406  68.7280142
   3.3518846  84.1584920  68.2825369   6.9966969  99.2175466  67.9551464
   6.4487915  98.5933350  67.6871530   7.4579998  99.4069738  67.2395544
   6.9834178  99.1534517  67.8101895   6.3494873  81.1215329  64.7462960
   5.5440836  81.0113059  65.0630798   6.2201608  81.2227785  63.8892826
   6.2115006  81.1198999  64.6671000   9.8060833  87.2860821  65.3402657
   9.2223822  87.7870027  64.9280224  10.1265127  86.7790377  64.7066980
   9.7674009  87.2852656  65.1861164   2.3455632  86.2001416  55.6161331
   3.1671327  86.3699729  55.3743026   1.8825283  86.3548677  54.8927629
   2.3986795  86.2483149  55.4732976   0.9350964  84.1944178  66.3959760
   1.4795377  83.8535305  66.9864102   0.9887900  85.0529640  66.5381045
   1.0240084  84.2699437  66.5041634   6.5625295 100.2226539  64.4860806
   7.3823669 100.0789505  64.7477101   6.2819373 100.8472738  65.0277243
   6.6422039 100.2936891  64.6048745  23.0338946 107.8791391  57.4503682
  23.0032950 108.7336028  57.6221951  23.6320294 107.5786683  58.0089825
  23.1176103 107.9607887  57.5578484  16.2338630 106.9667042  62.2056612
  15.3776526 107.1275540  62.2565729  16.2806284 106.0959106  62.2261673
  16.1137742 106.8617844  62.2162678  19.5432347 113.2353567  71.8117068
  20.2499114 112.7405598  71.9404003  19.7320282 113.6762649  71.0819726
  19.6760253 113.2271918  71.7226114  19.0790451 109.0259086  64.8488264
  19.6246411 109.7044172  64.9082234  19.0207328 108.8846547  63.9889845
  19.1506366 109.1051087  64.7300324  20.8555520 110.4543693  55.7221992
  20.7395046 111.2051379  56.1514130  21.6511407 110.1967646  55.9718079
  20.9560110 110.5278540  55.8226083   7.6919658 104.7054169  62.7593258
   7.0724690 104.1146816  62.5903272   7.5903522 105.2965604  62.1257581
   7.5857334 104.7058252  62.6398247  14.7887554 106.4453711  57.0925721
  15.4867718 106.6241838  57.5847184  15.1039886 105.9224050  56.4696110
  14.9382891 106.3947483  57.0727731   7.4188791 108.2506451  65.0036827
   7.2947488 108.8368896  65.6386646   8.0707076 107.7566646  65.3049102
   7.4962440 108.2645255  65.1422756  12.4447132 111.4268168  64.2824338
  13.0896135 110.9340611  63.9635286  12.6848909 111.5692954  65.1090416
  12.5757717 111.3745610  64.3573871  12.9614417 101.8146108  61.1746995
  12.6317747 102.2657251  60.5050694  12.2859419 101.7362271  61.7220002
  12.8124854 101.8697243  61.1570219  18.5784826 111.1851337  54.0336282
  18.4936121 112.0412304  54.1785850  19.0669209 110.9095661  54.7018441
  18.6373723 111.2708659  54.1538363  20.1690825  97.8031630  59.4196606
  19.8544266  98.4935109  59.8517028  19.6517767  97.7476413  58.7182107
  20.0455295  97.8966519  59.3793555  19.5103259 107.8036131  55.5334017
  18.9814730 108.0195765  56.1931323  20.0328279 108.4972270  55.4534986
  19.5091712 107.9379268  55.6189616  24.9651312 113.3782436  60.9067061
  24.1349015 113.5893079  61.0700478  24.9160564 112.5519490  60.6309345
  24.8358047 113.2872042  60.8904427  15.8580081 107.9465000  52.8110405
  16.0976085 108.1542984  51.9985748  16.1795922 107.1422509  52.9199350
  15.9417239 107.8579101  52.7070958  11.1670371  99.8758396  56.6569943
  11.9216339 100.2436713  56.4186993  10.9897906 100.2497950  57.4249123
  11.2524850  99.9856584  56.7354832  24.4605270 106.0252836  64.7017482
  23.6233691 106.0955024  64.9365077  24.4293501 106.0277331  63.8291785
  24.3323552 106.0363063  64.6077030  10.8569999 108.1685872  70.4165851
  11.0290503 108.0591767  71.2651133  11.3939357 108.8140278  70.1797043
  10.9615003 108.2477874  70.5070948   9.5227436 102.2828715  53.3548056
   9.3403009 102.5000596  52.5289049  10.3853049 102.3967728  53.4106671
   9.6232025 102.3318613  53.2402543  15.2027155  99.2855126  56.3897080
  15.9313316  99.1071081  55.9435236  15.2922048 100.1273205  56.6004258
  15.3233817  99.3839004  56.3550598  19.1835456 110.2208513  60.2929374
  19.9392971 110.6540027  60.3318283  19.2897780 109.5713283  60.8664010
  19.3105626 110.1885997  60.3827400  22.2215627 114.0481790  61.0431777
  21.7850859 114.0518533  61.7990748  21.8878542 114.7287289  60.6111354
  22.1078247 114.1494246  61.0912609  22.1413110 101.0895618  63.2861205
  22.7839018 101.1593723  63.8723120  22.3936131 100.4224841  62.7840747
  22.2735242 101.0021967  63.2988484   9.0689463 105.5602888  51.8670529
   8.3547640 105.2741067  52.2792962   9.5533432 105.8999513  52.5076917
   9.0348826 105.5684537  52.0226164   9.9130322 104.2996181  67.8985779
   9.2202119 103.8293161  68.1446510  10.5290650 104.0734486  68.4727486
   9.9014852 104.1963313  68.0194931  25.3559973 110.7662710  59.9351414
  26.0176407 110.2053379  59.8347323  24.7151385 110.2714741  60.2604105
  25.3588841 110.6099119  59.9683754  21.6424804 111.7828093  59.6763403
  21.8780393 111.9273291  58.8490254  21.7914368 112.5470501  60.0694917
  21.6990607 111.9167147  59.6127007   8.6370881 108.2661585  69.0412624
   9.3610854 108.2514616  69.5277519   8.7387018 108.9756941  68.5434592
   8.7589090 108.3686289  69.0391411  23.4715261 110.6229758  57.5133007
  23.8023478 111.1557399  56.9073102  24.0448349 110.6768646  58.1694958
  23.6048940 110.7099327  57.5210788  16.0115831 111.7460670  73.9061571
  15.2188812 112.0604182  74.0914191  16.1264758 111.9612138  73.0682356
  15.9111241 111.8244507  73.8099906  18.6847150 108.4694661  58.1956587
  18.7794004 109.2083955  58.6496212  18.0605993 108.0412137  58.6291151
  18.6056180 108.5155982  58.3264734  16.9399624 111.6480874  68.8446868
  17.5138485 111.0108118  68.9995432  16.8614427 111.6484956  67.9756525
  17.0132858 111.5545985  68.7393279   5.5396040 108.4270083  62.6829582
   6.1169543 108.2906534  63.3221827   4.8410102 107.9705867  62.9375166
   5.5217061 108.3392349  62.8151872  18.9370171 110.3143401  51.4293539
  18.8550334 110.3845588  52.2948526  19.5749892 110.8773145  51.2377279
  19.0190008 110.4082372  51.5283488  12.2963342 110.0804139  60.8968065
  12.0382587 109.2475874  60.8699365  12.3511825 110.3061752  60.0560566
  12.2663120 109.9901910  60.7688202  17.3764392 102.1832590  60.9972158
  16.6720719 101.6941775  61.1556077  17.4249367 102.1955064  60.1260602
  17.2794444 102.1122238  60.8911498  11.2698054 107.6341901  61.3832960
  10.6947646 107.7934070  62.0196921  10.8933731 106.9977310  60.9201410
  11.1300867 107.5639714  61.4087518  14.9371343 106.1065251  66.2425338
  14.5485776 105.6819468  65.5877530  14.2726041 106.3547400  66.7502365
  14.7818271 106.0803972  66.2213206  24.5794612 105.8640255  59.0173168
  24.3231177 105.0520197  58.8271051  25.4223926 105.8717822  58.7903356
  24.6660638 105.7452253  58.9557985   1.0154873 107.2781976  59.3977401
   1.1015125 106.9013844  60.1790930   1.6430671 106.9042422  58.9197359
   1.1211424 107.1667458  59.4422878  18.7597705  99.8039879  63.7549323
  19.1408216  99.1218050  64.1417197  17.9560989  99.5149481  63.5724987
  18.6974166  99.6606928  63.7853378  16.0410281 110.3363855  54.4402145
  16.8550920 110.6278748  54.3284917  15.9769423 109.6823718  53.8660438
  16.1513020 110.2829050  54.3390983  22.2619771 113.0189851  68.8531721
  22.0258409 112.1877916  68.7343782  22.9063000 112.9675459  69.4386565
  22.3214442 112.8887539  68.9217615  12.5521005 109.0287662  53.9049347
  12.9366157 108.8095369  54.6565892  12.3032625 109.8550608  54.0350423
  12.5723077 109.1185809  54.0350423  12.7189545 102.3094078  73.6211931
  12.4042986 103.0793640  73.3581494  12.3979478 101.7464334  73.0364158
  12.6248464 102.3404346  73.4953281  23.2856192 112.8034300  64.9160015
  22.9802009 113.5362357  65.2773331  22.5662408 112.3972230  64.6352802
  23.1343534 112.8516033  64.9273153  28.9857984 109.4427301  64.2428360
  28.9182484 109.4623260  63.3730946  28.9713647 110.2857628  64.4684030
  28.9736741 109.5701035  64.1480837  10.2721442 100.6984599  59.2358127
   9.4043867 100.7707199  59.3015737  10.5596646 101.5006678  59.4246102
  10.1861190 100.8278746  59.2732894  19.3954331 100.8462458  67.5669449
  20.1407923 100.6572269  67.1532875  18.9791635 101.3720696  67.0083305
  19.4439305 100.8964604  67.4234022  26.7716602 108.2171687  62.5174954
  27.3224523 107.5839756  62.7572046  26.7560717 108.7487080  63.2090458
  26.8501798 108.2020635  62.6553812  20.4745008 106.4568021  61.6279550
  20.1309774 105.7358356  61.9786800  20.5738050 106.2481872  60.7857909
  20.4387051 106.3192224  61.5551230  20.9358037 112.9193725  57.1703538
  21.5016069 113.5786935  57.0862081  20.2885940 113.2643423  57.6419941
  20.9236793 113.0675666  57.2276295  12.3506050 104.9091329  72.3597146
  11.5405826 105.2149108  72.2486988  12.8280737 105.6296911  72.4749730
  12.3009529 105.0605930  72.3604217   8.1988794 104.1742858  56.6775004
   7.9113590 103.8044129  55.9406951   8.8859262 104.6437714  56.4158708
   8.2577691 104.1889828  56.5290079  11.0342466 108.0395807  58.1242408
  11.7565117 108.2036965  57.6646214  10.5550458 108.7605471  58.0181748
  11.0706196 108.1694036  58.0408022  18.9935973 104.3759605  63.5039093
  18.1547074 104.4020884  63.2677356  19.0640340 105.0230341  64.0844440
  18.8804367 104.4755731  63.5548210  17.4405251 101.2744982  58.2366709
  18.1431604 101.0752731  57.7586667  17.1749440 100.5020925  58.5435553
  17.5051884 101.1307948  58.2112151  22.8693497 109.5827592  60.7900335
  22.7827472 109.7383018  61.6435114  22.4143977 110.2265668  60.4159740
  22.7896754 109.7003347  60.8607442   5.7716989 104.9524071  57.5260285
   5.8733125 105.7550232  57.8541260   6.5672875 104.7511407  57.2283365
   5.9044894 105.0409970  57.5295640  12.2033808 102.5380268  67.2897590
  12.0117005 102.5535402  68.1397013  13.0532404 102.7343942  67.2664245
  12.3009530 102.5694619  67.4120884   6.5880721 105.0671249  65.2681406
   6.4466213 104.2155190  65.3925914   6.8721284 105.1099910  64.4443612
   6.6088567 104.9470999  65.1649030  16.7419313 106.9038339  59.4125894
  16.4954027 106.8234090  60.2462683  17.0704436 106.1191807  59.2188422
  16.7540557 106.7764605  59.5073418  20.6367362 113.6121699  63.2012676
  20.4981721 114.3102744  63.7061418  19.8567360 113.4570355  62.8448857
  20.5010589 113.6921865  63.2238950  18.9745447 109.9118074  69.4535057
  18.9693486 109.0397891  69.4577484  19.6806441 110.1106243  68.9804513
  19.0790451 109.8121948  69.3842093  12.7016340 109.6395058  68.8248878
  12.8459716 110.2196266  68.1891988  13.0491989 110.0171355  69.5298732
  12.7743802 109.7815762  68.8347872  14.8736258 108.8385226  66.6074009
  14.1259572 109.0316241  66.2022287  15.0277783 108.0130446  66.3698130
  14.7858685 108.7450338  66.5119415  22.1320735 112.9699952  53.9629175
  21.7527543 112.1837090  53.9558464  21.4686980 113.5186809  53.8200819
  21.9779210 112.9344776  53.9409972  15.1138035 102.7335777  67.4969413
  15.5710649 103.4659751  67.6242205  15.1894363 102.3102242  68.2556669
  15.1929005 102.7793015  67.6270489   7.3571026 102.9801597  68.5858857
   6.8213215 102.3681955  68.9019624   7.4188791 103.5549733  69.2392523
   7.2866659 102.9748524  68.7294283  19.5865361  95.9125652  61.3663256
  19.7048929  96.3702115  60.6330559  19.4127536  95.1070913  61.0799473
  19.5784532  95.8619424  61.2164189  12.9920413 104.7237881  64.3411237
  12.2016487 104.5429341  64.6628573  13.3881035 103.9464833  64.3241531
  12.9337289 104.5825342  64.3863785  18.3764099 112.3580311  62.0670683
  17.7009101 112.1265543  62.5684070  18.3856475 111.7501494  61.4412788
  18.2782603 112.2339236  62.0486835  15.5058243 107.1998140  68.8234736
  15.4417384 108.0608096  68.6954873  15.6455431 106.8830133  68.0230287
  15.5173713 107.2798307  68.6862949  14.1877337 109.8930279  62.9650939
  13.7639586 110.0934778  62.2289957  14.0122192 109.0459127  63.0775239
  14.0988217 109.7979061  62.8724629  16.0138926 109.7640214  57.2672274
  16.5554472 109.2610595  57.7310895  16.3285485 109.7105409  56.4561760
  16.1403323 109.6819635  57.2156087  19.8856034 113.9742862  74.3799187
  20.6990899 113.7028011  74.5404319  19.7251000 113.6750402  73.5759383
  19.9825982 113.8897788  74.2844593  17.1628196 104.6576519  67.3194575
  17.3770165 104.0187433  66.7657929  16.5462095 105.1022343  66.8902437
  17.1033525 104.6286663  67.1745006   6.0494043 107.5717281  58.7139678
   6.4293008 107.9901826  58.0499946   5.4749408 108.1530737  59.0208522
   6.0205368 107.7195140  58.6616419  19.3267284 106.2665584  68.2577882
  18.5143965 105.9591474  68.3391055  19.7857218 105.7864584  68.8220594
  19.2747669 106.1502076  68.3532476  16.5542924  97.7676455  62.3081918
  15.6836482  97.7415176  62.2615227  16.8083266  97.5953647  61.4907763
  16.4636485  97.7386598  62.1802054  13.5260904 109.8244421  51.2455061
  13.8153429 110.6009304  51.5198635  13.6132703 109.3133153  51.9469560
  13.5815160 109.8636340  51.3897559  16.4220791 107.6725656  73.0406584
  16.8920422 108.2967772  73.4274458  16.4682671 107.0042631  73.5999799
  16.4988667 107.6660336  73.1806656  13.5792065  99.7782683  63.7655388
  13.0630553  99.0862874  63.8906967  13.0185994 100.4453460  63.7117987
  13.4198578  99.7745941  63.7761454  15.6484298 100.3175643  65.5948241
  15.2616052 100.3424675  66.3761771  15.1617236  99.7517322  65.1422757
  15.5196807 100.2371394  65.6436144  21.6234278 106.8838298  64.2187943
  21.1961886 106.7964647  63.4636042  20.9860331 106.9916073  64.8042787
  21.4663885 106.8870958  64.1933384  15.3141440  97.2042629  67.8858501
  15.9434558  97.7402929  67.6079571  15.4827303  97.1119987  68.7372066
  15.4319235  97.2703991  67.9707029  15.1155355 101.9913823  70.1584912
  15.9428784 101.7198972  70.2143527  15.1363201 102.7874665  70.5148730
  15.2408205 102.0693577  70.2200095   9.6924845 109.1377686  63.3455173
   8.8512851 109.0381560  63.5534067   9.9014853 109.9073166  63.6969493
   9.5989537 109.2369729  63.4282488   7.1700412 106.7597223  61.1739923
   6.7757110 106.8340235  60.3990033   6.6140529 107.1455169  61.7248285
   7.0303224 106.8278998  61.1407583  18.8065359  99.7378517  60.8543802
  19.0114952  99.6700825  61.7000800  18.4791783 100.5437338  60.7864980
  18.7880606  99.8464457  60.9703458  13.5041510 107.0659085  62.5952770
  13.2004647 106.5115073  63.1963178  12.8020930 107.2451295  62.1080805
  13.3557719 107.0103868  62.6122476  12.5607607 104.3759605  57.1597472
  12.8367341 103.6578518  56.7475040  13.1606276 104.9744525  56.9518578
  12.6900871 104.3579976  57.0678233  22.0599046 100.2910281  60.3346568
  21.4473360 100.7780683  60.7200300  22.1563221  99.6153772  60.8784219
  21.9836944 100.2628590  60.4725426  16.0618127 102.0473122  55.4344067
  16.5161874 102.2183683  56.1591912  16.5358173 101.4341233  55.0341843
  16.1986447 101.9824008  55.4817829   9.9794275 102.6923446  65.4314823
  10.4395757 102.7662376  66.1689947  10.0250382 103.4904700  65.0814645
  10.0544831 102.8217593  65.4887580  11.6277625 103.3590141  69.9986850
  11.2363190 102.7123488  70.4342628  11.7963488 103.9501576  70.6181106
  11.5948536 103.3504409  70.1549556  25.7024074 111.3627218  65.7624084
  25.7607198 111.8113867  66.5084060  25.0690542 111.7726031  65.3254164
  25.6175369 111.4900953  65.8076632  13.4031147 108.7515657  56.5389074
  14.1473192 109.1389933  56.7772024  13.5491843 107.9073082  56.7029562
  13.5341732 108.6846130  56.5983044  15.3210723 100.5465916  61.5720936
  14.4746768 100.7188723  61.4462286  15.3181855  99.7415259  61.9086764
  15.1957873 100.4526945  61.6032063  16.3909023 104.3241130  62.4382994
  15.9168977 103.7982892  62.9488305  16.7627159 103.7770603  61.8697855
  16.3758912 104.1657127  62.4298141   6.7682053 106.3212637  67.8066540
   7.6307666 106.2208346  67.7203869   6.4373836 105.7407346  67.2452112
   6.8467250 106.2204263  67.7111945  22.6545754 109.3843506  63.8489774
  22.4143977 108.5449921  63.8532201  23.1337761 109.4643672  64.5730548
  22.6897937 109.2724905  63.9564577  18.3192523 105.2177685  55.5008748
  17.7915541 105.3006429  54.8114456  18.7788231 105.9595556  55.4973392
  18.3094373 105.3398347  55.3983443  24.6550941 106.1644963  61.8019033
  24.4160711 106.1240797  60.9639818  24.8184842 107.0116115  61.9284755
  24.6441244 106.2837048  61.6972515  21.2596971 110.5494912  67.7324079
  21.9831170 110.0967439  67.5535098  20.9946933 110.8299578  66.9496406
  21.3278244 110.5245881  67.5902794  10.1283839 105.1455086  64.4676958
   9.5036909 105.1573478  63.8602910   9.7929434 105.6215261  65.1168198
   9.9869331 105.2173603  64.4733526  10.3125588 103.4880204  50.5249643
   9.9638392 104.1399929  50.9881192   9.8322034 103.4737317  49.7973514
  10.1895832 103.5823258  50.4860734  17.0415760 110.6478790  65.8819094
  16.4272753 110.1036841  66.1767729  17.5583045 110.1343027  65.4024910
  17.0271423 110.4915199  65.8543322  16.2812058 111.7183060  63.6163392
  15.8539666 111.0932779  63.1828828  16.2737002 111.4357982  64.4422399
  16.2171199 111.5835841  63.6743220   9.3974585 106.7548234  66.6851826
   9.5568071 105.9991558  67.0903548   9.2167478 107.3039173  67.3392564
   9.3939944 106.7242047  66.8414532  17.3394888  98.9209469  67.2402616
  16.8435449  99.1173143  66.5494182  18.0963950  99.3202137  67.0691417
  17.3781712  99.0087203  67.1122752  14.6097767 102.5951815  63.8305926
  14.6340254 102.0611927  63.1418706  14.8609241 102.0869124  64.4931517
  14.6507686 102.4412719  63.8270571  10.8899089 101.3222633  63.2111671
  10.9297461 101.8231840  63.9246378  10.0648754 101.4133027  62.9417594
  10.7738615 101.4104450  63.2762209  13.0728702 110.8883373  71.3131965
  12.2224333 111.0255088  71.4489610  13.2356830 110.1547151  71.7579667
  12.9712566 110.7997474  71.3987564  12.3113453 107.8383143  65.5085570
  11.4805382 108.0056961  65.3020818  12.2564970 107.4619094  66.2934455
  12.1802868 107.8072874  65.5934098  10.1197236 101.3292036  71.1441980
  10.7449939 100.7854169  71.4171413   9.6647716 100.8486954  70.5749771
  10.1445497 101.1781517  71.1003574  10.6849497 106.1138735  56.0375687
  10.8252458 106.6111199  56.7404329  11.1832029 105.4125029  56.1789901
  10.7790578 106.0840713  56.1627266  10.7149719 106.9805846  53.3668264
  11.3494799 107.5766271  53.3017726  10.7975330 106.6809303  54.1814134
  10.8206270 107.0246754  53.4771351  23.6932285 109.5121323  66.2354628
  24.2850125 110.1518574  66.2672826  24.1291279 108.8144360  66.5246695
  23.8450716 109.5039673  66.2835461  12.2928702 102.9119821  53.3413706
  12.6144543 102.4322904  52.6872968  12.5555646 103.7219467  53.1504518
  12.3794727 102.9609719  53.2169198  17.6887857 102.2992015  65.7037185
  18.1142928 101.8464541  65.0920712  17.0744850 101.7452086  65.9801973
  17.6616502 102.1505991  65.6542210   7.2202707 109.1773686  56.6357810
   7.7294936 109.7738194  57.0169116   7.6936979 108.9099660  55.9534230
   7.3646083 109.2259502  56.5912333  16.1282080  98.7707115  59.1127762
  15.4850398  98.6204761  59.6812901  15.7881487  98.5249460  58.3476867
  15.9827157  98.7119237  59.0830777  20.7181426 106.7266542  58.5357771
  20.0472616 107.2696244  58.4070836  21.4121176 107.1961397  58.2939466
  20.7210294 106.8764813  58.4813299  20.8809554 103.1822425  61.4448144
  21.2337164 102.7552148  62.1193943  20.0224355 103.0973269  61.5749220
  20.8058998 103.1067166  61.5643154   9.5793239 105.8129945  59.5030991
   8.8605228 106.2294078  59.7703854   9.9505601 106.3784184  58.9522629
   9.5285170 105.9579226  59.4613798  18.8792819 106.4457794  65.3932986
  18.8590747 106.2641089  66.2467765  18.9272020 107.3169812  65.3692570
  18.8827460 106.5474332  65.5156281  16.8239149 113.0344986  71.3181463
  16.7835004 112.3894663  70.7326619  17.6362468 112.9781603  71.6306875
  16.9382303 112.9303953  71.2778412  15.3539813 104.8527945  54.8404370
  14.7604652 105.1744941  54.2888937  15.3915091 104.0069040  54.6325476
  15.2714202 104.7752273  54.7287141  22.3133614  98.3040837  62.3732457
  21.8064478  97.5969977  62.3053634  23.1101047  97.9734026  62.5033533
  22.3560853  98.1513988  62.3831451  18.2297630 104.8107449  58.2706120
  18.0011323 104.8340151  57.4284478  18.4895706 103.9864916  58.3901131
  18.2343818 104.6923529  58.1631318  12.5116858 106.6641922  67.8731220
  11.9995761 106.0563105  68.2316252  12.3396354 107.3798515  68.3405196
  12.4106495 106.6805222  67.9947444   7.3582573 105.1079498  70.5233582
   7.1885163 105.7680873  69.9781789   6.9148523 105.3186059  71.2446071
   7.2681906 105.2365480  70.5495212  11.2842392 103.3483996  59.5660316
  11.7599758 103.7101075  58.9310497  10.7830992 104.0040463  59.8460459
  11.2807751 103.4978184  59.5137057  24.5153754 112.8205764  55.3573321
  24.8987359 113.5697120  55.5871418  23.7197867 113.0671583  55.0985310
  24.4547536 112.9675458  55.3530894  16.3885928 104.5866167  70.3133476
  16.9457359 104.3579977  69.6811941  16.0646993 105.3471833  70.0368688
  16.4232339 104.6650004  70.1789973   4.2584637 108.0126363  65.7822072
   3.7111357 107.3427009  65.9002940   5.0477015 107.6456211  65.8465539
   4.2936821 107.8591350  65.8090773  14.1069046 107.6733820  71.2785483
  14.8580373 107.9885497  71.5925037  14.2991622 107.4712991  70.4519405
  14.2460460 107.6901202  71.2028879  13.3269045 105.4925195  52.9333700
  13.7068010 105.5104825  52.1484815  12.5861641 105.9379184  52.8124547
  13.2737883 105.5606970  52.7997268  20.9554336 103.8007387  58.5209279
  20.9548562 103.6456043  59.3793555  20.7510516 104.6470374  58.4650664
  20.9254114 103.9028007  58.6397218   3.0171607 107.2247171  62.9368095
   2.8393368 106.7723780  63.6623011   2.7290629 108.0273332  63.1206573
   2.9484560 107.2769729  63.0711598  18.6795188 108.4804888  62.1745485
  19.1748853 107.7627884  62.1349506  17.8694964 108.1775686  62.0599972
  18.6339081 108.3302535  62.1519211  20.7447007 111.2308576  64.8622614
  21.1702078 110.7082998  64.3093039  20.3803927 111.8289413  64.3411237
  20.7533609 111.2418803  64.7031624  14.2495101  99.7170311  68.1481866
  14.3823007  98.9201304  68.4762842  14.6340254 100.2436714  68.7280142
  14.3251430  99.6770228  68.2825369  17.3227456  96.6400637  64.7462960
  16.5173420  96.5298367  65.0630798  17.1934192  96.7413093  63.8892826
  17.1847589  96.6384307  64.6671000  20.7793417 102.8046129  65.3402657
  20.1956406 103.3055335  64.9280224  21.0997711 102.2975685  64.7066980
  20.7406592 102.8037964  65.1861164  13.3188216 101.7186724  55.6161331
  14.1403910 101.8885037  55.3743026  12.8557867 101.8733985  54.8927629
  13.3719378 101.7668457  55.4732976  11.9083548  99.7129486  66.3959760
  12.4527961  99.3720613  66.9864102  11.9620484 100.5714947  66.5381045
  11.9972667  99.7884745  66.5041634  31.1423409 113.3216938  59.4196606
  30.8276850 114.0120417  59.8517028  30.6250350 113.2661721  58.7182107
  31.0187879 113.4151827  59.3793555  26.1759739 114.8040434  56.3897080
  26.9045899 114.6256388  55.9435236  26.2654632 115.6458513  56.6004258
  26.2966401 114.9024312  56.3550598  33.1145693 116.6080926  63.2861205
  33.7571602 116.6779031  63.8723120  33.3668714 115.9410149  62.7840747
  33.2467826 116.5207275  63.2988484  29.7330288 115.3225187  63.7549323
  30.1140800 114.6403358  64.1417197  28.9293572 115.0334789  63.5724987
  29.6706750 115.1792236  63.7853378  30.3686914 116.3647766  67.5669449
  31.1140506 116.1757577  67.1532875  29.9524219 116.8906004  67.0083305
  30.4171888 116.4149912  67.4234022  28.4137835 116.7930290  58.2366709
  29.1164188 116.5938039  57.7586667  28.1482024 116.0206233  58.5435553
  28.4784467 116.6493256  58.2112151  30.5597944 111.4310960  61.3663256
  30.6781512 111.8887423  60.6330559  30.3860120 110.6256221  61.0799473
  30.5517115 111.3804732  61.2164189  27.5275508 113.2861762  62.3081918
  26.6569066 113.2600484  62.2615227  27.7815849 113.1138955  61.4907763
  27.4369068 113.2571906  62.1802054  26.6216882 115.8360951  65.5948241
  26.2348635 115.8609982  66.3761771  26.1349819 115.2702630  65.1422757
  26.4929391 115.7556702  65.6436144  26.2874024 112.7227936  67.8858501
  26.9167142 113.2588236  67.6079571  26.4559886 112.6305295  68.7372066
  26.4051818 112.7889299  67.9707029  29.7797942 115.2563825  60.8543802
  29.9847536 115.1886133  61.7000800  29.4524366 116.0622646  60.7864980
  29.7613190 115.3649765  60.9703458  33.0331630 115.8095589  60.3346568
  32.4205943 116.2965991  60.7200300  33.1295805 115.1339080  60.8784219
  32.9569527 115.7813898  60.4725426  28.3127471 114.4394777  67.2402616
  27.8168032 114.6358451  66.5494182  29.0696533 114.8387445  67.0691417
  28.3514296 114.5272511  67.1122752  27.1014663 114.2892423  59.1127762
  26.4582981 114.1390069  59.6812901  26.7614070 114.0434768  58.3476867
  26.9559741 114.2304545  59.0830777  33.2866197 113.8226145  62.3732457
  32.7797062 113.1155285  62.3053634  34.0833631 113.4919334  62.5033533
  33.3293437 113.6699296  62.3831451  25.2227685 115.2355619  68.1481866
  25.3555590 114.4386612  68.4762842  25.6072837 115.7622022  68.7280142
  25.2984014 115.1955535  68.2825369  28.2960040 112.1585945  64.7462960
  27.4906004 112.0483675  65.0630798  28.1666775 112.2598401  63.8892826
  28.1580173 112.1569615  64.6671000   0.7824602  53.7798906  44.3843729
   0.7518607  54.6343543  44.5561998   1.3805951  53.4794199  44.9429872
   0.8661760  53.8615403  44.4918531   2.7136969  59.2789951  47.8407108
   1.8834672  59.4900595  48.0040524   2.6646221  58.4527006  47.5649392
   2.5843704  59.1879557  47.8244473   2.2090927  51.9260352  51.6357529
   1.3719348  51.9962539  51.8705124   2.1779158  51.9284847  50.7631832
   2.0809209  51.9370579  51.5417077   3.1045630  56.6670225  46.8691461
   3.7662064  56.1060894  46.7687369   2.4637042  56.1722256  47.1944152
   3.1074497  56.5106634  46.9023801   1.2200917  56.5237274  44.4473054
   1.5509135  57.0564914  43.8413148   1.7934006  56.5776162  45.1035005
   1.3534597  56.6106843  44.4550835   2.3280269  51.7647771  45.9513215
   2.0716834  50.9527712  45.7611098   3.1709583  51.7725338  45.7243403
   2.4146294  51.6459768  45.8898032   6.7343641  55.3434816  51.1768406
   6.6668141  55.3630775  50.3070993   6.7199303  56.1865143  51.4024077
   6.7222397  55.4708551  51.0820883   4.5202258  54.1179202  49.4515001
   5.0710180  53.4847271  49.6912093   4.5046374  54.6494595  50.1430505
   4.5987455  54.1028150  49.5893859   3.4509731  57.2634733  52.6964131
   3.5092855  57.7121382  53.4424107   2.8176199  57.6733546  52.2594211
   3.3661026  57.3908468  52.7416679   2.4036598  52.0652478  48.7359080
   2.1646367  52.0248312  47.8979865   2.5670499  52.9123630  48.8624801
   2.3926901  52.1844563  48.6312562   1.4417942  55.4128838  53.1694675
   2.0335782  56.0526089  53.2012873   1.8776936  54.7151875  53.4586742
   1.5936373  55.4047189  53.2175508   2.2639410  58.7213279  42.2913368
   2.6473016  59.4704635  42.5211465   1.4683524  58.9679099  42.0325357
   2.2033193  58.8682973  42.2870941  11.7557186  69.2984214  44.3843729
  11.7251190  70.1528851  44.5561998  12.3538535  68.9979507  44.9429872
  11.8394344  69.3800711  44.4918531   4.9556871  68.3859865  49.1396659
   4.0994766  68.5468363  49.1905776   5.0024525  67.5151929  49.1601720
   4.8355982  68.2810667  49.1502725   8.2650587  74.6546391  58.7457115
   8.9717355  74.1598421  58.8744050   8.4538523  75.0955472  58.0159773
   8.3978493  74.6464741  58.6566161   4.7922970  78.3447952  40.3319438
   4.4574339  79.0224874  39.8963660   5.3049841  77.9553264  39.7436309
   4.8188552  78.3872531  40.1806229   4.3327262  80.2962221  46.2730549
   4.7166641  80.8649120  45.7335325   4.2686403  79.5711731  45.7936365
   4.3800689  80.2737685  46.1224412   7.8008692  70.4451909  51.7828311
   8.3464652  71.1236996  51.8422280   7.7425568  70.3039370  50.9229892
   7.8724606  70.5243911  51.6640371   9.5773760  71.8736516  42.6562039
   9.4613286  72.6244202  43.0854177  10.3729647  71.6160469  42.9058126
   9.6778350  71.9471363  42.7566130   0.7583506  82.8518564  48.5711519
   1.4020962  83.2931728  48.9607678   1.0839762  82.0471990  48.4841778
   0.9015335  82.7983759  48.6156996   1.4604086  75.8630539  43.9431381
   1.7819927  76.4035746  43.3392689   2.1076183  75.2927311  44.0753671
   1.6030141  75.8589714  43.8738416   3.5105794  67.8646534  44.0265768
   4.2085959  68.0434662  44.5187231   3.8258127  67.3416873  43.4036157
   3.6601131  67.8140306  44.0067778   3.6993729  74.2516979  44.0145559
   4.1387365  73.6434080  44.4600332   3.5498392  73.8724352  43.2431024
   3.7415195  74.1055450  43.9664726   1.1665372  72.8460991  51.2164385
   1.8114375  72.3533434  50.8975333   1.4067149  72.9885778  52.0430463
   1.2975958  72.7938433  51.2913918   3.7051464  75.6915897  50.8671277
   3.9874707  74.8967303  50.6458033   4.4337624  76.1696484  50.8876338
   3.8541028  75.6450494  50.8374292   1.6832658  63.2338931  48.1087042
   1.3535988  63.6850074  47.4390741   1.0077659  63.1555094  48.6560049
   1.5343094  63.2890066  48.0910266   7.3003066  72.6044160  40.9676328
   7.2154361  73.4605127  41.1125897   7.7887449  72.3288484  41.6358487
   7.3591963  72.6901482  41.0878410   8.8909065  59.2224454  46.3536653
   8.5762506  59.9127932  46.7857075   8.3736007  59.1669236  45.6522154
   8.7673536  59.3159342  46.3133602   8.2321499  69.2228955  42.4674063
   7.7032971  69.4388588  43.1271370   8.7546519  69.9165093  42.3875033
   8.2309952  69.3572091  42.5529663  13.6869552  74.7975259  47.8407108
  12.8567255  75.0085903  48.0040524  13.6378804  73.9712314  47.5649392
  13.5576288  74.7064865  47.8244473   1.7479290  77.6279113  50.6755017
   1.2306231  77.2686528  50.0716326   2.4453681  77.1041288  50.6861084
   1.7744871  77.4976801  50.5885276   5.4042882  78.0773927  56.6371190
   5.4926228  77.8900068  57.4849401   5.8332594  77.4311357  56.2376037
   5.4804984  77.9536935  56.7042942   2.9713341  77.3605087  55.6188853
   2.4084176  76.9477697  56.1428514   3.7334365  77.2857993  56.0381996
   3.0007790  77.2882488  55.7581853   4.5798321  69.3657823  39.7450452
   4.8194325  69.5735807  38.9325795   4.9014162  68.5615332  39.8539397
   4.6635479  69.2771925  39.6411005  13.1823510  67.4445660  51.6357529
  12.3451932  67.5147847  51.8705124  13.1511741  67.4470155  50.7631832
  13.0541793  67.4555887  51.5417077   3.9245396  60.7047949  43.3237127
   4.6531556  60.5263904  42.8775283   4.0140288  61.5466029  43.5344305
   4.0452058  60.8031827  43.2890644   7.9053696  71.6401336  47.2269421
   8.6611211  72.0732851  47.2658329   8.0116021  70.9906106  47.8004057
   8.0323867  71.6078820  47.3167446  10.9433867  75.4674613  47.9771824
  10.5069099  75.4711356  48.7330795  10.6096783  76.1480112  47.5451401
  10.8296487  75.5687069  48.0252656   5.5162941  77.5082946  59.3014974
   6.3003358  77.6213794  59.6670716   5.3159536  76.6824083  59.4973660
   5.6028966  77.4029666  59.3849360  10.8631350  62.5088441  50.2201252
  11.5057259  62.5786546  50.8063167  11.1154371  61.8417664  49.7180794
  10.9953482  62.4214790  50.2328531   5.6733334  79.4193048  52.9481430
   4.8748580  79.1792548  53.2055298   6.1219346  79.4707441  53.6948477
   5.6207946  79.3915440  53.0966354  14.0778214  72.1855533  46.8691461
  14.7394648  71.6246202  46.7687369  13.4369626  71.6907564  47.1944152
  14.0807081  72.0291942  46.9023801   4.9655021  75.4825665  39.1772384
   5.3806170  75.1510689  38.4856880   4.1346951  75.2494567  39.0492521
   4.9043030  75.3996921  39.0563232  10.3643044  73.2020916  46.6103450
  10.5998633  73.3466115  45.7830300  10.5132608  73.9663324  47.0034963
  10.4208848  73.3359970  46.5467054  12.1933501  72.0422582  44.4473054
  12.5241718  72.5750222  43.8413148  12.7666589  72.0961469  45.1035005
  12.3267180  72.1292151  44.4550835   4.7334071  73.1653493  60.8401618
   3.9407052  73.4797005  61.0254238   4.8482998  73.3804962  60.0022402
   4.6329482  73.2437330  60.7439953   7.4065390  69.8887484  45.1296634
   7.5012245  70.6276778  45.5836259   6.7824234  69.4604960  45.5631198
   7.3274420  69.9348805  45.2604781   5.6617864  73.0673697  55.7786915
   6.2356726  72.4300941  55.9335478   5.5832668  73.0677779  54.9096572
   5.7351099  72.9738808  55.6733325   7.6588411  71.7336224  38.3633586
   7.5768574  71.8038411  39.2288573   8.2968132  72.2965968  38.1717326
   7.7408249  71.8275195  38.4623535   1.0181583  71.4996962  47.8308112
   0.7600827  70.6668697  47.8039411   1.0730065  71.7254575  46.9900612
   0.9881360  71.4094733  47.7028249   6.0982633  63.6025413  47.9312205
   5.3938959  63.1134598  48.0896124   6.1467607  63.6147887  47.0600649
   6.0012684  63.5315061  47.8251544   3.6589583  67.5258074  53.1765385
   3.2704016  67.1012292  52.5217576   2.9944282  67.7740224  53.6842412
   3.5036511  67.4996795  53.1553253  13.3012853  67.2833079  45.9513215
  13.0449417  66.4713020  45.7611098  14.1442166  67.2910646  45.7243403
  13.3878878  67.1645076  45.8898032   7.4815945  61.2232703  50.6889369
   7.8626457  60.5410874  51.0757244   6.6779229  60.9342305  50.5065034
   7.4192407  61.0799751  50.7193425   4.7628522  71.7556678  41.3742192
   5.5769160  72.0471571  41.2624963   4.6987663  71.1016541  40.8000485
   4.8731261  71.7021873  41.2731029  10.9838012  74.4382675  55.7871768
  10.7476649  73.6070739  55.6683828  11.6281241  74.3868282  56.3726612
  11.0432683  74.3080363  55.8557661   0.6336430  75.2278196  46.5014504
   1.2710377  74.9889943  47.0466298   1.0591501  75.4315355  45.7667665
   0.7912596  75.2229206  46.4731662   1.2739245  70.4480486  40.8389394
   1.6584398  70.2288192  41.5905939   1.0250865  71.2743431  40.9690470
   1.2941318  70.5378632  40.9690470   1.4407785  63.7286901  60.5551978
   1.1261226  64.4986464  60.2921541   1.1197718  63.1657157  59.9704205
   1.3466704  63.7597170  60.4293328  12.0074432  74.2227123  51.8500062
  11.7020249  74.9555180  52.2113378  11.2880648  73.8165053  51.5692848
  11.8561775  74.2708856  51.8613199   3.0157902  75.7050619  48.1808290
   3.0896910  75.5425790  49.0350140   3.8327408  75.8940808  47.9368772
   3.1474260  75.7087361  48.2706316  17.7076225  70.8620124  51.1768406
  17.6400725  70.8816083  50.3070993  17.6931887  71.7050451  51.4024077
  17.6954981  70.9893859  51.0820883   8.1172571  62.2655282  54.5009496
   8.8626163  62.0765092  54.0872921   7.7009876  62.7913520  53.9423352
   8.1657545  62.3157427  54.3574069   1.5562488  78.6685362  42.9121764
   1.8460786  78.2774343  42.1880990   2.2865968  78.8502067  43.3527039
   1.7069372  78.6379175  42.8704571  15.4934842  69.6364510  49.4515001
  16.0442763  69.0032579  49.6912093  15.4778957  70.1679903  50.1430505
  15.5720038  69.6213458  49.5893859   2.1457233  73.4703108  53.9974894
   1.6468926  74.1818875  54.0759783   2.9557457  73.7903774  53.9593057
   2.1913339  73.6229956  54.0031463   9.1963248  67.8760844  48.5619597
   8.8528014  67.1551179  48.9126847   9.2956291  67.6674695  47.7197955
   9.1605291  67.7385047  48.4891277   1.6636359  82.0182134  44.7612606
   2.3160417  81.4858576  44.9903632   0.9661968  81.6650786  45.1480480
   1.6567077  81.8871657  44.8524774   9.6576277  74.3386548  44.1043585
  10.2234310  74.9979758  44.0202128   9.0104181  74.6836246  44.5759987
   9.6455034  74.4868489  44.1616342   6.1282855  77.2825332  43.5280664
   5.8869531  76.5493193  43.1207729   6.3084188  77.8312189  42.8746998
   6.1190479  77.2547723  43.3710887   1.3582176  72.5733892  44.9401587
   1.1624959  73.1808626  44.3461890   1.5816522  71.8801836  44.4593261
   1.3616817  72.5611417  44.7817668   7.7154214  65.7952429  50.4379140
   6.8765314  65.8213708  50.2017403   7.7858581  66.4423164  51.0184487
   7.6022607  65.8948554  50.4888257   6.1623492  62.6937806  45.1706756
   6.8649845  62.4945554  44.6926714   5.8967681  61.9213748  45.4775599
   6.2270124  62.5500772  45.1452198  11.5911737  71.0020415  47.7240382
  11.5045712  71.1575841  48.5775161  11.1362217  71.6458491  47.3499787
  11.5114994  71.1196171  47.7947489   0.9252048  63.9573091  54.2237637
   0.7335245  63.9728225  55.0737060   1.7750644  64.1536765  54.2004291
   1.0227770  63.9887442  54.3460931   5.4637553  68.3231163  46.3465941
   5.2172268  68.2426913  47.1802730   5.7922676  67.5384630  46.1528469
   5.4758797  68.1957428  46.4413464   9.3585602  75.0314522  50.1352723
   9.2199962  75.7295568  50.6401465   8.5785600  74.8763178  49.7788904
   9.2228829  75.1114689  50.1578997   7.6963687  71.3310897  56.3875104
   7.6911726  70.4590714  56.3917531   8.4024681  71.5299066  55.9144560
   7.8008691  71.2314771  56.3182140   1.4234581  71.0587881  55.7588924
   1.5677956  71.6389089  55.1232034   1.7710229  71.4364178  56.4638779
   1.4962042  71.2008585  55.7687919   3.5954498  70.2578050  53.5414056
   2.8477812  70.4509064  53.1362334   3.7496023  69.4323269  53.3038177
   3.5076926  70.1643161  53.4459462  10.8538975  74.3892776  40.8969222
  10.4745784  73.6029914  40.8898511  10.1905221  74.9379633  40.7540866
  10.6997450  74.3537600  40.8750019   3.0215636  79.4205296  53.9034442
   2.9459307  78.7514106  54.4585230   2.9505495  80.1223084  54.4175108
   2.9996243  79.4250203  54.0611290   3.8356275  64.1528600  54.4309460
   4.2928889  64.8852575  54.5582252   3.9112604  63.7295065  55.1896715
   3.9147245  64.1985838  54.5610536   8.3083601  57.3318475  48.3003303
   8.4267169  57.7894939  47.5670605   8.1345777  56.5263737  48.0139520
   8.3002772  57.2812248  48.1504236   3.6785883  77.9406295  44.7358048
   4.4435774  77.6715938  44.4140712   3.5763973  77.4556305  45.4528111
   3.7767379  77.8295859  44.7937876   1.7138653  66.1430704  51.2751284
   0.9234728  65.9622164  51.5968620   2.1099276  65.3657657  51.2581578
   1.6555529  66.0018165  51.3203832   6.2004544  74.9718478  36.7157997
   6.9677529  75.0318603  36.3063849   5.7535853  74.3998920  36.2314316
   6.2477971  74.8955054  36.5835708   7.0982339  73.7773134  49.0010730
   6.4227341  73.5458367  49.5024117   7.1074715  73.1694317  48.3752835
   7.0000844  73.6532060  48.9826882   4.2276483  68.6190963  55.7574783
   4.1635624  69.4800920  55.6294919   4.3673671  68.3022956  54.9570334
   4.2391953  68.6991130  55.6202995   9.0999074  76.6338267  41.2320908
   9.1818911  77.4405253  40.9082358   9.5848816  76.6534226  41.9561681
   9.1836232  76.7558929  41.2907806   2.9095577  71.3123103  49.8990986
   2.4857826  71.5127602  49.1630004   2.7340432  70.4651951  50.0115285
   2.8206458  71.2171884  49.8064676   2.4107271  82.8273616  52.3612443
   2.9003201  82.1284405  52.1788107   1.8391503  82.5297486  52.9488500
   2.3991801  82.6799839  52.4213484   4.7357167  71.1833038  44.2012321
   5.2772712  70.6803419  44.6650942   5.0503726  71.1298232  43.3901807
   4.8621564  71.1012459  44.1496133   8.6074274  75.3935685  61.3139233
   9.4209139  75.1220834  61.4744366   8.4469241  75.0943225  60.5099429
   8.7044223  75.3090611  61.2184639   2.9043616  76.5750389  41.4852349
   2.9736437  75.7164928  41.6245350   3.6832072  76.7922270  41.1571374
   3.0296467  76.4803253  41.4569507   5.8846436  66.0769342  54.2534622
   6.0988406  65.4380256  53.6997976   5.2680335  66.5215166  53.8242483
   5.8251765  66.0479486  54.1085053   7.2951104  78.9988090  45.6988843
   6.9030896  78.6954806  44.9811709   7.4504176  79.8357180  45.5093796
   7.2604694  79.0771927  45.5645340   8.0485524  67.6858407  55.1917929
   7.2362206  67.3784298  55.2731102   8.5075459  67.2057407  55.7560641
   7.9965909  67.5694900  55.2872523   7.4590779  75.5638079  45.6394873
   7.1005434  75.7352722  46.4158906   6.9729490  76.0251285  45.0822872
   7.3349476  75.6577050  45.6720142   5.2761165  59.1869278  49.2421965
   4.4054723  59.1607999  49.1955274   5.5301506  59.0146470  48.4247810
   5.1854725  59.1579422  49.1142101   2.2479144  71.2437245  38.1795108
   2.5371669  72.0202127  38.4538682   2.3350943  70.7325976  38.8809607
   2.3033400  71.2829163  38.3237605   5.1439032  69.0918479  59.9746631
   5.6138663  69.7160595  60.3614505   5.1900912  68.4235454  60.5339846
   5.2206908  69.0853159  60.1146703   2.3010305  61.1975506  50.6995435
   1.7848794  60.5055698  50.8247014   1.7404234  61.8646283  50.6458034
   2.1416819  61.1938764  50.7101501   4.3702539  61.7368466  52.5288288
   3.9834292  61.7617498  53.3101817   3.8835476  61.1710145  52.0762804
   4.2415048  61.6564217  52.5776191   8.6195518  76.4541975  56.5862074
   9.2575239  75.9602171  56.2524530   7.9769610  76.3819376  56.0014301
   8.6189745  76.3700984  56.4504429  10.3452518  68.3031121  51.1527990
   9.9180126  68.2157470  50.3976089   9.7078571  68.4108897  51.7382834
  10.1882126  68.3063781  51.1273431   4.0359680  58.6235452  54.8198547
   4.6652798  59.1595752  54.5419618   4.2045543  58.5312811  55.6712113
   4.1537475  58.6896814  54.9047076   3.8373595  63.4106646  57.0924959
   4.6647025  63.1391795  57.1483573   3.8581441  64.2067488  57.4488777
   3.9626445  63.4886401  57.1540142   8.6749775  77.1461784  53.2267431
   9.4642153  76.7950848  53.3469512   8.8493373  77.9598172  52.9644065
   8.8170056  77.2147641  53.2055299   7.5283599  61.1571340  47.7883849
   7.7333192  61.0893648  48.6340846   7.2010023  61.9630161  47.7205027
   7.5098847  61.2657281  47.9043504   2.2259750  68.4851908  49.5292817
   1.9222888  67.9307897  50.1303225   1.5239171  68.6644118  49.0420851
   2.0775960  68.4296691  49.5462523   1.2825847  65.7952428  44.0937519
   1.5585581  65.0771341  43.6815087   1.8824516  66.3937348  43.8858625
   1.4119112  65.7772799  44.0018280  10.7817287  61.7103105  47.2686615
  10.1691600  62.1973507  47.6540347  10.8781462  61.0346595  47.8124266
  10.7055184  61.6821413  47.4065473   4.7836368  63.4665946  42.3684114
   5.2380114  63.6376506  43.0931959   5.2576413  62.8534056  41.9681890
   4.9204688  63.4016831  42.4157876  14.4242315  72.7820041  52.6964131
  14.4825438  73.2306690  53.4424107  13.7908782  73.1918854  52.2594211
  14.3393610  72.9093776  52.7416679   8.0641409  78.4023583  49.1318877
   7.8661098  78.8914398  48.4375088   7.4429120  78.6064825  49.7103010
   7.9428974  78.5040121  49.1142100   2.1249388  70.1708480  43.4729121
   2.8691433  70.5582756  43.7112071   2.2710084  69.3265905  43.6369609
   2.2559973  70.1038953  43.5323091   4.0428963  61.9658739  48.5060983
   3.1965008  62.1381547  48.3802333   4.0400096  61.1608083  48.8426811
   3.9176113  61.8719768  48.5372110   5.1127264  65.7433953  49.3723041
   4.6387218  65.2175715  49.8828352   5.4845399  65.1963426  48.8037902
   5.0977152  65.5849950  49.3638188  11.3763994  70.8036329  50.7829821
  11.1362217  69.9642744  50.7872248  11.8556001  70.8836496  51.5070595
  11.4116178  70.6917729  50.8904623   7.0410763  66.6370508  42.4348794
   6.5133782  66.7199252  41.7454503   7.5006471  67.3788379  42.4313439
   7.0312614  66.7591170  42.3323490  13.3769181  67.5837786  48.7359080
  13.1378951  67.5433620  47.8979865  13.5403082  68.4308938  48.8624801
  13.3659485  67.7029871  48.6312562   9.9815211  71.9687735  54.6664125
  10.7049410  71.5160262  54.4875145   9.7165174  72.2492401  53.8836453
  10.0496485  71.9438704  54.5242841   6.5947846  75.2074071  41.5658451
   7.3182045  75.6732184  41.4223025   6.1548437  75.2747681  40.8156048
   6.6363538  75.2857908  41.4343233   5.7634001  72.0671614  52.8159140
   5.1490994  71.5229664  53.1107776   6.2801286  71.5535850  52.3364957
   5.7489663  71.9108023  52.7883369   5.0030298  73.1375884  50.5503439
   4.5757906  72.5125602  50.1168874   4.9955242  72.8550806  51.3762446
   4.9389439  73.0028664  50.6083267   6.0613128  60.3402292  54.1742663
   5.5653689  60.5365967  53.4834229   6.8182190  60.7394961  54.0031464
   6.0999953  60.4280026  54.0462799   3.3316008  64.0144638  50.7645973
   3.3558495  63.4804751  50.0758753   3.5827481  63.5061947  51.4271564
   3.3725926  63.8605542  50.7610618   1.7946943  72.3076196  58.2472012
   0.9442573  72.4447911  58.3829657   1.9575070  71.5739975  58.6919714
   1.6930806  72.2190298  58.3327611  12.4150525  70.9314146  53.1694675
  13.0068365  71.5711397  53.2012873  12.8509520  70.2337183  53.4586742
  12.5668956  70.9232497  53.2175508   1.0146942  64.3312644  40.2753753
   1.3362783  63.8515727  39.6213015   1.2773886  65.1412290  40.0844565
   1.1012968  64.3802542  40.1509245   4.2443915  75.3531519  53.7952569
   3.7369006  75.9067366  54.2393200   3.9470561  75.4139809  52.9771344
   4.1248800  75.4437830  53.7401026   6.4106097  63.7184838  52.6377232
   6.8361169  63.2657365  52.0260758   5.7963090  63.1644909  52.9142019
   6.3834743  63.5698814  52.5882257   6.8551695  79.2694776  41.7256513
   6.1381005  79.0955639  41.2603750   7.5058433  79.0347349  41.1931999
   6.8453546  79.2090569  41.5785730   4.8500320  60.1899938  46.0467809
   4.2068638  60.0397584  46.6152947   4.5099727  59.9442283  45.2816914
   4.7045397  60.1312061  46.0170824   9.4399667  68.1459365  45.4697818
   8.7690856  68.6889067  45.3410883  10.1339417  68.6154220  45.2279512
   9.4428534  68.2957636  45.4153345   3.4886400  80.2856077  50.7009576
   3.2652055  79.5274906  51.0693602   2.9996244  80.3154098  49.9790016
   3.3829849  80.1778301  50.6486317   9.6027794  64.6015249  48.3788191
   9.9555404  64.1744971  49.0533990   8.7442596  64.5166092  48.5089267
   9.5277239  64.5259989  48.4983201   7.6011060  67.8650617  52.3273033
   7.5808987  67.6833912  53.1807812   7.6490261  68.7362636  52.3032617
   7.6045701  67.9667155  52.4496328   5.5457390  74.4537809  58.2521510
   5.5053245  73.8087486  57.6666666   6.3580708  74.3974426  58.5646922
   5.6600543  74.3496776  58.2118459   2.1364857  80.5056535  48.1546661
   1.7225256  79.8430665  47.7650502   2.8212231  80.6534394  47.6342355
   2.1763229  80.4297193  48.0203158   5.5030151  79.6646620  48.9070277
   5.1046435  79.7748891  48.1391097   4.8881371  79.8728687  49.4896837
   5.3529041  79.7120188  48.8801576   4.0758053  66.2720768  41.7744417
   3.4822893  66.5937765  41.2228984   4.1133331  65.4261864  41.5665523
   3.9932443  66.1945096  41.6627188  11.0351854  59.7233660  49.3072503
  10.5282719  59.0162800  49.2393681  11.8319288  59.3926849  49.4373580
  11.0779093  59.5706812  49.3171498   6.9515870  66.2300273  45.2046167
   6.7229563  66.2532974  44.3624525   7.2113946  65.4057740  45.3241178
   6.9562058  66.1116353  45.0971365   1.2335098  68.0834746  54.8071267
   0.7214001  67.4755929  55.1656299   1.0614595  68.7991338  55.2745243
   1.1324735  68.0998045  54.9287491  13.2371994  74.2398587  42.2913368
  13.6205600  74.9889943  42.5211465  12.4416107  74.4864407  42.0325357
  13.1765776  74.3868281  42.2870941   5.1104169  66.0058990  57.2473523
   5.6675599  65.7772800  56.6151988   4.7865234  66.7664656  56.9708735
   5.1450579  66.0842827  57.1130020   2.8287286  69.0926644  58.2125530
   3.5798613  69.4078320  58.5265084   3.0209863  68.8905815  57.3859452
   2.9678700  69.1094025  58.1368926   2.0487286  66.9118019  39.8673747
   2.4286250  66.9297648  39.0824861   1.3079882  67.3572008  39.7464594
   1.9956123  66.9799793  39.7337315   9.6772576  65.2200210  45.4549325
   9.6766803  65.0648866  46.3133602   9.4728756  66.0663197  45.3990711
   9.6472354  65.3220831  45.5737265   7.4013428  69.8997712  49.1085532
   7.8967094  69.1820707  49.0689553   6.5913204  69.5968509  48.9940019
   7.3557322  69.7495358  49.0859258   2.8472040  73.7495525  41.2582537
   2.0383362  73.4262199  41.2115846   3.3546949  73.0428747  41.1910785
   2.8021707  73.5976841  41.2412831   9.4665247  72.6501399  51.7962661
   9.8920319  72.1275821  51.2433086   9.1022167  73.2482237  51.2751284
   9.4751850  72.6611626  51.6371671   6.0543847  76.3635663  48.1263818
   6.5255025  77.0775926  48.2953804   6.3904025  75.7634414  48.6623688
   6.1738962  76.3807128  48.2296194   8.1420831  77.9736977  60.3055891
   8.2517797  77.1845537  60.6612638   8.4711728  77.8842913  59.5030229
   8.2073237  77.8442830  60.2398281   2.9713341  61.1363134  55.0821913
   3.1041247  60.3394127  55.4102889   3.3558494  61.6629537  55.6620189
   3.0469670  61.0963051  55.2165416   6.6917793  76.1553598  54.8891511
   6.1438739  75.5311481  54.6211576   7.1530822  76.3447870  54.1735591
   6.6785002  76.0912648  54.7441942   6.0445697  58.0593460  51.6803007
   5.2391660  57.9491190  51.9970845   5.9152432  58.1605916  50.8232872
   5.9065830  58.0577130  51.6011047   9.5011657  64.2238952  52.2742703
   8.9174646  64.7248159  51.8620271   9.8215951  63.7168508  51.6407027
   9.4624833  64.2230787  52.1201211   2.0406456  63.1379547  42.5501378
   2.8622151  63.3077860  42.3083073   1.5776107  63.2926808  41.8267676
   2.0937619  63.1861280  42.4073023   0.6301788  61.1322309  53.3299807
   1.1746201  60.7913436  53.9204149   0.6838724  61.9907771  53.4721092
   0.7190908  61.2077568  53.4381680   6.2576119  77.1604670  51.4200852
   7.0774493  77.0167636  51.6817147   5.9770197  77.7850869  51.9617290
   6.3372863  77.2315022  51.5388792  15.9289454  83.9045173  49.1396659
  15.0727350  84.0653671  49.1905776  15.9757108  83.0337237  49.1601720
  15.8088566  83.7995975  49.1502725  10.3130594  93.4407891  44.9033891
   9.5613494  93.0623429  44.6749936  10.7616606  93.4726325  44.1552701
  10.2680261  93.3893498  44.7591393  19.2383171  90.1731699  58.7457115
  19.9449938  89.6783729  58.8744050  19.4271106  90.6140780  58.0159773
  19.3711077  90.1650049  58.6566161  15.7655554  93.8633260  40.3319438
  15.4306922  94.5410182  39.8963660  16.2782424  93.4738572  39.7436309
  15.7921135  93.9057839  40.1806229  15.3059845  95.8147529  46.2730549
  15.6899225  96.3834428  45.7335325  15.2418986  95.0897039  45.7936365
  15.3533272  95.7922993  46.1224412  18.7741275  85.9637217  51.7828311
  19.3197235  86.6422304  51.8422280  18.7158152  85.8224678  50.9229892
  18.8457190  86.0429219  51.6640371  11.8915350  93.4526283  47.1696663
  11.9925713  92.6426637  47.4793791  11.2957096  93.3583229  46.5396342
  11.8187889  93.3191311  47.1222902  11.7316090  98.3703872  48.5711519
  12.3753545  98.8117036  48.9607678  12.0572345  97.5657298  48.4841778
  11.8747919  98.3169067  48.6156996   5.0880395  89.4746570  46.7948997
   4.8530579  88.6414222  46.6881266   5.2266035  89.7551235  45.9810198
   5.0736057  89.3930073  46.6591352   7.3870482  81.6432300  49.6933305
   6.7675514  81.0524947  49.5243319   7.2854346  82.2343735  49.0597628
   7.2808158  81.6436383  49.5738294  12.4336670  91.3815847  43.9431381
  12.7552511  91.9221054  43.3392689  13.0808766  90.8112618  44.0753671
  12.5762725  91.3775022  43.8738416  14.4838378  83.3831842  44.0265768
  15.1818542  83.5619970  44.5187231  14.7990710  82.8602181  43.4036157
  14.6333715  83.3325614  44.0067778   7.1139615  85.1884582  51.9376873
   6.9898312  85.7747027  52.5726692   7.7657900  84.6944778  52.2389148
   7.1913264  85.2023386  52.0762803  14.6726313  89.7702287  44.0145559
  15.1119949  89.1619388  44.4600332  14.5230976  89.3909660  43.2431024
  14.7147779  89.6240758  43.9664726  12.1397956  88.3646299  51.2164385
  12.7846959  87.8718742  50.8975333  12.3799733  88.5071085  52.0430463
  12.2708541  88.3123741  51.2913918  14.6784047  91.2101205  50.8671277
  14.9607290  90.4152610  50.6458033  15.4070208  91.6881792  50.8876338
  14.8273611  91.1635802  50.8374292  12.6565241  78.7524239  48.1087042
  12.3268571  79.2035382  47.4390741  11.9810243  78.6740402  48.6560049
  12.5075678  78.8075374  48.0910266  19.8641649  74.7409762  46.3536653
  19.5495090  75.4313240  46.7857075  19.3468591  74.6854544  45.6522154
  19.7406119  74.8344650  46.3133602  24.6602136  90.3160567  47.8407108
  23.8299839  90.5271211  48.0040524  24.6111388  89.4897622  47.5649392
  24.5308871  90.2250173  47.8244473  11.0953691  88.6377479  41.2681531
  10.5110906  89.1427511  41.6747395  10.6923786  88.4119866  40.5278123
  10.9492994  88.6785728  41.2186557   6.6497719  94.3532240  48.0705203
   6.1665297  95.0782730  48.0464787   7.4621037  94.6508370  48.1815361
   6.6988467  94.5034594  48.0832482  12.7211873  93.1464421  50.6755017
  12.2038815  92.7871836  50.0716326  13.4186265  92.6226596  50.6861084
  12.7477454  93.0162109  50.5885276  16.3775465  93.5959235  56.6371190
  16.4658811  93.4085376  57.4849401  16.8065178  92.9496665  56.2376037
  16.4537568  93.4722243  56.7042942  13.9445925  92.8790395  55.6188853
  13.3816760  92.4663005  56.1428514  14.7066949  92.8043301  56.0381996
  13.9740374  92.8067796  55.7581853  15.5530905  84.8843131  39.7450452
  15.7926909  85.0921115  38.9325795  15.8746746  84.0800640  39.8539397
  15.6368063  84.7957233  39.6411005  10.8621195  76.8136527  43.5909990
  11.6167163  77.1814844  43.3527040  10.6848730  77.1876081  44.3589170
  10.9475674  76.9234715  43.6694878   9.5041917  94.8688416  48.2225483
  10.2062496  94.3540405  48.2798239   9.4239400  95.1962568  49.0272358
   9.5965677  94.8402643  48.3498275  24.1556094  82.9630968  51.6357529
  23.3184515  83.0333155  51.8705124  24.1244325  82.9655462  50.7631832
  24.0274376  82.9741195  51.5417077  10.5520823  85.1064003  57.3505898
  10.7241327  84.9969898  58.1991179  11.0890181  85.7518409  57.1137090
  10.6565827  85.1856005  57.4410995   9.2178260  79.2206846  40.2888103
   9.0353833  79.4378727  39.4629096  10.0803873  79.3345859  40.3446717
   9.3182849  79.2696744  40.1742590   8.8292692  91.0594768  47.7311091
   9.6681591  91.2917701  47.7784852   8.8604461  90.1899080  47.6618126
   8.9574410  90.9651715  47.7275736   9.4545395  91.4795644  52.0324396
   9.9943620  91.3366775  52.7027769   8.7715341  91.8792394  52.4008423
   9.4337549  91.5175314  52.1858818  14.8977979  76.2233257  43.3237127
  15.6264140  76.0449212  42.8775283  14.9872872  77.0651337  43.5344305
  15.0184641  76.3217135  43.2890644  18.8786280  87.1586644  47.2269421
  19.6343795  87.5918158  47.2658329  18.9848604  86.5091414  47.8004057
  19.0056450  87.1264128  47.3167446  21.9166451  90.9859921  47.9771824
  21.4801683  90.9896664  48.7330795  21.5829366  91.6665420  47.5451401
  21.8029071  91.0872377  48.0252656  16.4895525  93.0268254  59.3014974
  17.2735941  93.1399102  59.6670716  16.2892119  92.2009391  59.4973660
  16.5761550  92.9214974  59.3849360   4.8582540  87.6995934  52.1858818
   4.5920955  86.8835051  52.3449808   4.8721104  87.7449090  51.3154333
   4.8207262  87.5852839  52.0812300  21.8363934  78.0273749  50.2201252
  22.4789842  78.0971854  50.8063167  22.0886955  77.3602972  49.7180794
  21.9686066  77.9400098  50.2328531   8.7640287  82.4981019  38.8010576
   8.0498464  82.2119198  39.2133009   9.2484256  82.8377645  39.4416963
   8.7299650  82.5062668  38.9566211   9.6081146  81.2374313  54.8325826
   8.9152943  80.7671292  55.0786557  10.2241474  81.0112617  55.4067533
   9.5965676  81.1341444  54.9534978  16.6465918  94.9378356  52.9481430
  15.8481164  94.6977856  53.2055298  17.0951929  94.9892749  53.6948477
  16.5940529  94.9100747  53.0966354  25.0510797  87.7040841  46.8691461
  25.7127231  87.1431510  46.7687369  24.4102209  87.2092872  47.1944152
  25.0539665  87.5477250  46.9023801  15.9387605  91.0010973  39.1772384
  16.3538753  90.6695997  38.4856880  15.1079535  90.7679875  39.0492521
  15.8775614  90.9182229  39.0563232   5.2675954  88.4854714  49.4670562
   5.0851527  88.4601600  48.6142854   6.0025623  88.9553652  49.5059471
   5.3490018  88.5516076  49.3468481  21.3375628  88.7206224  46.6103450
  21.5731217  88.8651423  45.7830300  21.4865191  89.4848632  47.0034963
  21.3941431  88.8545278  46.5467054   8.3321705  85.2039717  55.9752671
   9.0561678  85.1892747  56.4617566   8.4337842  85.9135072  55.4774639
   8.4539914  85.3064420  55.9731458  15.7066655  88.6838801  60.8401618
  14.9139636  88.9982313  61.0254238  15.8215582  88.8990270  60.0022402
  15.6062065  88.7622638  60.7439953  18.3797974  85.4072792  45.1296634
  18.4744828  86.1462086  45.5836259  17.7556817  84.9790268  45.5631198
  18.3007004  85.4534113  45.2604781  16.6350448  88.5859005  55.7786915
  17.2089309  87.9486249  55.9335478  16.5565251  88.5863087  54.9096572
  16.7083682  88.4924116  55.6733325   5.2346864  85.3648214  49.6169629
   5.8120367  85.2284665  50.2561874   4.5360926  84.9083999  49.8715213
   5.2167885  85.2770481  49.7491918  18.6320995  87.2521532  38.3633586
  18.5501158  87.3223719  39.2288573  19.2700715  87.8151276  38.1717326
  18.7140832  87.3460503  38.4623535  11.9914166  87.0182270  47.8308112
  11.7333410  86.1854005  47.8039411  12.0462649  87.2439883  46.9900612
  11.9613944  86.9280041  47.7028249  17.0715216  79.1210721  47.9312205
  16.3671543  78.6319906  48.0896124  17.1200191  79.1333195  47.0600649
  16.9745268  79.0500369  47.8251544  10.9648878  84.5720033  48.3173007
  10.3898470  84.7312201  48.9536968  10.5884555  83.9355442  47.8541457
  10.8251691  84.5017845  48.3427565  14.6322167  83.0443382  53.1765385
  14.2436600  82.6197600  52.5217576  13.9676865  83.2925531  53.6842412
  14.4769095  83.0182103  53.1553253  24.2745436  82.8018386  45.9513215
  24.0182001  81.9898328  45.7611098  25.1174750  82.8095954  45.7243403
  24.3611462  82.6830384  45.8898032   0.7105697  84.2160107  46.3317447
   0.7965949  83.8391976  47.1130977   1.3381495  83.8420553  45.8537406
   0.8162248  84.1045589  46.3762925  18.4548529  76.7418011  50.6889369
  18.8359040  76.0596182  51.0757244  17.6511813  76.4527613  50.5065034
  18.3924990  76.5985059  50.7193425  15.7361105  87.2741986  41.3742192
  16.5501744  87.5656879  41.2624963  15.6720246  86.6201849  40.8000485
  15.8463844  87.2207181  41.2731029  21.9570595  89.9567983  55.7871768
  21.7209233  89.1256047  55.6683828  22.6013824  89.9053590  56.3726612
  22.0165266  89.8265670  55.8557661  11.6069013  90.7463504  46.5014504
  12.2442960  90.5075251  47.0466298  12.0324085  90.9500663  45.7667665
  11.7645180  90.7414514  46.4731662   6.2981656  92.9851840  50.3848808
   6.3385801  93.2566691  49.5568588   6.8576180  93.5093748  50.8006596
   6.3865002  93.1027595  50.3240696  12.2471829  85.9665794  40.8389394
  12.6316981  85.7473500  41.5905939  11.9983449  86.7928739  40.9690470
  12.2673901  86.0563940  40.9690470  12.4140369  79.2472209  60.5551978
  12.0993810  80.0171772  60.2921541  12.0930301  78.6842465  59.9704205
  12.3199288  79.2782478  60.4293328  22.9807016  89.7412431  51.8500062
  22.6752833  90.4740488  52.2113378  22.2613232  89.3350361  51.5692848
  22.8294358  89.7894164  51.8613199  13.9890485  91.2235926  48.1808290
  14.0629494  91.0611098  49.0350140  14.8059992  91.4126116  47.9368772
  14.1206844  91.2272669  48.2706316   7.7496242  91.5693789  45.2102734
   6.9234360  91.8155526  45.0837013   7.8108233  91.4905870  46.0764792
   7.6370409  91.5938738  45.3191678   9.9672266  77.6362730  46.1698174
   9.0994691  77.7085330  46.2355783  10.2547470  78.4384809  46.3586149
   9.8812014  77.7656877  46.2072941  19.0905155  77.7840590  54.5009496
  19.8358747  77.5950400  54.0872921  18.6742459  78.3098828  53.9423352
  19.1390129  77.8342735  54.3574069  12.5295071  94.1870670  42.9121764
  12.8193370  93.7959651  42.1880990  13.2598552  94.3687374  43.3527039
  12.6801955  94.1564483  42.8704571  13.1189816  88.9888415  53.9974894
  12.6201510  89.7004183  54.0759783  13.9290041  89.3089082  53.9593057
  13.1645923  89.1415264  54.0031463  10.4700987  96.1638052  45.9781914
  10.2501282  95.8735407  46.7708581  10.2495509  95.5053007  45.4499826
  10.4048581  96.0237760  46.0170822   9.3817934  88.2511368  48.2437615
   9.0931183  87.6248840  48.7783343  10.2501282  88.1931656  48.3102296
   9.4678186  88.1498913  48.3328570  20.1695832  83.3946152  48.5619597
  19.8260598  82.6736487  48.9126847  20.2688874  83.1860003  47.7197955
  20.1337875  83.2570355  48.4891277  12.6368942  97.5367442  44.7612606
  13.2893000  97.0043884  44.9903632  11.9394551  97.1836094  45.1480480
  12.6299660  97.4056965  44.8524774   9.5850207  89.8906620  44.1679980
  10.3396175  90.2719659  44.3815443   8.9920820  90.3417763  44.6226677
   9.6086921  90.0135447  44.2662859  12.0456874  81.8469460  59.2937193
  11.2356650  82.1527240  59.1827035  12.5231561  82.5675042  59.4089777
  11.9960353  81.9984061  59.2944264  10.9048434  91.0615181  49.5420096
  10.3829187  91.2015473  50.2271960  11.2922454  90.3025845  49.7322213
  10.8852135  90.9700705  49.6721172   7.8939618  81.1120990  43.6115050
   7.6064414  80.7422260  42.8746998   8.5810086  81.5815845  43.3498755
   7.9528515  81.1267959  43.4630126  17.1015439  92.8010640  43.5280664
  16.8602115  92.0678501  43.1207729  17.2816772  93.3497497  42.8746998
  17.0923063  92.7733031  43.3710887  12.3314760  88.0919200  44.9401587
  12.1357542  88.6993934  44.3461890  12.5549105  87.3987144  44.4593261
  12.3349401  88.0796725  44.7817668  10.7293290  84.9773938  45.0582455
  11.4515941  85.1415096  44.5986261  10.2501282  85.6983603  44.9521795
  10.7657020  85.1072167  44.9748069  18.6886797  81.3137737  50.4379140
  17.8497898  81.3399015  50.2017403  18.7591164  81.9608472  51.0184487
  18.5755191  81.4133862  50.4888257   8.3800906  87.3832010  54.1636595
   8.8922003  87.6616263  53.5145355   8.0937249  88.1221304  54.5299408
   8.4135769  87.5334364  54.1226473  17.1356075  78.2123114  45.1706756
  17.8382428  78.0130862  44.6926714  16.8700264  77.4399056  45.4775599
  17.2002708  78.0686080  45.1452198  22.5644321  86.5205723  47.7240382
  22.4778295  86.6761149  48.5775161  22.1094801  87.1643799  47.3499787
  22.4847578  86.6381478  47.7947489   5.4667813  81.8902202  44.4600331
   5.5683949  82.6928363  44.7881307   6.2623699  81.6889538  44.1623412
   5.5995718  81.9788101  44.4635687  11.8984632  79.4758399  54.2237637
  11.7067829  79.4913533  55.0737060  12.7483228  79.6722073  54.2004291
  11.9960354  79.5072750  54.3460931   6.2831545  82.0049380  52.2021453
   6.1417036  81.1533321  52.3265961   6.5672108  82.0478041  51.3783659
   6.3039391  81.8849130  52.0989077  16.4370137  83.8416470  46.3465941
  16.1904851  83.7612221  47.1802730  16.7655260  83.0569938  46.1528469
  16.4491381  83.7142736  46.4413464  20.3318186  90.5499830  50.1352723
  20.1932545  91.2480876  50.6401465  19.5518184  90.3948486  49.7788904
  20.1961413  90.6299996  50.1578997  18.6696271  86.8496205  56.3875104
  18.6644309  85.9776022  56.3917531  19.3757265  87.0484374  55.9144560
  18.7741275  86.7500079  56.3182140  12.3967164  86.5773189  55.7588924
  12.5410540  87.1574397  55.1232034  12.7442813  86.9549486  56.4638779
  12.4694626  86.7193893  55.7687919  14.5687082  85.7763357  53.5414056
  13.8210396  85.9694372  53.1362334  14.7228607  84.9508577  53.3038177
  14.4809509  85.6828469  53.4459462  11.4694919  94.7675961  52.6249951
  11.6184483  94.2078877  51.9723356  12.2494921  94.8467963  53.0082470
  11.6069013  94.6961526  52.5846900  13.9948220  94.9390604  53.9034442
  13.9191891  94.2699414  54.4585230  13.9238079  95.6408392  54.4175108
  13.9728827  94.9435511  54.0611290  14.8088859  79.6713908  54.4309460
  15.2661473  80.4037882  54.5582252  14.8845187  79.2480373  55.1896715
  14.8879829  79.7171146  54.5610536   7.0521850  79.9179728  55.5198903
   6.5164039  79.3060086  55.8359671   7.1139615  80.4927864  56.1732570
   6.9817483  79.9126656  55.6634330  19.2816185  72.8503783  48.3003303
  19.3999753  73.3080247  47.5670605  19.1078360  72.0449045  48.0139520
  19.2735356  72.7997555  48.1504236  14.6518467  93.4591603  44.7358048
  15.4168358  93.1901246  44.4140712  14.5496557  92.9741613  45.4528111
  14.7499962  93.3481167  44.7937876  12.6871237  81.6616012  51.2751284
  11.8967311  81.4807472  51.5968620  13.0831859  80.8842965  51.2581578
  12.6288113  81.5203473  51.3203832  17.1737127  90.4903786  36.7157997
  17.9410112  90.5503911  36.3063849  16.7268436  89.9184228  36.2314316
  17.2210555  90.4140362  36.5835708  18.0714923  89.2958442  49.0010730
  17.3959925  89.0643674  49.5024117  18.0807299  88.6879625  48.3752835
  17.9733427  89.1717367  48.9826882  15.2009067  84.1376271  55.7574783
  15.1368208  84.9986228  55.6294919  15.3406255  83.8208264  54.9570334
  15.2124537  84.2176438  55.6202995  20.0731657  92.1523575  41.2320908
  20.1551495  92.9590561  40.9082358  20.5581400  92.1719534  41.9561681
  20.1568815  92.2744237  41.2907806  13.8828161  86.8308411  49.8990986
  13.4590410  87.0312910  49.1630004  13.7073016  85.9837259  50.0115285
  13.7939041  86.7357192  49.8064676  13.3839854  98.3458924  52.3612443
  13.8735785  97.6469713  52.1788107  12.8124086  98.0482794  52.9488500
  13.3724384  98.1985147  52.4213484   9.1710606  87.3260462  45.3318958
   9.3275225  87.2607265  46.1874950   9.5111199  88.1009015  45.1197638
   9.2443841  87.4309660  45.4273552  15.7089750  86.7018346  44.2012321
  16.2505296  86.1988727  44.6650942  16.0236309  86.6483540  43.3901807
  15.8354147  86.6197766  44.1496133  19.5806858  90.9120993  61.3139233
  20.3941723  90.6406142  61.4744366  19.4201824  90.6128533  60.5099429
  19.6776806  90.8275919  61.2184639  13.8776200  92.0935697  41.4852349
  13.9469020  91.2350236  41.6245350  14.6564655  92.3107578  41.1571374
  14.0029050  91.9988561  41.4569507  16.8579020  81.5954650  54.2534622
  17.0720989  80.9565564  53.6997976  16.2412919  82.0400474  53.8242483
  16.7984349  81.5664794  54.1085053  18.2683688  94.5173398  45.6988843
  17.8763479  94.2140114  44.9811709  18.4236760  95.3542488  45.5093796
  18.2337277  94.5957235  45.5645340   5.7444867  84.5095412  45.6479725
   6.1243832  84.9279957  44.9839993   5.1700232  85.0908868  45.9548569
   5.7156192  84.6573271  45.5956466  19.0218108  83.2043715  55.1917929
  18.2094789  82.8969606  55.2731102  19.4808042  82.7242715  55.7560641
  18.9698492  83.0880208  55.2872523  18.4323362  91.0823387  45.6394873
  18.0738017  91.2538030  46.4158906  17.9462073  91.5436593  45.0822872
  18.3082059  91.1762358  45.6720142  16.2493748  74.7054586  49.2421965
  15.3787306  74.6793307  49.1955274  16.5034090  74.5331778  48.4247810
  16.1587308  74.6764729  49.1142101  13.2211728  86.7622553  38.1795108
  13.5104253  87.5387435  38.4538682  13.3083527  86.2511284  38.8809607
  13.2765984  86.8014471  38.3237605  16.1171615  84.6103787  59.9746631
  16.5871246  85.2345903  60.3614505  16.1633495  83.9420762  60.5339846
  16.1939491  84.6038467  60.1146703  13.2742889  76.7160814  50.6995435
  12.7581377  76.0241006  50.8247014  12.7136818  77.3831591  50.6458034
  13.1149402  76.7124072  50.7101501  15.3435122  77.2553774  52.5288288
  14.9566875  77.2802806  53.3101817  14.8568060  76.6895453  52.0762804
  15.2147631  77.1749525  52.5776191  19.5928102  91.9727283  56.5862074
  20.2307822  91.4787479  56.2524530  18.9502193  91.9004684  56.0014301
  19.5922328  91.8886292  56.4504429  21.3185102  83.8216429  51.1527990
  20.8912710  83.7342778  50.3976089  20.6811155  83.9294205  51.7382834
  21.1614709  83.8249089  51.1273431  15.0092264  74.1420760  54.8198547
  15.6385382  74.6781060  54.5419618  15.1778127  74.0498119  55.6712113
  15.1270059  74.2082122  54.9047076  14.8106179  78.9291954  57.0924959
  15.6379608  78.6577103  57.1483573  14.8314025  79.7252796  57.4488777
  14.9359029  79.0071709  57.1540142  19.6482358  92.6647091  53.2267431
  20.4374737  92.3136156  53.3469512  19.8225956  93.4783480  52.9644065
  19.7902640  92.7332949  53.2055299   9.3875669  86.0755817  50.2795220
   8.5463675  85.9759691  50.4874113   9.5965677  86.8451297  50.6309540
   9.2940361  86.1747861  50.3622535   6.8651236  83.6975354  48.1079970
   6.4707933  83.7718366  47.3330080   6.3091353  84.0833301  48.6588332
   6.7254048  83.7657129  48.0747630  18.5016183  76.6756648  47.7883849
  18.7065776  76.6078956  48.6340846  18.1742606  77.4815469  47.7205027
  18.4831430  76.7842589  47.9043504  13.1992334  84.0037216  49.5292817
  12.8955471  83.4493205  50.1303225  12.4971754  84.1829426  49.0420851
  13.0508543  83.9481999  49.5462523  12.2558431  81.3137736  44.0937519
  12.5318165  80.5956649  43.6815087  12.8557100  81.9122656  43.8858625
  12.3851695  81.2958107  44.0018280  11.2610685  91.2186937  54.2364915
  11.1531040  91.2288999  55.1026973  11.4706466  92.0441718  54.0469869
  11.2760796  91.3428012  54.3369007  21.7549870  77.2288412  47.2686615
  21.1424184  77.7158815  47.6540347  21.8514045  76.5531903  47.8124266
  21.6787768  77.2006721  47.4065473  15.7568951  78.9851254  42.3684114
  16.2112698  79.1561814  43.0931959  16.2308997  78.3719364  41.9681890
  15.8937271  78.9202139  42.4157876   9.2784477  88.4699580  51.6986853
   8.6872410  89.1109078  51.6689868  10.0405500  88.8937197  51.6718152
   9.3032737  88.6275418  51.6902000   9.6745099  79.6301577  52.3654870
  10.1346581  79.7040507  53.1029994   9.7201206  80.4282831  52.0154692
   9.7495655  79.7595724  52.4227627  11.3228449  80.2968272  56.9326897
  10.9314014  79.6501619  57.3682675  11.4914312  80.8879707  57.5521153
  11.2899359  80.2882540  57.0889603  25.3974898  88.3005349  52.6964131
  25.4558022  88.7491998  53.4424107  24.7641366  88.7104162  52.2594211
  25.3126193  88.4279084  52.7416679  19.0373993  93.9208891  49.1318877
  18.8393682  94.4099706  48.4375088  18.4161704  94.1250133  49.7103010
  18.9161557  94.0225429  49.1142100  13.0981971  85.6893788  43.4729121
  13.8424016  86.0768064  43.7112071  13.2442667  84.8451213  43.6369609
  13.2292556  85.6224261  43.5323091  15.0161547  77.4844047  48.5060983
  14.1697592  77.6566855  48.3802333  15.0132679  76.6793391  48.8426811
  14.8908697  77.3905076  48.5372110  16.0859847  81.2619261  49.3723041
  15.6119801  80.7361023  49.8828352  16.4577983  80.7148734  48.8037902
  16.0709736  81.1035258  49.3638188   6.4632877  83.2590768  54.7406586
   7.3258490  83.1586477  54.6543916   6.1324660  82.6785477  54.1792159
   6.5418074  83.1582395  54.6451992  22.3496578  86.3221637  50.7829821
  22.1094801  85.4828052  50.7872248  22.8288585  86.4021804  51.5070595
  22.3848761  86.2103037  50.8904623  24.3501765  83.1023094  48.7359080
  24.1111535  83.0618928  47.8979865  24.5135666  83.9494246  48.8624801
  24.3392068  83.2215179  48.6312562  20.9547795  87.4873043  54.6664125
  21.6781994  87.0345570  54.4875145  20.6897757  87.7677709  53.8836453
  21.0229068  87.4624012  54.5242841   9.8234663  82.0833217  51.4017005
   9.1987733  82.0951609  50.7942957   9.4880258  82.5593392  52.0508245
   9.6820155  82.1551734  51.4073573  10.0076412  80.4258335  37.4589690
   9.6589216  81.0778061  37.9221239   9.5272858  80.4115448  36.7313561
   9.8846656  80.5201389  37.4200781   6.5360339  90.1433677  52.8420769
   6.0060263  89.4526116  52.8915744   6.8085432  90.1343862  52.0133477
   6.4985061  90.0400809  52.7268185  17.5680429  90.7259379  41.5658451
  18.2914628  91.1917492  41.4223025  17.1281020  90.7932989  40.8156048
  17.6096121  90.8043216  41.4343233  16.7366584  87.5856922  52.8159140
  16.1223577  87.0414972  53.1107776  17.2533869  87.0721158  52.3364957
  16.7222247  87.4293331  52.7883369  15.9762881  88.6561192  50.5503439
  15.5490490  88.0310910  50.1168874  15.9687826  88.3736114  51.3762446
  15.9122023  88.5213972  50.6083267   9.0925409  83.6926365  53.6191873
   9.2518895  82.9369689  54.0243595   8.9118302  84.2417304  54.2732611
   9.0890768  83.6620178  53.7754579  17.0345712  75.8587600  54.1742663
  16.5386273  76.0551275  53.4834229  17.7914774  76.2580269  54.0031464
  17.0732536  75.9465334  54.0462799  14.3048591  79.5329946  50.7645973
  14.3291078  78.9990059  50.0758753  14.5560065  79.0247255  51.4271564
  14.3458510  79.3790850  50.7610618   1.8156181  86.8161441  50.1989117
   1.7099630  86.7708286  49.3341201   1.0656401  87.1615222  50.4803402
   1.6891784  86.8602349  50.1126447  10.5849913  78.2600764  50.1451717
  10.6248285  78.7609971  50.8586425   9.7599578  78.3511158  49.8757640
  10.4689439  78.3482581  50.2102256  12.7679526  87.8261504  58.2472012
  11.9175157  87.9633219  58.3829657  12.9307654  87.0925283  58.6919714
  12.6663390  87.7375606  58.3327611  12.0064277  84.7761274  52.4425616
  11.1756206  84.9435092  52.2360865  11.9515794  84.3997225  53.2274502
  11.8753692  84.7451006  52.5274145   9.8148060  78.2670167  58.0782027
  10.4400763  77.7232300  58.3511459   9.3598540  77.7865085  57.5089817
   9.8396321  78.1159649  58.0343621  10.3800321  83.0516866  42.9715734
  10.5203282  83.5489330  43.6744375  10.8782853  82.3503160  43.1129948
  10.4741402  83.0218845  43.0967313  10.4100543  83.9183977  40.3008311
  11.0445622  84.5144402  40.2357773  10.4926154  83.6187434  41.1154181
  10.5157094  83.9624885  40.4111398  23.3883109  86.4499454  53.1694675
  23.9800949  87.0896705  53.2012873  23.8242103  85.7522491  53.4586742
  23.5401540  86.4417805  53.2175508  11.9879526  79.8497952  40.2753753
  12.3095367  79.3701035  39.6213015  12.2506470  80.6597598  40.0844565
  12.0745551  79.8987850  40.1509245  15.2176499  90.8716827  53.7952569
  14.7101590  91.4252673  54.2393200  14.9203145  90.9325116  52.9771344
  15.0981384  90.9623138  53.7401026  17.3838681  79.2370146  52.6377232
  17.8093752  78.7842673  52.0260758  16.7695674  78.6830217  52.9142019
  17.3567326  79.0884122  52.5882257   6.9153531  86.1151818  43.5697857
   7.4245760  86.7116325  43.9509162   7.3887803  85.8477791  42.8874277
   7.0596907  86.1637633  43.5252380  17.8284279  94.7880084  41.7256513
  17.1113589  94.6140947  41.2603750  18.4791017  94.5532657  41.1931999
  17.8186129  94.7275877  41.5785730  15.8232904  75.7085246  46.0467809
  15.1801222  75.5582892  46.6152947  15.4832311  75.4627591  45.2816914
  15.6777981  75.6497368  46.0170824  14.4618984  95.8041385  50.7009576
  14.2384638  95.0460214  51.0693602  13.9728827  95.8339406  49.9790016
  14.3562433  95.6963609  50.6486317  20.5760378  80.1200556  48.3788191
  20.9287988  79.6930279  49.0533990  19.7175179  80.0351400  48.5089267
  20.5009822  80.0445297  48.4983201   9.2744063  82.7508076  46.4371037
   8.5556052  83.1672209  46.7043901   9.6456425  83.3162315  45.8862676
   9.2235994  82.8957358  46.3953844  18.5743643  83.3835925  52.3273033
  18.5541571  83.2019220  53.1807812  18.6222844  84.2547944  52.3032617
  18.5778284  83.4852463  52.4496328  16.5189973  89.9723117  58.2521510
  16.4785828  89.3272794  57.6666666  17.3313292  89.9159734  58.5646922
  16.6333127  89.8682084  58.2118459  13.1097441  96.0241843  48.1546661
  12.6957839  95.3615973  47.7650502  13.7944815  96.1719702  47.6342355
  13.1495813  95.9482501  48.0203158  16.4762735  95.1831928  48.9070277
  16.0779018  95.2934199  48.1391097  15.8613955  95.3913995  49.4896837
  16.3261624  95.2305496  48.8801576  15.0490637  81.7906076  41.7744417
  14.4555476  82.1123073  41.2228984  15.0865915  80.9447171  41.5665523
  14.9665026  81.7130404  41.6627188  22.0084438  75.2418968  49.3072503
  21.5015302  74.5348108  49.2393681  22.8051871  74.9112157  49.4373580
  22.0511677  75.0892120  49.3171498  17.9248454  81.7485581  45.2046167
  17.6962147  81.7718282  44.3624525  18.1846530  80.9243048  45.3241178
  17.9294642  81.6301660  45.0971365  12.2067682  83.6020054  54.8071267
  11.6946585  82.9941237  55.1656299  12.0347178  84.3176646  55.2745243
  12.1057319  83.6183353  54.9287491   7.0533397  82.0457629  57.4573629
   6.8835987  82.7059004  56.9121836   6.6099347  82.2564190  58.1786118
   6.9632730  82.1743611  57.4835259  10.9793216  80.2862127  46.5000363
  11.4550582  80.6479207  45.8650544  10.4781816  80.9418594  46.7800505
  10.9758575  80.4356316  46.4477104  16.0836752  81.5244298  57.2473523
  16.6408182  81.2958108  56.6151988  15.7597817  82.2849964  56.9708735
  16.1183163  81.6028135  57.1130020   3.9535461  84.9504494  52.7162119
   3.4062181  84.2805140  52.8342987   4.7427839  84.5834342  52.7805586
   3.9887645  84.7969481  52.7430819  13.8019870  84.6111952  58.2125530
  14.5531197  84.9263628  58.5265084  13.9942446  84.4091122  57.3859452
  13.9411284  84.6279333  58.1368926  13.0219869  82.4303327  39.8673747
  13.4018834  82.4482956  39.0824861  12.2812465  82.8757315  39.7464594
  12.9688707  82.4985101  39.7337315   2.7122431  84.1625302  49.8708142
   2.5344192  83.7101911  50.5963058   2.4241453  84.9651464  50.0546619
   2.6435384  84.2147860  50.0051645  18.3746012  85.4183020  49.1085532
  18.8699677  84.7006015  49.0689553  17.5645788  85.1153817  48.9940019
  18.3289905  85.2680666  49.0859258  13.8204623  89.2680833  41.2582537
  13.0115946  88.9447506  41.2115846  14.3279532  88.5614055  41.1910785
  13.7754290  89.1162149  41.2412831   4.4494901  86.6953026  46.9829901
   3.5840420  86.6838716  46.8712672   4.5493716  86.5083249  47.8301040
   4.3369068  86.6659087  47.0918845  20.4397831  88.1686707  51.7962661
  20.8652902  87.6461129  51.2433086  20.0754751  88.7667545  51.2751284
  20.4484433  88.1796934  51.6371671  10.0751910  96.4650925  50.5560007
  10.3898469  97.2787313  50.5637788  10.4845324  96.0801143  51.2242166
  10.1820008  96.5279627  50.6564098  17.0276430  91.8820971  48.1263818
  17.4987608  92.5961234  48.2953804  17.3636609  91.2819722  48.6623688
  17.1471545  91.8992436  48.2296194  19.1153415  93.4922285  60.3055891
  19.2250380  92.7030845  60.6612638  19.4444311  93.4028221  59.5030229
  19.1805820  93.3628138  60.2398281  13.9445925  76.6548442  55.0821913
  14.0773831  75.8579435  55.4102889  14.3291078  77.1814845  55.6620189
  14.0202254  76.6148359  55.2165416  17.6650376  91.6738906  54.8891511
  17.1171322  91.0496789  54.6211576  18.1263405  91.8633178  54.1735591
  17.6517586  91.6097956  54.7441942  17.0178280  73.5778768  51.6803007
  16.2124244  73.4676498  51.9970845  16.8885016  73.6791224  50.8232872
  16.8798413  73.5762438  51.6011047  20.4744241  79.7424260  52.2742703
  19.8907230  80.2433467  51.8620271  20.7948535  79.2353816  51.6407027
  20.4357416  79.7416095  52.1201211  13.0139040  78.6564855  42.5501378
  13.8354734  78.8263168  42.3083073  12.5508691  78.8112116  41.8267676
  13.0670202  78.7046588  42.4073023  11.6034372  76.6507617  53.3299807
  12.1478785  76.3098744  53.9204149  11.6571308  77.5093079  53.4721092
  11.6923491  76.7262876  53.4381680   7.4164931  90.4124033  50.2038615
   8.0209788  90.3719867  49.5752436   7.2092243  91.2595185  50.2342671
   7.4753828  90.5312036  50.1154731  17.2308703  92.6789978  51.4200852
  18.0507077  92.5352944  51.6817147  16.9502780  93.3036177  51.9617290
  17.3105446  92.7500330  51.5388792   2.6516213  89.3958651  50.0737538
   2.5540491  88.5854922  50.3827595   3.4345083  89.3750444  49.6883806
   2.7532349  89.2725741  50.0624401  33.7022353 100.3354830  44.3843729
  33.6716357 101.1899467  44.5561998  34.3003702 100.0350123  44.9429872
  33.7859511 100.4171327  44.4918531  26.9022038  99.4230481  49.1396659
  26.0459933  99.5838979  49.1905776  26.9489692  98.5522545  49.1601720
  26.7821149  99.3181283  49.1502725  21.2863178 108.9593199  44.9033891
  20.5346077 108.5808737  44.6749936  21.7349189 108.9911632  44.1552701
  21.2412844 108.9078806  44.7591393  30.2115754 105.6917007  58.7457115
  30.9182522 105.1969037  58.8744050  30.4003690 106.1326088  58.0159773
  30.3443660 105.6835357  58.6566161  26.7388138 109.3818568  40.3319438
  26.4039506 110.0595490  39.8963660  27.2515008 108.9923880  39.7436309
  26.7653719 109.4243147  40.1806229  26.2792429 111.3332837  46.2730549
  26.6631808 111.9019736  45.7335325  26.2151570 110.6082347  45.7936365
  26.3265856 111.3108300  46.1224412  29.7473859 101.4822525  51.7828311
  30.2929819 102.1607611  51.8422280  29.6890735 101.3409986  50.9229892
  29.8189773 101.5614527  51.6640371  22.8647934 108.9711591  47.1696663
  22.9658297 108.1611945  47.4793791  22.2689679 108.8768537  46.5396342
  22.7920472 108.8376619  47.1222902  31.5238928 102.9107132  42.6562039
  31.4078454 103.6614818  43.0854177  32.3194814 102.6531085  42.9058126
  31.6243517 102.9841979  42.7566130  22.7048673 113.8889180  48.5711519
  23.3486129 114.3302344  48.9607678  23.0304929 113.0842606  48.4841778
  22.8480502 113.8354375  48.6156996  16.0612978 104.9931878  46.7948997
  15.8263163 104.1599530  46.6881266  16.1998619 105.2736543  45.9810198
  16.0468641 104.9115381  46.6591352  18.3603066  97.1617608  49.6933305
  17.7408097  96.5710255  49.5243319  18.2586929  97.7529043  49.0597628
  18.2540741  97.1621691  49.5738294  23.4069253 106.9001155  43.9431381
  23.7285094 107.4406362  43.3392689  24.0541350 106.3297926  44.0753671
  23.5495308 106.8960330  43.8738416  25.4570961  98.9017150  44.0265768
  26.1551126  99.0805277  44.5187231  25.7723294  98.3787489  43.4036157
  25.6066298  98.8510922  44.0067778  18.0872199 100.7069890  51.9376873
  17.9630895 101.2932335  52.5726692  18.7390483 100.2130086  52.2389148
  18.1645848 100.7208694  52.0762803  25.6458897 105.2887595  44.0145559
  26.0852532 104.6804695  44.4600332  25.4963559 104.9094968  43.2431024
  25.6880362 105.1426066  43.9664726  23.1130540 103.8831607  51.2164385
  23.7579542 103.3904050  50.8975333  23.3532317 104.0256393  52.0430463
  23.2441125 103.8309049  51.2913918  25.6516631 106.7286513  50.8671277
  25.9339874 105.9337918  50.6458033  26.3802791 107.2067100  50.8876338
  25.8006195 106.6821110  50.8374292  23.6297825  94.2709547  48.1087042
  23.3001155  94.7220690  47.4390741  22.9542827  94.1925710  48.6560049
  23.4808261  94.3260682  48.0910266  29.2468233 103.6414776  40.9676328
  29.1619528 104.4975743  41.1125897  29.7352616 103.3659100  41.6358487
  29.3057130 103.7272098  41.0878410  30.8374233  90.2595069  46.3536653
  30.5227674  90.9498548  46.7857075  30.3201174  90.2039852  45.6522154
  30.7138703  90.3529958  46.3133602  30.1786666 100.2599570  42.4674063
  29.6498138 100.4759204  43.1271370  30.7011686 100.9535709  42.3875033
  30.1775119 100.3942707  42.5529663  35.6334719 105.8345875  47.8407108
  34.8032422 106.0456519  48.0040524  35.5843972 105.0082929  47.5649392
  35.5041455 105.7435481  47.8244473  22.0686274 104.1562787  41.2681531
  21.4843489 104.6612819  41.6747395  21.6656369 103.9305174  40.5278123
  21.9225578 104.1971036  41.2186557  17.6230303 109.8717548  48.0705203
  17.1397881 110.5968038  48.0464787  18.4353621 110.1693678  48.1815361
  17.6721051 110.0219902  48.0832482  23.6944457 108.6649729  50.6755017
  23.1771399 108.3057144  50.0716326  24.3918848 108.1411903  50.6861084
  23.7210038 108.5347417  50.5885276  27.3508049 109.1144543  56.6371190
  27.4391395 108.9270684  57.4849401  27.7797761 108.4681973  56.2376037
  27.4270151 108.9907551  56.7042942  24.9178509 108.3975703  55.6188853
  24.3549343 107.9848313  56.1428514  25.6799532 108.3228609  56.0381996
  24.9472957 108.3253104  55.7581853  26.5263489 100.4028439  39.7450452
  26.7659492 100.6106423  38.9325795  26.8479330  99.5985948  39.8539397
  26.6100646 100.3142540  39.6411005  21.8353779  92.3321835  43.5909990
  22.5899747  92.7000152  43.3527040  21.6581313  92.7061389  44.3589170
  21.9208257  92.4420023  43.6694878  20.4774500 110.3873724  48.2225483
  21.1795079 109.8725713  48.2798239  20.3971983 110.7147876  49.0272358
  20.5698261 110.3587950  48.3498275  35.1288678  98.4816276  51.6357529
  34.2917099  98.5518463  51.8705124  35.0976909  98.4840770  50.7631832
  35.0006960  98.4926503  51.5417077  21.5253407 100.6249311  57.3505898
  21.6973910 100.5155206  58.1991179  22.0622764 101.2703717  57.1137090
  21.6298411 100.7041313  57.4410995  20.1910844  94.7392154  40.2888103
  20.0086417  94.9564035  39.4629096  21.0536457  94.8531167  40.3446717
  20.2915433  94.7882052  40.1742590  19.8025275 106.5780076  47.7311091
  20.6414175 106.8103009  47.7784852  19.8337045 105.7084388  47.6618126
  19.9306993 106.4837023  47.7275736  20.4277978 106.9980951  52.0324396
  20.9676203 106.8552082  52.7027769  19.7447925 107.3977702  52.4008423
  20.4070132 107.0360622  52.1858818  25.8710563  91.7418565  43.3237127
  26.5996723  91.5634520  42.8775283  25.9605456  92.5836644  43.5344305
  25.9917225  91.8402443  43.2890644  29.8518863 102.6771952  47.2269421
  30.6076378 103.1103466  47.2658329  29.9581188 102.0276722  47.8004057
  29.9789034 102.6449436  47.3167446  32.8899034 106.5045229  47.9771824
  32.4534266 106.5081972  48.7330795  32.5561950 107.1850728  47.5451401
  32.7761654 106.6057685  48.0252656  27.4628108 108.5453562  59.3014974
  28.2468525 108.6584410  59.6670716  27.2624703 107.7194699  59.4973660
  27.5494134 108.4400282  59.3849360  15.8315124 103.2181242  52.1858818
  15.5653539 102.4020359  52.3449808  15.8453688 103.2634398  51.3154333
  15.7939846 103.1038147  52.0812300  32.8096517  93.5459057  50.2201252
  33.4522426  93.6157162  50.8063167  33.0619538  92.8788280  49.7180794
  32.9418650  93.4585406  50.2328531  19.7372871  98.0166327  38.8010576
  19.0231048  97.7304506  39.2133009  20.2216839  98.3562952  39.4416963
  19.7032234  98.0247976  38.9566211  20.5813730  96.7559621  54.8325826
  19.8885527  96.2856600  55.0786557  21.1974057  96.5297925  55.4067533
  20.5698260  96.6526752  54.9534978  27.6198501 110.4563664  52.9481430
  26.8213747 110.2163164  53.2055298  28.0684513 110.5078057  53.6948477
  27.5673113 110.4286055  53.0966354  36.0243381 103.2226149  46.8691461
  36.6859815 102.6616818  46.7687369  35.3834793 102.7278180  47.1944152
  36.0272248 103.0662558  46.9023801  26.9120188 106.5196281  39.1772384
  27.3271337 106.1881304  38.4856880  26.0812118 106.2865183  39.0492521
  26.8508197 106.4367537  39.0563232  16.2408537 104.0040022  49.4670562
  16.0584110 103.9786908  48.6142854  16.9758206 104.4738959  49.5059471
  16.3222601 104.0701384  49.3468481  32.3108211 104.2391532  46.6103450
  32.5463801 104.3836730  45.7830300  32.4597775 105.0033940  47.0034963
  32.3674015 104.3730586  46.5467054  19.3054289 100.7225024  55.9752671
  20.0294261 100.7078055  56.4617566  19.4070425 101.4320380  55.4774639
  19.4272498 100.8249728  55.9731458  34.1398668 103.0793198  44.4473054
  34.4706885 103.6120838  43.8413148  34.7131756 103.1332085  45.1035005
  34.2732347 103.1662766  44.4550835  26.6799238 104.2024109  60.8401618
  25.8872219 104.5167621  61.0254238  26.7948165 104.4175578  60.0022402
  26.5794649 104.2807946  60.7439953  29.3530557 100.9258100  45.1296634
  29.4477412 101.6647394  45.5836259  28.7289401 100.4975576  45.5631198
  29.2739587 100.9719421  45.2604781  27.6083031 104.1044313  55.7786915
  28.1821893 103.4671557  55.9335478  27.5297835 104.1048395  54.9096572
  27.6816266 104.0109424  55.6733325  16.2079448 100.8833522  49.6169629
  16.7852950 100.7469973  50.2561874  15.5093509 100.4269306  49.8715213
  16.1900469 100.7955789  49.7491918  29.6053579 102.7706840  38.3633586
  29.5233741 102.8409027  39.2288573  30.2433299 103.3336584  38.1717326
  29.6873416 102.8645811  38.4623535  22.9646750 102.5367578  47.8308112
  22.7065994 101.7039313  47.8039411  23.0195233 102.7625191  46.9900612
  22.9346528 102.4465349  47.7028249  28.0447800  94.6396029  47.9312205
  27.3404127  94.1505214  48.0896124  28.0932774  94.6518503  47.0600649
  27.9477851  94.5685677  47.8251544  21.9381462 100.0905340  48.3173007
  21.3631053 100.2497509  48.9536968  21.5617138  99.4540750  47.8541457
  21.7984274 100.0203153  48.3427565  25.6054751  98.5628690  53.1765385
  25.2169183  98.1382907  52.5217576  24.9409449  98.8110839  53.6842412
  25.4501678  98.5367411  53.1553253  35.2478020  98.3203694  45.9513215
  34.9914584  97.5083636  45.7611098  36.0907334  98.3281262  45.7243403
  35.3344045  98.2015692  45.8898032  11.6838281  99.7345415  46.3317447
  11.7698533  99.3577284  47.1130977  12.3114078  99.3605861  45.8537406
  11.7894832  99.6230897  46.3762925  29.4281112  92.2603318  50.6889369
  29.8091624  91.5781490  51.0757244  28.6244396  91.9712921  50.5065034
  29.3657574  92.1170367  50.7193425  26.7093689 102.7927294  41.3742192
  27.5234328 103.0842187  41.2624963  26.6452830 102.1387157  40.8000485
  26.8196428 102.7392489  41.2731029  32.9303179 105.4753290  55.7871768
  32.6941816 104.6441355  55.6683828  33.5746408 105.4238898  56.3726612
  32.9897850 105.3450978  55.8557661  22.5801597 106.2648812  46.5014504
  23.2175544 106.0260559  47.0466298  23.0056669 106.4685971  45.7667665
  22.7377763 106.2599822  46.4731662  17.2714239 108.5037148  50.3848808
  17.3118385 108.7751999  49.5568588  17.8308764 109.0279056  50.8006596
  17.3597585 108.6212903  50.3240696  23.2204412 101.4851102  40.8389394
  23.6049565 101.2658808  41.5905939  22.9716032 102.3114047  40.9690470
  23.2406485 101.5749248  40.9690470  23.3872952  94.7657517  60.5551978
  23.0726394  95.5357079  60.2921541  23.0662885  94.2027773  59.9704205
  23.2931872  94.7967785  60.4293328  33.9539600 105.2597739  51.8500062
  33.6485417 105.9925796  52.2113378  33.2345815 104.8535669  51.5692848
  33.8026942 105.3079472  51.8613199  24.9623069 106.7421234  48.1808290
  25.0362077 106.5796406  49.0350140  25.7792575 106.9311424  47.9368772
  25.0939428 106.7457977  48.2706316  39.6541392 101.8990740  51.1768406
  39.5865892 101.9186699  50.3070993  39.6397054 102.7421067  51.4024077
  39.6420148 102.0264475  51.0820883  18.7228826 107.0879097  45.2102734
  17.8966943 107.3340834  45.0837013  18.7840817 107.0091178  46.0764792
  18.6102993 107.1124046  45.3191678  20.9404849  93.1548038  46.1698174
  20.0727275  93.2270638  46.2355783  21.2280054  93.9570117  46.3586149
  20.8544598  93.2842185  46.2072941  30.0637738  93.3025898  54.5009496
  30.8091330  93.1135708  54.0872921  29.6475043  93.8284136  53.9423352
  30.1122712  93.3528043  54.3574069  23.5027655 109.7055977  42.9121764
  23.7925953 109.3144959  42.1880990  24.2331136 109.8872682  43.3527039
  23.6534539 109.6749791  42.8704571  37.4400009 100.6735126  49.4515001
  37.9907931 100.0403195  49.6912093  37.4244124 101.2050519  50.1430505
  37.5185205 100.6584074  49.5893859  24.0922400 104.5073723  53.9974894
  23.5934094 105.2189491  54.0759783  24.9022624 104.8274390  53.9593057
  24.1378507 104.6600572  54.0031463  21.4433570 111.6823360  45.9781914
  21.2233866 111.3920715  46.7708581  21.2228092 111.0238315  45.4499826
  21.3781164 111.5423068  46.0170822  20.3550518 103.7696676  48.2437615
  20.0663766 103.1434148  48.7783343  21.2233866 103.7116964  48.3102296
  20.4410769 103.6684221  48.3328570  31.1428415  98.9131460  48.5619597
  30.7993181  98.1921795  48.9126847  31.2421458  98.7045311  47.7197955
  31.1070458  98.7755663  48.4891277  23.6101526 113.0552750  44.7612606
  24.2625584 112.5229192  44.9903632  22.9127135 112.7021402  45.1480480
  23.6032244 112.9242273  44.8524774  20.5582791 105.4091927  44.1679980
  21.3128759 105.7904966  44.3815443  19.9653404 105.8603071  44.6226677
  20.5819504 105.5320755  44.2662859  31.6041444 105.3757164  44.1043585
  32.1699477 106.0350374  44.0202128  30.9569348 105.7206862  44.5759987
  31.5920201 105.5239105  44.1616342  23.0189458  97.3654768  59.2937193
  22.2089234  97.6712547  59.1827035  23.4964145  98.0860350  59.4089777
  22.9692937  97.5169369  59.2944264  21.8781017 106.5800489  49.5420096
  21.3561771 106.7200780  50.2271960  22.2655038 105.8211153  49.7322213
  21.8584718 106.4886013  49.6721172  18.8672202  96.6306298  43.6115050
  18.5796997  96.2607568  42.8746998  19.5542670  97.1001153  43.3498755
  18.9261099  96.6453267  43.4630126  28.0748022 108.3195948  43.5280664
  27.8334698 107.5863809  43.1207729  28.2549355 108.8682805  42.8746998
  28.0655646 108.2918339  43.3710887  23.3047343 103.6104508  44.9401587
  23.1090126 104.2179242  44.3461890  23.5281689 102.9172452  44.4593261
  23.3081984 103.5982033  44.7817668  21.7025873 100.4959246  45.0582455
  22.4248525 100.6600404  44.5986261  21.2233866 101.2168911  44.9521795
  21.7389604 100.6257475  44.9748069  29.6619381  96.8323045  50.4379140
  28.8230481  96.8584323  50.2017403  29.7323748  97.4793780  51.0184487
  29.5487774  96.9319170  50.4888257  19.3533490 102.9017318  54.1636595
  19.8654587 103.1801571  53.5145355  19.0669832 103.6406612  54.5299408
  19.3868353 103.0519672  54.1226473  28.1088659  93.7308422  45.1706756
  28.8115012  93.5316170  44.6926714  27.8432848  92.9584364  45.4775599
  28.1735291  93.5871388  45.1452198  33.5376905 102.0391031  47.7240382
  33.4510879 102.1946457  48.5775161  33.0827384 102.6829107  47.3499787
  33.4580161 102.1566786  47.7947489  16.4400396  97.4087510  44.4600331
  16.5416533  98.2113671  44.7881307  17.2356283  97.2074846  44.1623412
  16.5728302  97.4973409  44.4635687  22.8717215  94.9943707  54.2237637
  22.6800412  95.0098841  55.0737060  23.7215811  95.1907381  54.2004291
  22.9692937  95.0258058  54.3460931  17.2564128  97.5234688  52.2021453
  17.1149620  96.6718629  52.3265961  17.5404692  97.5663349  51.3783659
  17.2771974  97.4034438  52.0989077  27.4102721  99.3601778  46.3465941
  27.1637435  99.2797529  47.1802730  27.7387844  98.5755246  46.1528469
  27.4223964  99.2328044  46.4413464  31.3050769 106.0685138  50.1352723
  31.1665129 106.7666184  50.6401465  30.5250767 105.9133794  49.7788904
  31.1693996 106.1485304  50.1578997  29.6428855 102.3681513  56.3875104
  29.6376893 101.4961330  56.3917531  30.3489848 102.5669682  55.9144560
  29.7473859 102.2685387  56.3182140  23.3699748 102.0958497  55.7588924
  23.5143124 102.6759705  55.1232034  23.7175396 102.4734794  56.4638779
  23.4427209 102.2379201  55.7687919  25.5419665 101.2948665  53.5414056
  24.7942979 101.4879680  53.1362334  25.6961190 100.4693885  53.3038177
  25.4542093 101.2013777  53.4459462  22.4427503 110.2861269  52.6249951
  22.5917067 109.7264185  51.9723356  23.2227505 110.3653271  53.0082470
  22.5801596 110.2146834  52.5846900  32.8004142 105.4263392  40.8969222
  32.4210951 104.6400529  40.8898511  32.1370388 105.9750249  40.7540866
  32.6462617 105.3908215  40.8750019  24.9680803 110.4575912  53.9034442
  24.8924475 109.7884722  54.4585230  24.8970663 111.1593700  54.4175108
  24.9461410 110.4620819  54.0611290  25.7821442  95.1899216  54.4309460
  26.2394056  95.9223190  54.5582252  25.8577771  94.7665681  55.1896715
  25.8612412  95.2356454  54.5610536  18.0254433  95.4365036  55.5198903
  17.4896623  94.8245394  55.8359671  18.0872198  96.0113172  56.1732570
  17.9550066  95.4311964  55.6634330  25.6251050 108.9776911  44.7358048
  26.3900942 108.7086554  44.4140712  25.5229140 108.4926921  45.4528111
  25.7232546 108.8666475  44.7937876  23.6603820  97.1801320  51.2751284
  22.8699895  96.9992780  51.5968620  24.0564443  96.4028273  51.2581578
  23.6020696  97.0388781  51.3203832  28.1469711 106.0089094  36.7157997
  28.9142696 106.0689219  36.3063849  27.7001020 105.4369536  36.2314316
  28.1943138 105.9325670  36.5835708  29.0447506 104.8143750  49.0010730
  28.3692508 104.5828982  49.5024117  29.0539883 104.2064933  48.3752835
  28.9466011 104.6902675  48.9826882  26.1741650  99.6561579  55.7574783
  26.1100792 100.5171536  55.6294919  26.3138838  99.3393572  54.9570334
  26.1857121  99.7361746  55.6202995  31.0464241 107.6708883  41.2320908
  31.1284078 108.4775869  40.9082358  31.5313983 107.6904842  41.9561681
  31.1301399 107.7929545  41.2907806  24.8560744 102.3493718  49.8990986
  24.4322993 102.5498218  49.1630004  24.6805600 101.5022566  50.0115285
  24.7671625 102.2542500  49.8064676  24.3572438 113.8644231  52.3612443
  24.8468368 113.1655021  52.1788107  23.7856670 113.5668101  52.9488500
  24.3456968 113.7170455  52.4213484  20.1443189 102.8445770  45.3318958
  20.3007808 102.7792573  46.1874950  20.4843782 103.6194322  45.1197638
  20.2176424 102.9494968  45.4273552  26.6822334 102.2203653  44.2012321
  27.2237879 101.7174035  44.6650942  26.9968893 102.1668848  43.3901807
  26.8086731 102.1383074  44.1496133  30.5539441 106.4306301  61.3139233
  31.3674307 106.1591450  61.4744366  30.3934408 106.1313841  60.5099429
  30.6509390 106.3461227  61.2184639  24.8508784 107.6121005  41.4852349
  24.9201604 106.7535543  41.6245350  25.6297239 107.8292886  41.1571374
  24.9761634 107.5173869  41.4569507  27.8311603  97.1139958  54.2534622
  28.0453573  96.4750872  53.6997976  27.2145502  97.5585782  53.8242483
  27.7716933  97.0850102  54.1085053  29.2416271 110.0358706  45.6988843
  28.8496063 109.7325421  44.9811709  29.3969343 110.8727796  45.5093796
  29.2069861 110.1142543  45.5645340  16.7177451 100.0280720  45.6479725
  17.0976416 100.4465265  44.9839993  16.1432816 100.6094176  45.9548569
  16.6888776 100.1758579  45.5956466  29.9950691  98.7229023  55.1917929
  29.1827373  98.4154914  55.2731102  30.4540626  98.2428023  55.7560641
  29.9431076  98.6065516  55.2872523  29.4055946 106.6008695  45.6394873
  29.0470601 106.7723338  46.4158906  28.9194657 107.0621901  45.0822872
  29.2814643 106.6947666  45.6720142  27.2226332  90.2239894  49.2421965
  26.3519890  90.1978615  49.1955274  27.4766673  90.0517086  48.4247810
  27.1319892  90.1950037  49.1142101  24.1944311 102.2807861  38.1795108
  24.4836836 103.0572743  38.4538682  24.2816110 101.7696592  38.8809607
  24.2498568 102.3199779  38.3237605  27.0904199 100.1289095  59.9746631
  27.5603830 100.7531211  60.3614505  27.1366079  99.4606070  60.5339846
  27.1672075 100.1223775  60.1146703  24.2475472  92.2346122  50.6995435
  23.7313961  91.5426314  50.8247014  23.6869401  92.9016899  50.6458034
  24.0881986  92.2309380  50.7101501  26.3167706  92.7739082  52.5288288
  25.9299459  92.7988114  53.3101817  25.8300643  92.2080761  52.0762804
  26.1880215  92.6934833  52.5776191  30.5660685 107.4912591  56.5862074
  31.2040406 106.9972787  56.2524530  29.9234777 107.4189992  56.0014301
  30.5654912 107.4071600  56.4504429  32.2917685  99.3401737  51.1527990
  31.8645293  99.2528086  50.3976089  31.6543738  99.4479513  51.7382834
  32.1347293  99.3434397  51.1273431  25.9824848  89.6606068  54.8198547
  26.6117966  90.1966368  54.5419618  26.1510710  89.5683427  55.6712113
  26.1002642  89.7267430  54.9047076  25.7838762  94.4477262  57.0924959
  26.6112192  94.1762411  57.1483573  25.8046609  95.2438104  57.4488777
  25.9091613  94.5257017  57.1540142  30.6214942 108.1832399  53.2267431
  31.4107320 107.8321464  53.3469512  30.7958540 108.9968788  52.9644065
  30.7635224 108.2518257  53.2055299  20.3608252 101.5941125  50.2795220
  19.5196259 101.4944999  50.4874113  20.5698260 102.3636605  50.6309540
  20.2672945 101.6933168  50.3622535  17.8383819  99.2160662  48.1079970
  17.4440517  99.2903674  47.3330080  17.2823936  99.6018608  48.6588332
  17.6986632  99.2842437  48.0747630  29.4748766  92.1941956  47.7883849
  29.6798359  92.1264264  48.6340846  29.1475190  93.0000777  47.7205027
  29.4564014  92.3027897  47.9043504  24.1724917  99.5222524  49.5292817
  23.8688055  98.9678513  50.1303225  23.4704338  99.7014734  49.0420851
  24.0241127  99.4667307  49.5462523  23.2291014  96.8323044  44.0937519
  23.5050749  96.1141957  43.6815087  23.8289684  97.4307964  43.8858625
  23.3584279  96.8143415  44.0018280  22.2343268 106.7372245  54.2364915
  22.1263623 106.7474307  55.1026973  22.4439050 107.5627025  54.0469869
  22.2493379 106.8613320  54.3369007  32.7282454  92.7473720  47.2686615
  32.1156767  93.2344122  47.6540347  32.8246629  92.0717211  47.8124266
  32.6520351  92.7192029  47.4065473  26.7301535  94.5036561  42.3684114
  27.1845281  94.6747122  43.0931959  27.2041581  93.8904672  41.9681890
  26.8669855  94.4387447  42.4157876  20.2517060 103.9884887  51.6986853
  19.6604993 104.6294386  51.6689868  21.0138084 104.4122505  51.6718152
  20.2765321 104.1460726  51.6902000  20.6477683  95.1486885  52.3654870
  21.1079165  95.2225815  53.1029994  20.6933790  95.9468139  52.0154692
  20.7228238  95.2781032  52.4227627  22.2961033  95.8153580  56.9326897
  21.9046598  95.1686927  57.3682675  22.4646895  96.4065015  57.5521153
  22.2631943  95.8067848  57.0889603  36.3707482 103.8190657  52.6964131
  36.4290605 104.2677306  53.4424107  35.7373949 104.2289470  52.2594211
  36.2858777 103.9464392  52.7416679  30.0106576 109.4394199  49.1318877
  29.8126265 109.9285013  48.4375088  29.3894288 109.6435441  49.7103010
  29.8894141 109.5410737  49.1142100  24.0714555 101.2079096  43.4729121
  24.8156600 101.5953372  43.7112071  24.2175251 100.3636521  43.6369609
  24.2025140 101.1409569  43.5323091  25.9894130  93.0029355  48.5060983
  25.1430175  93.1752163  48.3802333  25.9865263  92.1978698  48.8426811
  25.8641280  92.9090384  48.5372110  27.0592431  96.7804569  49.3723041
  26.5852385  96.2546331  49.8828352  27.4310566  96.2334042  48.8037902
  27.0442320  96.6220566  49.3638188  17.4365461  98.7776076  54.7406586
  18.2991074  98.6771785  54.6543916  17.1057244  98.1970785  54.1792159
  17.5150657  98.6767703  54.6451992  33.3229161 101.8406945  50.7829821
  33.0827384 101.0013360  50.7872248  33.8021168 101.9207112  51.5070595
  33.3581345 101.7288345  50.8904623  28.9875930  97.6741124  42.4348794
  28.4598949  97.7569868  41.7454503  29.4471638  98.4158995  42.4313439
  28.9777781  97.7961786  42.3323490  35.3234348  98.6208402  48.7359080
  35.0844118  98.5804236  47.8979865  35.4868250  99.4679554  48.8624801
  35.3124652  98.7400487  48.6312562  31.9280378 103.0058351  54.6664125
  32.6514577 102.5530878  54.4875145  31.6630341 103.2863017  53.8836453
  31.9961652 102.9809320  54.5242841  20.7967247  97.6018525  51.4017005
  20.1720317  97.6136917  50.7942957  20.4612842  98.0778700  52.0508245
  20.6552739  97.6737042  51.4073573  20.9808995  95.9443643  37.4589690
  20.6321800  96.5963369  37.9221239  20.5005441  95.9300756  36.7313561
  20.8579239  96.0386697  37.4200781  17.5092922 105.6618985  52.8420769
  16.9792847 104.9711424  52.8915744  17.7818016 105.6529170  52.0133477
  17.4717645 105.5586117  52.7268185  28.5413013 106.2444687  41.5658451
  29.2647212 106.7102800  41.4223025  28.1013604 106.3118297  40.8156048
  28.5828705 106.3228524  41.4343233  27.7099168 103.1042230  52.8159140
  27.0956161 102.5600280  53.1107776  28.2266453 102.5906466  52.3364957
  27.6954830 102.9478639  52.7883369  26.9495465 104.1746500  50.5503439
  26.5223073 103.5496218  50.1168874  26.9420409 103.8921421  51.3762446
  26.8854606 104.0399280  50.6083267  20.0657992  99.2111673  53.6191873
  20.2251479  98.4554997  54.0243595  19.8850886  99.7602612  54.2732611
  20.0623351  99.1805486  53.7754579  28.0078295  91.3772908  54.1742663
  27.5118856  91.5736582  53.4834229  28.7647357  91.7765576  54.0031464
  28.0465120  91.4650642  54.0462799  25.2781175  95.0515254  50.7645973
  25.3023662  94.5175366  50.0758753  25.5292648  94.5432563  51.4271564
  25.3191093  94.8976158  50.7610618  12.7888765 102.3346749  50.1989117
  12.6832214 102.2893593  49.3341201  12.0388985 102.6800530  50.4803402
  12.6624367 102.3787657  50.1126447  21.5582497  93.7786072  50.1451717
  21.5980869  94.2795279  50.8586425  20.7332162  93.8696466  49.8757640
  21.4422023  93.8667889  50.2102256  23.7412110 103.3446812  58.2472012
  22.8907740 103.4818527  58.3829657  23.9040238 102.6110591  58.6919714
  23.6395973 103.2560914  58.3327611  22.9796860 100.2946582  52.4425616
  22.1488790 100.4620400  52.2360865  22.9248378  99.9182533  53.2274502
  22.8486275 100.2636313  52.5274145  20.7880644  93.7855475  58.0782027
  21.4133347  93.2417608  58.3511459  20.3331124  93.3050393  57.5089817
  20.8128904  93.6344956  58.0343621  21.3532904  98.5702174  42.9715734
  21.4935865  99.0674638  43.6744375  21.8515437  97.8688468  43.1129948
  21.4473985  98.5404153  43.0967313  21.3833127  99.4369285  40.3008311
  22.0178206 100.0329710  40.2357773  21.4658737  99.1372742  41.1154181
  21.4889678  99.4810193  40.4111398  34.3615692 101.9684762  53.1694675
  34.9533533 102.6082013  53.2012873  34.7974687 101.2707799  53.4586742
  34.5134124 101.9603112  53.2175508  22.9612109  95.3683260  40.2753753
  23.2827950  94.8886343  39.6213015  23.2239053  96.1782906  40.0844565
  23.0478135  95.4173158  40.1509245  26.1909082 106.3902135  53.7952569
  25.6834173 106.9437981  54.2393200  25.8935728 106.4510424  52.9771344
  26.0713967 106.4808446  53.7401026  28.3571264  94.7555454  52.6377232
  28.7826336  94.3027981  52.0260758  27.7428258  94.2015525  52.9142019
  28.3299910  94.6069430  52.5882257  17.8886114 101.6337126  43.5697857
  18.3978344 102.2301633  43.9509162  18.3620387 101.3663099  42.8874277
  18.0329490 101.6822941  43.5252380  28.8016863 110.3065392  41.7256513
  28.0846172 110.1326254  41.2603750  29.4523600 110.0717965  41.1931999
  28.7918713 110.2461185  41.5785730  26.7965487  91.2270554  46.0467809
  26.1533805  91.0768200  46.6152947  26.4564894  90.9812899  45.2816914
  26.6510565  91.1682676  46.0170824  31.3864834  99.1829981  45.4697818
  30.7156024  99.7259683  45.3410883  32.0804584  99.6524836  45.2279512
  31.3893701  99.3328252  45.4153345  25.4351567 111.3226693  50.7009576
  25.2117222 110.5645522  51.0693602  24.9461411 111.3524714  49.9790016
  25.3295016 111.2148917  50.6486317  31.5492961  95.6385864  48.3788191
  31.9020571  95.2115587  49.0533990  30.6907763  95.5536708  48.5089267
  31.4742406  95.5630605  48.4983201  20.2476646  98.2693384  46.4371037
  19.5288635  98.6857517  46.7043901  20.6189008  98.8347623  45.8862676
  20.1968578  98.4142666  46.3953844  29.5476227  98.9021233  52.3273033
  29.5274154  98.7204528  53.1807812  29.5955428  99.7733251  52.3032617
  29.5510868  99.0037771  52.4496328  27.4922557 105.4908425  58.2521510
  27.4518412 104.8458102  57.6666666  28.3045875 105.4345042  58.5646922
  27.6065710 105.3867392  58.2118459  24.0830024 111.5427151  48.1546661
  23.6690423 110.8801281  47.7650502  24.7677399 111.6905010  47.6342355
  24.1228396 111.4667809  48.0203158  27.4495319 110.7017236  48.9070277
  27.0511602 110.8119506  48.1391097  26.8346538 110.9099302  49.4896837
  27.2994208 110.7490804  48.8801576  26.0223221  97.3091384  41.7744417
  25.4288060  97.6308380  41.2228984  26.0598498  96.4632479  41.5665523
  25.9397610  97.2315712  41.6627188  32.9817021  90.7604276  49.3072503
  32.4747886  90.0533416  49.2393681  33.7784455  90.4297465  49.4373580
  33.0244260  90.6077428  49.3171498  28.8981037  97.2670888  45.2046167
  28.6694730  97.2903590  44.3624525  29.1579113  96.4428355  45.3241178
  28.9027225  97.1486968  45.0971365  23.1800266  99.1205361  54.8071267
  22.6679169  98.5126544  55.1656299  23.0079762  99.8361954  55.2745243
  23.0789903  99.1368661  54.9287491  18.0265980  97.5642937  57.4573629
  17.8568571  98.2244312  56.9121836  17.5831930  97.7749498  58.1786118
  17.9365314  97.6928919  57.4835259  21.9525800  95.8047435  46.5000363
  22.4283166  96.1664515  45.8650544  21.4514399  96.4603902  46.7800505
  21.9491159  95.9541624  46.4477104  35.1837161 105.2769203  42.2913368
  35.5670767 106.0260559  42.5211465  34.3881275 105.5235023  42.0325357
  35.1230943 105.4238897  42.2870941  27.0569336  97.0429606  57.2473523
  27.6140766  96.8143416  56.6151988  26.7330401  97.8035272  56.9708735
  27.0915746  97.1213443  57.1130020  14.9268045 100.4689802  52.7162119
  14.3794764  99.7990448  52.8342987  15.7160423 100.1019650  52.7805586
  14.9620228 100.3154789  52.7430819  24.7752453 100.1297259  58.2125530
  25.5263780 100.4448936  58.5265084  24.9675030  99.9276430  57.3859452
  24.9143867 100.1464641  58.1368926  23.9952453  97.9488635  39.8673747
  24.3751418  97.9668264  39.0824861  23.2545049  98.3942623  39.7464594
  23.9421291  98.0170409  39.7337315  31.6237743  96.2570826  45.4549325
  31.6231970  96.1019482  46.3133602  31.4193923  97.1033813  45.3990711
  31.5937521  96.3591447  45.5737265  13.6855014  99.6810610  49.8708142
  13.5076775  99.2287219  50.5963058  13.3974036 100.4836772  50.0546619
  13.6167967  99.7333168  50.0051645  29.3478595 100.9368328  49.1085532
  29.8432261 100.2191323  49.0689553  28.5378371 100.6339125  48.9940019
  29.3022489 100.7865974  49.0859258  24.7937207 104.7866141  41.2582537
  23.9848530 104.4632814  41.2115846  25.3012116 104.0799363  41.1910785
  24.7486874 104.6347457  41.2412831  15.4227484 102.2138334  46.9829901
  14.5573004 102.2024024  46.8712672  15.5226300 102.0268557  47.8301040
  15.3101651 102.1844395  47.0918845  31.4130414 103.6872015  51.7962661
  31.8385486 103.1646437  51.2433086  31.0487334 104.2852852  51.2751284
  31.4217017 103.6982242  51.6371671  21.0484494 111.9836233  50.5560007
  21.3631053 112.7972621  50.5637788  21.4577907 111.5986451  51.2242166
  21.1552592 112.0464935  50.6564098  28.0009014 107.4006279  48.1263818
  28.4720192 108.1146542  48.2953804  28.3369192 106.8005029  48.6623688
  28.1204129 107.4177744  48.2296194  30.0885998 109.0107593  60.3055891
  30.1982964 108.2216153  60.6612638  30.4176895 108.9213529  59.5030229
  30.1538404 108.8813446  60.2398281  24.9178509  92.1733750  55.0821913
  25.0506414  91.3764743  55.4102889  25.3023661  92.7000153  55.6620189
  24.9934837  92.1333667  55.2165416  28.6382960 107.1924213  54.8891511
  28.0903906 106.5682097  54.6211576  29.0995989 107.3818486  54.1735591
  28.6250169 107.1283264  54.7441942  27.9910864  89.0964076  51.6803007
  27.1856828  88.9861806  51.9970845  27.8617599  89.1976532  50.8232872
  27.8530997  89.0947746  51.6011047  31.4476824  95.2609568  52.2742703
  30.8639813  95.7618774  51.8620271  31.7681118  94.7539124  51.6407027
  31.4090000  95.2601403  52.1201211  23.9871623  94.1750163  42.5501378
  24.8087318  94.3448476  42.3083073  23.5241274  94.3297424  41.8267676
  24.0402786  94.2231896  42.4073023  22.5766955  92.1692925  53.3299807
  23.1211368  91.8284052  53.9204149  22.6303891  93.0278387  53.4721092
  22.6656075  92.2448184  53.4381680  18.3897514 105.9309341  50.2038615
  18.9942372 105.8905175  49.5752436  18.1824827 106.7780493  50.2342671
  18.4486411 106.0497344  50.1154731  28.2041286 108.1975286  51.4200852
  29.0239660 108.0538252  51.6817147  27.9235364 108.8221485  51.9617290
  28.2838030 108.2685638  51.5388792  13.6248796 104.9143959  50.0737538
  13.5273074 104.1040230  50.3827595  14.4077666 104.8935752  49.6883806
  13.7264933 104.7911049  50.0624401  44.6754937 115.8540138  44.3843729
  44.6448941 116.7084775  44.5561998  45.2736285 115.5535430  44.9429872
  44.7592095 115.9356634  44.4918531  37.8754622 114.9415789  49.1396659
  37.0192517 115.1024287  49.1905776  37.9222275 114.0707853  49.1601720
  37.7553733 114.8366591  49.1502725  41.1848338 121.2102315  58.7457115
  41.8915105 120.7154345  58.8744050  41.3736274 121.6511396  58.0159773
  41.3176244 121.2020665  58.6566161  40.7206443 117.0007833  51.7828311
  41.2662403 117.6792919  51.8422280  40.6623319 116.8595294  50.9229892
  40.7922357 117.0799835  51.6640371  42.4971511 118.4292440  42.6562039
  42.3811037 119.1800126  43.0854177  43.2927398 118.1716393  42.9058126
  42.5976101 118.5027287  42.7566130  29.3335649 112.6802916  49.6933305
  28.7140681 112.0895563  49.5243319  29.2319513 113.2714351  49.0597628
  29.2273325 112.6806999  49.5738294  36.4303545 114.4202458  44.0265768
  37.1283709 114.5990585  44.5187231  36.7455877 113.8972797  43.4036157
  36.5798882 114.3696230  44.0067778  29.0604782 116.2255198  51.9376873
  28.9363479 116.8117643  52.5726692  29.7123067 115.7315394  52.2389148
  29.1378432 116.2394002  52.0762803  34.6030408 109.7894855  48.1087042
  34.2733738 110.2405998  47.4390741  33.9275410 109.7111018  48.6560049
  34.4540845 109.8445990  48.0910266  40.2200817 119.1600084  40.9676328
  40.1352112 120.0161051  41.1125897  40.7085200 118.8844408  41.6358487
  40.2789714 119.2457406  41.0878410  41.8106816 105.7780377  46.3536653
  41.4960257 106.4683856  46.7857075  41.2933758 105.7225160  45.6522154
  41.6871287 105.8715266  46.3133602  41.1519250 115.7784878  42.4674063
  40.6230721 115.9944512  43.1271370  41.6744270 116.4721017  42.3875033
  41.1507703 115.9128015  42.5529663  46.6067303 121.3531183  47.8407108
  45.7765006 121.5641826  48.0040524  46.5576555 120.5268237  47.5649392
  46.4774038 121.2620789  47.8244473  37.4996072 115.9213747  39.7450452
  37.7392076 116.1291731  38.9325795  37.8211913 115.1171256  39.8539397
  37.5833230 115.8327848  39.6411005  32.8086362 107.8507143  43.5909990
  33.5632330 108.2185460  43.3527040  32.6313897 108.2246697  44.3589170
  32.8940841 107.9605331  43.6694878  46.1021261 114.0001583  51.6357529
  45.2649682 114.0703771  51.8705124  46.0709492 114.0026078  50.7631832
  45.9739544 114.0111810  51.5417077  32.4985990 116.1434619  57.3505898
  32.6706494 116.0340514  58.1991179  33.0355348 116.7889025  57.1137090
  32.6030994 116.2226621  57.4410995  31.1643427 110.2577462  40.2888103
  30.9819000 110.4749343  39.4629096  32.0269040 110.3716475  40.3446717
  31.2648017 110.3067360  40.1742590  36.8443146 107.2603873  43.3237127
  37.5729307 107.0819828  42.8775283  36.9338039 108.1021952  43.5344305
  36.9649808 107.3587751  43.2890644  40.8251447 118.1957260  47.2269421
  41.5808962 118.6288774  47.2658329  40.9313771 117.5462030  47.8004057
  40.9521618 118.1634744  47.3167446  43.7829101 109.0644365  50.2201252
  44.4255009 109.1342470  50.8063167  44.0352122 108.3973588  49.7180794
  43.9151233 108.9770714  50.2328531  30.7105454 113.5351635  38.8010576
  29.9963631 113.2489814  39.2133009  31.1949423 113.8748260  39.4416963
  30.6764817 113.5433284  38.9566211  31.5546314 112.2744928  54.8325826
  30.8618110 111.8041908  55.0786557  32.1706641 112.0483233  55.4067533
  31.5430843 112.1712060  54.9534978  46.9975964 118.7411457  46.8691461
  47.6592398 118.1802126  46.7687369  46.3567376 118.2463488  47.1944152
  47.0004832 118.5847866  46.9023801  43.2840795 119.7576840  46.6103450
  43.5196384 119.9022038  45.7830300  43.4330359 120.5219248  47.0034963
  43.3406598 119.8915894  46.5467054  30.2786872 116.2410332  55.9752671
  31.0026845 116.2263363  56.4617566  30.3803009 116.9505688  55.4774639
  30.4005082 116.3435036  55.9731458  45.1131252 118.5978505  44.4473054
  45.4439469 119.1306146  43.8413148  45.6864340 118.6517393  45.1035005
  45.2464931 118.6848074  44.4550835  37.6531822 119.7209417  60.8401618
  36.8604803 120.0352929  61.0254238  37.7680749 119.9360885  60.0022402
  37.5527232 119.7993254  60.7439953  40.3263141 116.4443408  45.1296634
  40.4209995 117.1832702  45.5836259  39.7021984 116.0160884  45.5631198
  40.2472171 116.4904729  45.2604781  38.5815615 119.6229621  55.7786915
  39.1554476 118.9856865  55.9335478  38.5030418 119.6233703  54.9096572
  38.6548850 119.5294732  55.6733325  27.1812031 116.4018830  49.6169629
  27.7585534 116.2655281  50.2561874  26.4826093 115.9454614  49.8715213
  27.1633053 116.3141096  49.7491918  40.5786162 118.2892148  38.3633586
  40.4966325 118.3594335  39.2288573  41.2165883 118.8521892  38.1717326
  40.6606000 118.3831119  38.4623535  33.9379333 118.0552886  47.8308112
  33.6798578 117.2224621  47.8039411  33.9927816 118.2810499  46.9900612
  33.9079111 117.9650657  47.7028249  39.0180383 110.1581337  47.9312205
  38.3136710 109.6690522  48.0896124  39.0665358 110.1703811  47.0600649
  38.9210435 110.0870985  47.8251544  32.9114045 115.6090648  48.3173007
  32.3363637 115.7682817  48.9536968  32.5349722 114.9726057  47.8541457
  32.7716858 115.5388461  48.3427565  36.5787334 114.0813998  53.1765385
  36.1901767 113.6568215  52.5217576  35.9142032 114.3296147  53.6842412
  36.4234262 114.0552719  53.1553253  46.2210603 113.8389002  45.9513215
  45.9647168 113.0268944  45.7611098  47.0639917 113.8466569  45.7243403
  46.3076629 113.7201000  45.8898032  40.4013696 107.7788626  50.6889369
  40.7824207 107.0966798  51.0757244  39.5976980 107.4898229  50.5065034
  40.3390157 107.6355675  50.7193425  37.6826272 118.3112602  41.3742192
  38.4966911 118.6027495  41.2624963  37.6185414 117.6572465  40.8000485
  37.7929011 118.2577797  41.2731029  43.9035763 120.9938598  55.7871768
  43.6674400 120.1626663  55.6683828  44.5478991 120.9424206  56.3726612
  43.9630433 120.8636286  55.8557661  34.1936996 117.0036409  40.8389394
  34.5782148 116.7844116  41.5905939  33.9448616 117.8299355  40.9690470
  34.2139068 117.0934556  40.9690470  34.3605536 110.2842825  60.5551978
  34.0458977 111.0542387  60.2921541  34.0395469 109.7213081  59.9704205
  34.2664455 110.3153093  60.4293328  44.9272183 120.7783047  51.8500062
  44.6218000 121.5111104  52.2113378  44.2078399 120.3720977  51.5692848
  44.7759525 120.8264780  51.8613199  50.6273975 117.4176048  51.1768406
  50.5598476 117.4372007  50.3070993  50.6129638 118.2606375  51.4024077
  50.6152732 117.5449782  51.0820883  31.9137433 108.6733346  46.1698174
  31.0459858 108.7455946  46.2355783  32.2012637 109.4755425  46.3586149
  31.8277181 108.8027493  46.2072941  41.0370322 108.8211206  54.5009496
  41.7823914 108.6321016  54.0872921  40.6207626 109.3469443  53.9423352
  41.0855296 108.8713351  54.3574069  48.4132593 116.1920434  49.4515001
  48.9640514 115.5588503  49.6912093  48.3976708 116.7235827  50.1430505
  48.4917789 116.1769382  49.5893859  42.1160999 114.4316768  48.5619597
  41.7725765 113.7107103  48.9126847  42.2154041 114.2230619  47.7197955
  42.0803042 114.2940971  48.4891277  42.5774028 120.8942472  44.1043585
  43.1432061 121.5535682  44.0202128  41.9301931 121.2392170  44.5759987
  42.5652784 121.0424413  44.1616342  33.9922041 112.8840076  59.2937193
  33.1821817 113.1897855  59.1827035  34.4696728 113.6045658  59.4089777
  33.9425520 113.0354677  59.2944264  29.8404785 112.1491605  43.6115050
  29.5529581 111.7792876  42.8746998  30.5275253 112.6186461  43.3498755
  29.8993682 112.1638575  43.4630126  32.6758457 116.0144554  45.0582455
  33.3981109 116.1785712  44.5986261  32.1966449 116.7354218  44.9521795
  32.7122187 116.1442783  44.9748069  40.6351964 112.3508352  50.4379140
  39.7963065 112.3769631  50.2017403  40.7056332 112.9979088  51.0184487
  40.5220358 112.4504478  50.4888257  39.0821243 109.2493729  45.1706756
  39.7847595 109.0501478  44.6926714  38.8165431 108.4769672  45.4775599
  39.1467875 109.1056695  45.1452198  44.5109488 117.5576339  47.7240382
  44.4243463 117.7131765  48.5775161  44.0559968 118.2014415  47.3499787
  44.4312745 117.6752094  47.7947489  27.4132980 112.9272818  44.4600331
  27.5149116 113.7298979  44.7881307  28.2088866 112.7260154  44.1623412
  27.5460885 113.0158717  44.4635687  33.8449799 110.5129015  54.2237637
  33.6532996 110.5284149  55.0737060  34.6948395 110.7092689  54.2004291
  33.9425521 110.5443366  54.3460931  28.2296712 113.0419996  52.2021453
  28.0882204 112.1903937  52.3265961  28.5137275 113.0848657  51.3783659
  28.2504558 112.9219746  52.0989077  38.3835304 114.8787086  46.3465941
  38.1370018 114.7982837  47.1802730  38.7120427 114.0940554  46.1528469
  38.3956548 114.7513352  46.4413464  40.6161438 117.8866821  56.3875104
  40.6109477 117.0146638  56.3917531  41.3222432 118.0854990  55.9144560
  40.7206442 117.7870695  56.3182140  34.3432331 117.6143805  55.7588924
  34.4875707 118.1945013  55.1232034  34.6907980 117.9920102  56.4638779
  34.4159793 117.7564509  55.7687919  36.5152249 116.8133973  53.5414056
  35.7675563 117.0064988  53.1362334  36.6693774 115.9879193  53.3038177
  36.4274676 116.7199085  53.4459462  43.7736726 120.9448699  40.8969222
  43.3943535 120.1585837  40.8898511  43.1102971 121.4935556  40.7540866
  43.6195201 120.9093523  40.8750019  36.7554026 110.7084524  54.4309460
  37.2126640 111.4408498  54.5582252  36.8310355 110.2850989  55.1896715
  36.8344996 110.7541762  54.5610536  28.9987017 110.9550344  55.5198903
  28.4629207 110.3430702  55.8359671  29.0604782 111.5298480  56.1732570
  28.9282650 110.9497271  55.6634330  41.2281352 103.8874399  48.3003303
  41.3464920 104.3450862  47.5670605  41.0543527 103.0819660  48.0139520
  41.2200523 103.8368171  48.1504236  34.6336404 112.6986628  51.2751284
  33.8432479 112.5178088  51.5968620  35.0297027 111.9213580  51.2581578
  34.5753280 112.5574089  51.3203832  40.0180090 120.3329058  49.0010730
  39.3425092 120.1014290  49.5024117  40.0272466 119.7250241  48.3752835
  39.9198595 120.2087983  48.9826882  37.1474234 115.1746887  55.7574783
  37.0833375 116.0356843  55.6294919  37.2871422 114.8578880  54.9570334
  37.1589704 115.2547054  55.6202995  35.8293328 117.8679026  49.8990986
  35.4055577 118.0683525  49.1630004  35.6538183 117.0207874  50.0115285
  35.7404209 117.7727808  49.8064676  37.6554917 117.7388961  44.2012321
  38.1970463 117.2359343  44.6650942  37.9701477 117.6854156  43.3901807
  37.7819315 117.6568382  44.1496133  38.8044187 112.6325266  54.2534622
  39.0186156 111.9936180  53.6997976  38.1878086 113.0771090  53.8242483
  38.7449516 112.6035410  54.1085053  27.6910034 115.5466028  45.6479725
  28.0708999 115.9650573  44.9839993  27.1165399 116.1279484  45.9548569
  27.6621359 115.6943887  45.5956466  40.9683275 114.2414331  55.1917929
  40.1559957 113.9340221  55.2731102  41.4273209 113.7613331  55.7560641
  40.9163660 114.1250823  55.2872523  38.1958916 105.7425202  49.2421965
  37.3252473 105.7163923  49.1955274  38.4499257 105.5702394  48.4247810
  38.1052476 105.7135345  49.1142101  35.1676895 117.7993168  38.1795108
  35.4569420 118.5758051  38.4538682  35.2548694 117.2881900  38.8809607
  35.2231151 117.8385087  38.3237605  38.0636782 115.6474403  59.9746631
  38.5336414 116.2716519  60.3614505  38.1098663 114.9791378  60.5339846
  38.1404658 115.6409083  60.1146703  35.2208056 107.7531430  50.6995435
  34.7046545 107.0611621  50.8247014  34.6601985 108.4202207  50.6458034
  35.0614569 107.7494688  50.7101501  37.2900289 108.2924390  52.5288288
  36.9032043 108.3173422  53.3101817  36.8033227 107.7266069  52.0762804
  37.1612798 108.2120141  52.5776191  43.2650269 114.8587045  51.1527990
  42.8377877 114.7713394  50.3976089  42.6276322 114.9664821  51.7382834
  43.1079876 114.8619705  51.1273431  36.9557431 105.1791376  54.8198547
  37.5850549 105.7151676  54.5419618  37.1243294 105.0868734  55.6712113
  37.0735226 105.2452738  54.9047076  36.7571346 109.9662570  57.0924959
  37.5844775 109.6947719  57.1483573  36.7779192 110.7623412  57.4488777
  36.8824196 110.0442324  57.1540142  31.3340836 117.1126433  50.2795220
  30.4928842 117.0130307  50.4874113  31.5430844 117.8821913  50.6309540
  31.2405528 117.2118476  50.3622535  28.8116403 114.7345970  48.1079970
  28.4173101 114.8088982  47.3330080  28.2556520 115.1203916  48.6588332
  28.6719215 114.8027745  48.0747630  40.4481350 107.7127264  47.7883849
  40.6530943 107.6449572  48.6340846  40.1207774 108.5186085  47.7205027
  40.4296598 107.8213204  47.9043504  35.1457501 115.0407832  49.5292817
  34.8420638 114.4863821  50.1303225  34.4436922 115.2200042  49.0420851
  34.9973711 114.9852615  49.5462523  34.2023598 112.3508352  44.0937519
  34.4783332 111.6327265  43.6815087  34.8022267 112.9493272  43.8858625
  34.3316862 112.3328723  44.0018280  43.7015037 108.2659028  47.2686615
  43.0889351 108.7529430  47.6540347  43.7979212 107.5902519  47.8124266
  43.6252935 108.2377337  47.4065473  37.7034118 110.0221869  42.3684114
  38.1577865 110.1932430  43.0931959  38.1774164 109.4089980  41.9681890
  37.8402439 109.9572755  42.4157876  31.6210267 110.6672193  52.3654870
  32.0811748 110.7411123  53.1029994  31.6666373 111.4653447  52.0154692
  31.6960822 110.7966340  52.4227627  33.2693616 111.3338888  56.9326897
  32.8779181 110.6872235  57.3682675  33.4379479 111.9250323  57.5521153
  33.2364527 111.3253156  57.0889603  47.3440065 119.3375965  52.6964131
  47.4023189 119.7862614  53.4424107  46.7106533 119.7474778  52.2594211
  47.2591360 119.4649700  52.7416679  35.0447138 116.7264404  43.4729121
  35.7889183 117.1138680  43.7112071  35.1907835 115.8821829  43.6369609
  35.1757723 116.6594877  43.5323091  36.9626714 108.5214663  48.5060983
  36.1162759 108.6937470  48.3802333  36.9597846 107.7164006  48.8426811
  36.8373864 108.4275692  48.5372110  38.0325014 112.2989877  49.3723041
  37.5584968 111.7731639  49.8828352  38.4043150 111.7519350  48.8037902
  38.0174903 112.1405874  49.3638188  28.4098044 114.2961384  54.7406586
  29.2723657 114.1957093  54.6543916  28.0789827 113.7156093  54.1792159
  28.4883241 114.1953010  54.6451992  44.2961745 117.3592253  50.7829821
  44.0559968 116.5198668  50.7872248  44.7753752 117.4392419  51.5070595
  44.3313928 117.2473652  50.8904623  39.9608514 113.1926432  42.4348794
  39.4331532 113.2755176  41.7454503  40.4204222 113.9344303  42.4313439
  39.9510364 113.3147094  42.3323490  46.2966932 114.1393710  48.7359080
  46.0576702 114.0989544  47.8979865  46.4600833 114.9864862  48.8624801
  46.2857235 114.2585795  48.6312562  42.9012962 118.5243659  54.6664125
  43.6247161 118.0716186  54.4875145  42.6362924 118.8048325  53.8836453
  42.9694235 118.4994628  54.5242841  31.7699830 113.1203833  51.4017005
  31.1452900 113.1322225  50.7942957  31.4345425 113.5964008  52.0508245
  31.6285322 113.1922350  51.4073573  31.9541579 111.4628951  37.4589690
  31.6054383 112.1148676  37.9221239  31.4738025 111.4486064  36.7313561
  31.8311823 111.5572005  37.4200781  38.6831751 118.6227537  52.8159140
  38.0688745 118.0785588  53.1107776  39.1999036 118.1091774  52.3364957
  38.6687414 118.4663947  52.7883369  37.9228049 119.6931807  50.5503439
  37.4955657 119.0681526  50.1168874  37.9152993 119.4106729  51.3762446
  37.8587190 119.5584588  50.6083267  31.0390576 114.7296981  53.6191873
  31.1984062 113.9740305  54.0243595  30.8583469 115.2787920  54.2732611
  31.0355935 114.6990794  53.7754579  38.9810879 106.8958216  54.1742663
  38.4851440 107.0921890  53.4834229  39.7379941 107.2950884  54.0031464
  39.0197703 106.9835950  54.0462799  36.2513758 110.5700562  50.7645973
  36.2756245 110.0360674  50.0758753  36.5025232 110.0617871  51.4271564
  36.2923677 110.4161466  50.7610618  32.5315081 109.2971380  50.1451717
  32.5713452 109.7980587  50.8586425  31.7064745 109.3881774  49.8757640
  32.4154606 109.3853197  50.2102256  34.7144693 118.8632120  58.2472012
  33.8640324 119.0003835  58.3829657  34.8772821 118.1295899  58.6919714
  34.6128557 118.7746221  58.3327611  33.9529444 115.8131890  52.4425616
  33.1221374 115.9805708  52.2360865  33.8980961 115.4367841  53.2274502
  33.8218859 115.7821621  52.5274145  31.7613227 109.3040783  58.0782027
  32.3865931 108.7602916  58.3511459  31.3063707 108.8235701  57.5089817
  31.7861488 109.1530264  58.0343621  32.3265488 114.0887482  42.9715734
  32.4668449 114.5859946  43.6744375  32.8248021 113.3873776  43.1129948
  32.4206569 114.0589460  43.0967313  32.3565710 114.9554593  40.3008311
  32.9910790 115.5515018  40.2357773  32.4391321 114.6558050  41.1154181
  32.4622261 114.9995501  40.4111398  45.3348276 117.4870070  53.1694675
  45.9266116 118.1267321  53.2012873  45.7707270 116.7893107  53.4586742
  45.4866707 117.4788420  53.2175508  33.9344693 110.8868568  40.2753753
  34.2560534 110.4071651  39.6213015  34.1971637 111.6968214  40.0844565
  34.0210718 110.9358466  40.1509245  39.3303848 110.2740762  52.6377232
  39.7558920 109.8213288  52.0260758  38.7160841 109.7200833  52.9142019
  39.3032493 110.1254738  52.5882257  37.7698071 106.7455862  46.0467809
  37.1266389 106.5953508  46.6152947  37.4297478 106.4998207  45.2816914
  37.6243148 106.6867984  46.0170824  42.3597417 114.7015289  45.4697818
  41.6888607 115.2444991  45.3410883  43.0537168 115.1710144  45.2279512
  42.3626285 114.8513560  45.4153345  42.5225545 111.1571172  48.3788191
  42.8753155 110.7300895  49.0533990  41.6640346 111.0722016  48.5089267
  42.4474989 111.0815913  48.4983201  31.2209230 113.7878692  46.4371037
  30.5021219 114.2042825  46.7043901  31.5921592 114.3532931  45.8862676
  31.1701162 113.9327973  46.3953844  40.5208811 114.4206541  52.3273033
  40.5006738 114.2389836  53.1807812  40.5688011 115.2918559  52.3032617
  40.5243452 114.5223079  52.4496328  36.9955804 112.8276692  41.7744417
  36.4020643 113.1493688  41.2228984  37.0331082 111.9817787  41.5665523
  36.9130193 112.7501020  41.6627188  43.9549605 106.2789584  49.3072503
  43.4480470 105.5718724  49.2393681  44.7517039 105.9482773  49.4373580
  43.9976844 106.1262736  49.3171498  39.8713621 112.7856196  45.2046167
  39.6427314 112.8088898  44.3624525  40.1311697 111.9613663  45.3241178
  39.8759809 112.6672276  45.0971365  34.1532849 114.6390669  54.8071267
  33.6411752 114.0311852  55.1656299  33.9812345 115.3547262  55.2745243
  34.0522486 114.6553969  54.9287491  28.9998564 113.0828245  57.4573629
  28.8301154 113.7429620  56.9121836  28.5564514 113.2934806  58.1786118
  28.9097897 113.2114227  57.4835259  32.9258383 111.3232743  46.5000363
  33.4015749 111.6849823  45.8650544  32.4246983 111.9789210  46.7800505
  32.9223742 111.4726931  46.4477104  46.1569745 120.7954511  42.2913368
  46.5403351 121.5445867  42.5211465  45.3613858 121.0420330  42.0325357
  46.0963527 120.9424205  42.2870941  38.0301919 112.5614914  57.2473523
  38.5873350 112.3328724  56.6151988  37.7062985 113.3220580  56.9708735
  38.0648330 112.6398751  57.1130020  25.9000628 115.9875110  52.7162119
  25.3527348 115.3175756  52.8342987  26.6893007 115.6204958  52.7805586
  25.9352812 115.8340097  52.7430819  35.7485037 115.6482567  58.2125530
  36.4996364 115.9634244  58.5265084  35.9407613 115.4461738  57.3859452
  35.8876451 115.6649949  58.1368926  34.9685036 113.4673942  39.8673747
  35.3484001 113.4853572  39.0824861  34.2277632 113.9127931  39.7464594
  34.9153874 113.5355717  39.7337315  42.5970327 111.7756134  45.4549325
  42.5964553 111.6204790  46.3133602  42.3926507 112.6219121  45.3990711
  42.5670105 111.8776754  45.5737265  40.3211179 116.4553635  49.1085532
  40.8164844 115.7376631  49.0689553  39.5110955 116.1524433  48.9940019
  40.2755072 116.3051282  49.0859258  42.3862998 119.2057323  51.7962661
  42.8118069 118.6831745  51.2433086  42.0219918 119.8038160  51.2751284
  42.3949600 119.2167550  51.6371671  35.8911092 107.6919058  55.0821913
  36.0238998 106.8950051  55.4102889  36.2756245 108.2185461  55.6620189
  35.9667421 107.6518975  55.2165416  38.9643447 104.6149384  51.6803007
  38.1589411 104.5047114  51.9970845  38.8350183 104.7161840  50.8232872
  38.8263580 104.6133054  51.6011047  42.4209408 110.7794876  52.2742703
  41.8372397 111.2804082  51.8620271  42.7413702 110.2724432  51.6407027
  42.3822583 110.7786711  52.1201211  34.9604207 109.6935471  42.5501378
  35.7819901 109.8633784  42.3083073  34.4973858 109.8482732  41.8267676
  35.0135369 109.7417204  42.4073023  33.5499539 107.6878233  53.3299807
  34.0943952 107.3469360  53.9204149  33.6036475 108.5463694  53.4721092
  33.6388658 107.7633492  53.4381680  52.7839400 121.2965685  46.3536653
  52.4692841 121.9869164  46.7857075  52.2666341 121.2410468  45.6522154
  52.6603870 121.3900574  46.3133602  47.8175730 122.7789181  43.3237127
  48.5461890 122.6005136  42.8775283  47.9070623 123.6207260  43.5344305
  47.9382392 122.8773059  43.2890644  54.7561685 124.5829673  50.2201252
  55.3987593 124.6527778  50.8063167  55.0084705 123.9158896  49.7180794
  54.8883817 124.4956022  50.2328531  51.3746279 123.2973934  50.6889369
  51.7556791 122.6152105  51.0757244  50.5709564 123.0083536  50.5065034
  51.3122741 123.1540983  50.7193425  52.0102905 124.3396513  54.5009496
  52.7556497 124.1506324  54.0872921  51.5940210 124.8654751  53.9423352
  52.0587880 124.3898659  54.3574069  50.0553826 124.7679037  45.1706756
  50.7580179 124.5686786  44.6926714  49.7898015 123.9954980  45.4775599
  50.1200458 124.6242003  45.1452198  52.2013935 119.4059707  48.3003303
  52.3197503 119.8636170  47.5670605  52.0276111 118.6004968  48.0139520
  52.1933106 119.3553479  48.1504236  49.1691499 121.2610510  49.2421965
  48.2985057 121.2349231  49.1955274  49.4231840 121.0887702  48.4247810
  49.0785059 121.2320653  49.1142101  48.2632873 123.8109698  52.5288288
  47.8764626 123.8358729  53.3101817  47.7765810 123.2451377  52.0762804
  48.1345382 123.7305449  52.5776191  47.9290015 120.6976683  54.8198547
  48.5583133 121.2336984  54.5419618  48.0975877 120.6054042  55.6712113
  48.0467809 120.7638046  54.9047076  51.4213933 123.2312572  47.7883849
  51.6263527 123.1634880  48.6340846  51.0940357 124.0371393  47.7205027
  51.4029181 123.3398512  47.9043504  54.6747621 123.7844336  47.2686615
  54.0621935 124.2714738  47.6540347  54.7711796 123.1087827  47.8124266
  54.5985519 123.7562645  47.4065473  49.9543462 122.4143524  54.1742663
  49.4584024 122.6107198  53.4834229  50.7112524 122.8136192  54.0031464
  49.9930287 122.5021258  54.0462799  48.7430654 122.2641170  46.0467809
  48.0998972 122.1138816  46.6152947  48.4030061 122.0183515  45.2816914
  48.5975732 122.2053292  46.0170824  54.9282188 121.7974892  49.3072503
  54.4213053 121.0904032  49.2393681  55.7249622 121.4668081  49.4373580
  54.9709428 121.6448043  49.3171498  46.8643676 123.2104366  55.0821913
  46.9971581 122.4135359  55.4102889  47.2488829 123.7370769  55.6620189
  46.9400005 123.1704282  55.2165416  49.9376031 120.1334692  51.6803007
  49.1321995 120.0232422  51.9970845  49.8082766 120.2347148  50.8232872
  49.7996164 120.1318362  51.6011047   2.4087793  36.2168082  34.7747155
   1.5785496  36.4278726  34.9380571   2.3597045  35.3905137  34.4989438
   2.2794528  36.1257689  34.7584520   1.9041751  28.8638483  38.5697576
   1.0670172  28.9340670  38.8045171   1.8729982  28.8662978  37.6971878
   1.7760033  28.8748710  38.4757124   2.7996454  33.6048357  33.8031508
   3.4612888  33.0439025  33.7027416   2.1587866  33.1100387  34.1284199
   2.8025321  33.4484766  33.8363848   0.9151741  33.4615405  31.3813100
   1.2459958  33.9943045  30.7753195   1.4884829  33.5154293  32.0375051
   1.0485420  33.5484974  31.3890882   2.0231093  28.7025902  32.8853262
   1.7667658  27.8905843  32.6951145   2.8660407  28.7103469  32.6583449
   2.1097118  28.5837899  32.8238079   6.4294465  32.2812947  38.1108453
   6.3618965  32.3008906  37.2411040   6.4150127  33.1243275  38.3364124
   6.4173221  32.4086682  38.0160930   4.2153082  31.0557334  36.3855048
   4.7661004  30.4225403  36.6252140   4.1997198  31.5872726  37.0770552
   4.2938279  31.0406282  36.5233906   3.1460555  34.2012864  39.6304178
   3.2043679  34.6499513  40.3764154   2.5127023  34.6111677  39.1934258
   3.0611850  34.3286599  39.6756726   2.0987421  29.0030609  35.6699127
   1.8597191  28.9626444  34.8319912   2.2621323  29.8501761  35.7964848
   2.0877725  29.1222694  35.5652609   1.1368766  32.3506970  40.1034722
   1.7286606  32.9904220  40.1352920   1.5727760  31.6530006  40.3926789
   1.2887197  32.3425320  40.1515555   1.9590234  35.6591410  29.2253415
   2.3423840  36.4082766  29.4551512   1.1634348  35.9057230  28.9665404
   1.8984017  35.8061104  29.2210988  11.4508010  46.2362345  31.3183775
  11.4202014  47.0906982  31.4902045  12.0489359  45.9357638  31.8769919
  11.5345168  46.3178842  31.4258578   4.6507695  45.3237996  36.0736706
   3.7945590  45.4846495  36.1245823   4.6975348  44.4530060  36.0941767
   4.5306806  45.2188798  36.0842772   7.9601411  51.5924522  45.6797162
   8.6668179  51.0976553  45.8084096   8.1489347  52.0333603  44.9499820
   8.0929317  51.5842872  45.5906207   4.4873794  55.2826084  27.2659485
   4.1525163  55.9603005  26.8303707   5.0000665  54.8931395  26.6776356
   4.5139375  55.3250662  27.1146276   4.0278086  57.2340352  33.2070596
   4.4117465  57.8027251  32.6675371   3.9637227  56.5089863  32.7276412
   4.0751513  57.2115816  33.0564459   7.4959516  47.3830040  38.7168358
   8.0415476  48.0615127  38.7762327   7.4376392  47.2417501  37.8569939
   7.5675430  47.4622042  38.5980418   9.2724584  48.8114647  29.5902085
   9.1564110  49.5622333  30.0194223  10.0680471  48.5538601  29.8398172
   9.3729174  48.8849494  29.6906177   1.1554910  52.8008670  30.8771428
   1.4770751  53.3413878  30.2732736   1.8027006  52.2305442  31.0093718
   1.2980965  52.7967845  30.8078463   3.2056618  44.8024665  30.9605814
   3.9036783  44.9812793  31.4527278   3.5208951  44.2795005  30.3376204
   3.3551955  44.7518437  30.9407825   3.3944553  51.1895110  30.9485606
   3.8338189  50.5812211  31.3940379   3.2449216  50.8102484  30.1771071
   3.4366019  51.0433581  30.9004773   0.8616196  49.7839122  38.1504431
   1.5065199  49.2911565  37.8315380   1.1017973  49.9263909  38.9770510
   0.9926781  49.7316564  38.2253965   3.4002288  52.6294028  37.8011324
   3.6825531  51.8345434  37.5798080   4.1288448  53.1074615  37.8216385
   3.5491851  52.5828625  37.7714339   1.3783482  40.1717062  35.0427089
   1.0486812  40.6228206  34.3730788   0.7028483  40.0933225  35.5900095
   1.2293918  40.2268197  35.0250312   6.9953890  49.5422292  27.9016375
   6.9105185  50.3983258  28.0465944   7.4838273  49.2666616  28.5698534
   7.0542787  49.6279613  28.0218457   8.5859889  36.1602585  33.2876700
   8.2713330  36.8506063  33.7197122   8.0686831  36.1047367  32.5862200
   8.4624360  36.2537473  33.2473649   7.9272323  46.1607086  29.4014110
   7.3983795  46.3766719  30.0611416   8.4497343  46.8543224  29.3215080
   7.9260776  46.2950223  29.4869709  13.3820376  51.7353390  34.7747155
  12.5518079  51.9464034  34.9380571  13.3329628  50.9090445  34.4989438
  13.2527111  51.6442997  34.7584520   1.4430114  54.5657244  37.6095064
   0.9257055  54.2064659  37.0056372   2.1404505  54.0419419  37.6201130
   1.4695695  54.4354932  37.5225323   5.0993706  55.0152058  43.5711237
   5.1877051  54.8278199  44.4189448   5.5283418  54.3689488  43.1716084
   5.1755808  54.8915066  43.6382989   2.6664165  54.2983218  42.5528899
   2.1035000  53.8855828  43.0768561   3.4285189  54.2236124  42.9722043
   2.6958614  54.2260619  42.6921900   4.2749145  46.3035955  26.6790499
   4.5145149  46.5113938  25.8665842   4.5964986  45.4993463  26.7879443
   4.3586303  46.2150056  26.5751052  12.8774334  44.3823791  38.5697576
  12.0402755  44.4525978  38.8045171  12.8462565  44.3848286  37.6971878
  12.7492617  44.3934018  38.4757124   3.6196219  37.6426080  30.2577174
   4.3482380  37.4642035  29.8115330   3.7091112  38.4844160  30.4684352
   3.7402882  37.7409958  30.2230691   7.6004520  48.5779467  34.1609468
   8.3562035  49.0110982  34.1998376   7.7066845  47.9284237  34.7344104
   7.7274691  48.5456951  34.2507493  10.6384691  52.4052745  34.9111871
  10.2019923  52.4089487  35.6670842  10.3047607  53.0858244  34.4791448
  10.5247311  52.5065200  34.9592703   5.2113765  54.4461077  46.2355021
   5.9954182  54.5591925  46.6010763   5.0110359  53.6202215  46.4313707
   5.2979790  54.3407797  46.3189407  10.5582174  39.4466572  37.1541298
  11.2008083  39.5164677  37.7403214  10.8105195  38.7795795  36.6520840
  10.6904306  39.3592921  37.1668578   5.3684158  56.3571180  39.8821476
   4.5699404  56.1170680  40.1395345   5.8170170  56.4085572  40.6288524
   5.3158769  56.3293571  40.0306401  13.7729037  49.1233665  33.8031508
  14.4345472  48.5624333  33.7027416  13.1320449  48.6285695  34.1284199
  13.7757905  48.9670074  33.8363848   4.6605845  52.4203796  26.1112431
   5.0756994  52.0888820  25.4196927   3.8297775  52.1872698  25.9832568
   4.5993854  52.3375052  25.9903278  10.0593868  50.1399047  33.5443497
  10.2949457  50.2844246  32.7170347  10.2083432  50.9041455  33.9375010
  10.1159671  50.2738101  33.4807100  11.8884325  48.9800713  31.3813100
  12.2192542  49.5128353  30.7753195  12.4617413  49.0339601  32.0375051
  12.0218004  49.0670282  31.3890882   4.4284895  50.1031624  47.7741665
   3.6357876  50.4175136  47.9594284   4.5433822  50.3183093  46.9362449
   4.3280306  50.1815461  47.6779999   7.1016214  46.8265616  32.0636680
   7.1963068  47.5654910  32.5176306   6.4775058  46.3983091  32.4971245
   7.0225244  46.8726936  32.1944828   5.3568688  50.0051828  42.7126961
   5.9307550  49.3679072  42.8675525   5.2783492  50.0055911  41.8436619
   5.4301923  49.9116940  42.6073372   7.3539235  48.6714355  25.2973632
   7.2719398  48.7416542  26.1628619   7.9918956  49.2344099  25.1057373
   7.4359073  48.7653326  25.3963582   5.7933457  40.5403544  34.8652251
   5.0889783  40.0512729  35.0236171   5.8418431  40.5526018  33.9940696
   5.6963508  40.4693192  34.7591591   3.3540407  44.4636205  40.1105432
   2.9654840  44.0390423  39.4557623   2.6895106  44.7118355  40.6182459
   3.1987335  44.4374926  40.0893300  12.9963676  44.2211210  32.8853262
  12.7400241  43.4091151  32.6951145  13.8392990  44.2288777  32.6583449
  13.0829702  44.1023207  32.8238079   7.1766769  38.1610834  37.6229416
   7.5577281  37.4789005  38.0097290   6.3730053  37.8720436  37.4405081
   7.1143231  38.0177882  37.6533472   4.4579346  48.6934810  28.3082239
   5.2719984  48.9849702  28.1965010   4.3938487  48.0394672  27.7340532
   4.5682085  48.6400004  28.2071076  10.6788836  51.3760806  42.7211815
  10.4427473  50.5448871  42.6023875  11.3232065  51.3246413  43.3066659
  10.7383506  51.2458494  42.7897708   0.9690069  47.3858617  27.7729440
   1.3535222  47.1666324  28.5245986   0.7201689  48.2121562  27.9030517
   0.9892141  47.4756763  27.9030517   1.1358609  40.6665032  47.4892025
   0.8212050  41.4364595  47.2261587   0.8148542  40.1035288  46.9044252
   1.0417528  40.6975301  47.3633375  11.7025256  51.1605255  38.7840109
  11.3971073  51.8933311  39.1453425  10.9831472  50.7543184  38.5032895
  11.5512599  51.2086988  38.7953246   2.7108726  52.6428750  35.1148337
   2.7847734  52.4803922  35.9690187   3.5278232  52.8318939  34.8708819
   2.8425084  52.6465492  35.2046363  17.4027049  47.7998255  38.1108453
  17.3351549  47.8194214  37.2411040  17.3882711  48.6428582  38.3364124
  17.3905805  47.9271990  38.0160930   7.8123395  39.2033413  41.4349543
   8.5576987  39.0143223  41.0212968   7.3960700  39.7291651  40.8763399
   7.8608369  39.2535558  41.2914116   1.2513311  55.6063493  29.8461811
   1.5411610  55.2152474  29.1221037   1.9816792  55.7880198  30.2867086
   1.4020196  55.5757307  29.8044618  15.1885666  46.5742641  36.3855048
  15.7393587  45.9410710  36.6252140  15.1729781  47.1058034  37.0770552
  15.2670862  46.5591590  36.5233906   1.8408057  50.4081239  40.9314941
   1.3419750  51.1197006  41.0099830   2.6508281  50.7281905  40.8933104
   1.8864163  50.5608087  40.9371510   8.8914072  44.8138975  35.4959644
   8.5478838  44.0929310  35.8466894   8.9907115  44.6052826  34.6538002
   8.8556115  44.6763178  35.4231324   1.3587183  58.9560265  31.6952653
   2.0111241  58.4236707  31.9243679   0.6612792  58.6028917  32.0820527
   1.3517901  58.8249788  31.7864821   9.3527101  51.2764679  31.0383632
   9.9185134  51.9357889  30.9542175   8.7055005  51.6214377  31.5100034
   9.3405858  51.4246620  31.0956389   5.8233679  54.2203463  30.4620711
   5.5820355  53.4871324  30.0547776   6.0035012  54.7690320  29.8087045
   5.8141303  54.1925855  30.3050934   1.0533000  49.5112023  31.8741634
   0.8575783  50.1186758  31.2801937   1.2767345  48.8179967  31.3933308
   1.0567641  49.4989549  31.7157714   7.4105037  42.7330560  37.3719187
   6.5716138  42.7591839  37.1357450   7.4809405  43.3801295  37.9524533
   7.2973431  42.8326686  37.4228304   5.8574316  39.6315937  32.1046803
   6.5600669  39.4323685  31.6266761   5.5918504  38.8591879  32.4115646
   5.9220948  39.4878903  32.0792244  11.2862561  47.9398547  34.6580429
  11.1996536  48.0953973  35.5115207  10.8313041  48.5836622  34.2839834
  11.2065818  48.0574302  34.7287535   5.1588377  45.2609294  33.2805988
   4.9123092  45.1805045  34.1142777   5.4873500  44.4762762  33.0868516
   5.1709621  45.1335559  33.3753511   9.0536426  51.9692653  37.0692769
   8.9150785  52.6673699  37.5741512   8.2736424  51.8141310  36.7128951
   8.9179653  52.0492820  37.0919044   7.3914511  48.2689028  43.3215151
   7.3862550  47.3968845  43.3257578   8.0975505  48.4677198  42.8484607
   7.4959515  48.1692903  43.2522186   1.1185405  47.9966012  42.6928971
   1.2628780  48.5767220  42.0572081   1.4661053  48.3742309  43.3978826
   1.1912866  48.1386716  42.7027966   3.2905322  47.1956181  40.4754103
   2.5428636  47.3887195  40.0702381   3.4446847  46.3701400  40.2378224
   3.2027750  47.1021292  40.3799509  10.5489799  51.3270907  27.8309269
  10.1696608  50.5408045  27.8238558   9.8856044  51.8757764  27.6880913
  10.3948274  51.2915731  27.8090065   2.7166460  56.3583427  40.8374489
   2.6410131  55.6892238  41.3925277   2.6456319  57.0601215  41.3515155
   2.6947067  56.3628334  40.9951337   3.5307099  41.0906731  41.3649507
   3.9879713  41.8230706  41.4922299   3.6063428  40.6673197  42.1236762
   3.6098069  41.1363969  41.4950583   8.0034425  34.2696607  35.2343349
   8.1217993  34.7273070  34.5010652   7.8296601  33.4641868  34.9479567
   7.9953596  34.2190379  35.0844283   3.3736707  54.8784426  31.6698095
   4.1386598  54.6094070  31.3480759   3.2714797  54.3934436  32.3868158
   3.4718203  54.7673991  31.7277922   1.4089477  43.0808835  38.2091331
   0.6185552  42.9000295  38.5308666   1.8050100  42.3035788  38.1921625
   1.3506353  42.9396296  38.2543879   5.8955368  51.9096610  23.6498044
   6.6628353  51.9696735  23.2403896   5.4486677  51.3377051  23.1654363
   5.9428795  51.8333185  23.5175754   6.7933163  50.7151265  35.9350776
   6.1178165  50.4836498  36.4364163   6.8025539  50.1072448  35.3092881
   6.6951668  50.5910191  35.9166929   3.9227307  45.5569094  42.6914829
   3.8586448  46.4179051  42.5634966   4.0624495  45.2401088  41.8910381
   3.9342777  45.6369261  42.5543042   8.7949898  53.5716398  28.1660954
   8.8769735  54.3783384  27.8422405   9.2799640  53.5912357  28.8901728
   8.8787056  53.6937060  28.2247853   2.6046401  48.2501234  36.8331032
   2.1808650  48.4505733  36.0970051   2.4291256  47.4030082  36.9455332
   2.5157282  48.1550015  36.7404722   2.1058095  59.7651747  39.2952490
   2.5954025  59.0662536  39.1128154   1.5342327  59.4675617  39.8828547
   2.0942625  59.6177970  39.3553530   4.4307991  48.1211169  31.1352368
   4.9723536  47.6181550  31.5990989   4.7454550  48.0676363  30.3241853
   4.5572388  48.0390590  31.0836180   8.3025098  52.3313816  48.2479280
   9.1159963  52.0598965  48.4084413   8.1420064  52.0321356  47.4439476
   8.3995047  52.2468742  48.1524686   2.5994440  53.5128520  28.4192396
   2.6687261  52.6543059  28.5585397   3.3782896  53.7300401  28.0911421
   2.7247290  53.4181384  28.3909553   5.5797260  43.0147473  41.1874669
   5.7939230  42.3758388  40.6338023   4.9631159  43.4593297  40.7582530
   5.5202589  42.9857617  41.0425100   6.9901928  55.9366222  32.6328889
   6.5981720  55.6332937  31.9151756   7.1455000  56.7735312  32.4433843
   6.9555518  56.0150058  32.4985387   7.7436348  44.6236538  42.1257976
   6.9313030  44.3162429  42.2071148   8.2026283  44.1435539  42.6900688
   7.6916733  44.5073031  42.2212570   7.1541603  52.5016210  32.5734920
   6.7956258  52.6730853  33.3498952   6.6680314  52.9629416  32.0162918
   7.0300300  52.5955182  32.6060189   4.9711989  36.1247409  36.1762011
   4.1005547  36.0986130  36.1295321   5.2252330  35.9524601  35.3587857
   4.8805549  36.0957553  36.0482148   1.9429968  48.1815376  25.1135154
   2.2322493  48.9580258  25.3878729   2.0301767  47.6704107  25.8149654
   1.9984224  48.2207294  25.2577652   4.8389856  46.0296610  46.9086678
   5.3089487  46.6538726  47.2954552   4.8851736  45.3613585  47.4679893
   4.9157731  46.0231290  47.0486749   1.9961129  38.1353637  37.6335482
   1.4799618  37.4433829  37.7587061   1.4355058  38.8024414  37.5798080
   1.8367642  38.1316895  37.6441548   4.0653363  38.6746597  39.4628334
   3.6785116  38.6995629  40.2441864   3.5786300  38.1088276  39.0102851
   3.9365872  38.5942348  39.5116238   8.3146342  53.3920106  43.5202121
   8.9526063  52.8980302  43.1864577   7.6720434  53.3197507  42.9354348
   8.3140569  53.3079115  43.3844476  10.0403342  45.2409252  38.0868036
   9.6130950  45.1535601  37.3316136   9.4029395  45.3487028  38.6722881
   9.8832949  45.2441912  38.0613478   3.7310504  35.5613583  41.7538594
   4.3603622  36.0973883  41.4759665   3.8996367  35.4690942  42.6052160
   3.8488299  35.6274945  41.8387122   3.5324419  40.3484778  44.0265006
   4.3597849  40.0769927  44.0823620   3.5532265  41.1445619  44.3828824
   3.6577269  40.4264532  44.0880189   8.3700599  54.0839915  40.1607478
   9.1592977  53.7328979  40.2809559   8.5444197  54.8976303  39.8984111
   8.5120880  54.1525772  40.1395346   7.2234423  38.0949471  34.7223896
   7.4284016  38.0271779  35.5680893   6.8960847  38.9008293  34.6545073
   7.2049671  38.2035412  34.8383551   1.9210574  45.4230040  36.4632864
   1.6173712  44.8686028  37.0643272   1.2189995  45.6022250  35.9760898
   1.7726784  45.3674822  36.4802570   0.9776671  42.7330559  31.0277566
   1.2536405  42.0149472  30.6155133   1.5775340  43.3315479  30.8198672
   1.1069936  42.7150930  30.9358327  10.4768111  38.6481236  34.2026661
   9.8642424  39.1351638  34.5880393  10.5732285  37.9724727  34.7464313
  10.4006008  38.6199544  34.3405520   4.4787192  40.4044077  29.3024161
   4.9330938  40.5754637  30.0272005   4.9527237  39.7912187  28.9021937
   4.6155512  40.3394962  29.3497922  14.1193139  49.7198172  39.6304178
  14.1776262  50.1684821  40.3764154  13.4859606  50.1296985  39.1934258
  14.0344434  49.8471907  39.6756726   7.7592233  55.3401714  36.0658924
   7.5611922  55.8292529  35.3715135   7.1379944  55.5442956  36.6443057
   7.6379798  55.4418253  36.0482147   1.8200212  47.1086611  30.4069168
   2.5642257  47.4960887  30.6452118   1.9660908  46.2644037  30.5709656
   1.9510797  47.0417084  30.4663138   3.7379787  38.9036870  35.4401029
   2.8915832  39.0759678  35.3142379   3.7350920  38.0986214  35.7766858
   3.6126937  38.8097899  35.4712156   4.8078087  42.6812084  36.3063087
   4.3338042  42.1553846  36.8168398   5.1796223  42.1341557  35.7377949
   4.7927976  42.5228081  36.2978235  11.0714818  47.7414460  37.7169868
  10.8313041  46.9020875  37.7212294  11.5506825  47.8214627  38.4410641
  11.1067002  47.6295860  37.8244670   6.7361587  43.5748639  29.3688841
   6.2084606  43.6577383  28.6794550   7.1957295  44.3166510  29.3653486
   6.7263438  43.6969301  29.2663536  13.0720005  44.5215917  35.6699127
  12.8329775  44.4811751  34.8319912  13.2353906  45.3687069  35.7964848
  13.0610309  44.6408002  35.5652609   9.6766035  48.9065867  41.6004172
  10.4000234  48.4538393  41.4215192   9.4115997  49.1870532  40.8176500
   9.7447308  48.8816835  41.4582888   6.2898670  52.1452203  28.4998498
   7.0132868  52.6110316  28.3563072   5.8499261  52.2125812  27.7496095
   6.3314362  52.2236039  28.3683280   5.4584825  49.0049745  39.7499187
   4.8441818  48.4607795  40.0447823   5.9752110  48.4913981  39.2705003
   5.4440487  48.8486154  39.7223416   4.6981122  50.0754015  37.4843486
   4.2708730  49.4503734  37.0508921   4.6906066  49.7928937  38.3102493
   4.6340263  49.9406796  37.5423313   5.7563952  37.2780424  41.1082709
   5.2604513  37.4744098  40.4174276   6.5133014  37.6773092  40.9371511
   5.7950777  37.3658157  40.9802846   3.0266832  40.9522769  37.6986020
   3.0509319  40.4182882  37.0098800   3.2778305  40.4440078  38.3611610
   3.0676750  40.7983673  37.6950665   1.4897767  49.2454328  45.1812059
   0.6393397  49.3826042  45.3169704   1.6525894  48.5118106  45.6259760
   1.3881630  49.1568429  45.2667658  12.1101349  47.8692277  40.1034722
  12.7019189  48.5089528  40.1352920  12.5460344  47.1715314  40.3926789
  12.2619780  47.8610628  40.1515555   0.7097766  41.2690775  27.2093800
   1.0313607  40.7893858  26.5553062   0.9724710  42.0790422  27.0184611
   0.7963792  41.3180673  27.0849292   3.9394739  52.2909650  40.7292616
   3.4319830  52.8445497  41.1733246   3.6421385  52.3517940  39.9111390
   3.8199624  52.3815961  40.6741073   6.1056921  40.6562969  39.5717279
   6.5311993  40.2035496  38.9600805   5.4913914  40.1023040  39.8482066
   6.0785567  40.5076946  39.5222304   6.5502519  56.2072908  28.6596559
   5.8331829  56.0333770  28.1943797   7.2009257  55.9725480  28.1272045
   6.5404370  56.1468700  28.5125777   4.5451144  37.1278069  32.9807856
   3.9019462  36.9775716  33.5492994   4.2050551  36.8820415  32.2156960
   4.3996221  37.0690192  32.9510871   9.1350491  45.0837496  32.4037864
   8.4641680  45.6267198  32.2750930   9.8290241  45.5532351  32.1619559
   9.1379358  45.2335767  32.3493392   3.1837224  57.2234208  37.6349623
   2.9602879  56.4653037  38.0033649   2.6947068  57.2532229  36.9130062
   3.0780673  57.1156433  37.5826364   9.2978618  41.5393380  35.3128238
   9.6506228  41.1123103  35.9874036   8.4393419  41.4544223  35.4429314
   9.2228063  41.4638120  35.4323248   7.2961884  44.8028748  39.2613080
   7.2759811  44.6212043  40.1147859   7.3441085  45.6740767  39.2372664
   7.2996525  44.9045287  39.3836375   5.2408214  51.3915940  45.1861556
   5.2004069  50.7465617  44.6006712   6.0531532  51.3352558  45.4986968
   5.3551367  51.2874907  45.1458506   1.8315681  57.4434666  35.0886707
   1.4176080  56.7808796  34.6990549   2.5163055  57.5912525  34.5682402
   1.8714053  57.3675324  34.9543204   5.1980975  56.6024751  35.8410324
   4.7997259  56.7127022  35.0731144   4.5832195  56.8106818  36.4236884
   5.0479865  56.6498319  35.8141623   3.7708877  43.2098899  28.7084464
   3.1773717  43.5315896  28.1569031   3.8084155  42.3639995  28.5005570
   3.6883266  43.1323228  28.5967235  10.7302678  36.6611792  36.2412550
  10.2233543  35.9540931  36.1733728  11.5270112  36.3304980  36.3713627
  10.7729917  36.5084943  36.2511545   6.6466694  43.1678404  32.1386214
   6.4180387  43.1911105  31.2964572   6.9064770  42.3435871  32.2581224
   6.6512882  43.0494484  32.0311412  12.9322818  51.1776718  29.2253415
  13.3156424  51.9268074  29.4551512  12.1366931  51.4242538  28.9665404
  12.8716600  51.3246412  29.2210988   4.8054993  42.9437121  44.1813570
   5.3626423  42.7150931  43.5492035   4.4816058  43.7042787  43.9048782
   4.8401403  43.0220958  44.0470067   2.5238110  46.0304775  45.1465577
   3.2749437  46.3456452  45.4605131   2.7160686  45.8283946  44.3199499
   2.6629524  46.0472157  45.0708973   1.7438110  43.8496150  26.8013794
   2.1237074  43.8675779  26.0164908   1.0030706  44.2950139  26.6804641
   1.6906947  43.9177925  26.6677362   9.3723400  42.1578341  32.3889372
   9.3717627  42.0026998  33.2473649   9.1679580  43.0041328  32.3330758
   9.3423178  42.2598962  32.5077312   7.0964252  46.8375843  36.0425579
   7.5917917  46.1198838  36.0029599   6.2864028  46.5346641  35.9280066
   7.0508145  46.6873489  36.0199305   2.5422864  50.6873656  28.1922584
   1.7334186  50.3640330  28.1455893   3.0497773  49.9806878  28.1250832
   2.4972530  50.5354973  28.1752878   9.1616071  49.5879530  38.7302708
   9.5871143  49.0653952  38.1773133   8.7972991  50.1860368  38.2091331
   9.1702674  49.5989757  38.5711718   5.7494670  53.3013795  35.0603865
   6.2205849  54.0154057  35.2293851   6.0854849  52.7012545  35.5963735
   5.8689786  53.3185259  35.1636241   7.8371655  54.9115108  47.2395937
   7.9468621  54.1223669  47.5952685   8.1662552  54.8221044  46.4370275
   7.9024061  54.7820961  47.1738328   2.6664165  38.0741265  42.0161960
   2.7992071  37.2772259  42.3442936   3.0509318  38.6007668  42.5960236
   2.7420494  38.0341182  42.1505463   6.3868617  53.0931729  41.8231558
   5.8389563  52.4689612  41.5551623   6.8481646  53.2826001  41.1075637
   6.3735826  53.0290779  41.6781989   5.7396521  34.9971591  38.6143053
   4.9342484  34.8869321  38.9310892   5.6103256  35.0984047  37.7572919
   5.6016653  34.9955261  38.5351094   9.1962481  41.1617083  39.2082750
   8.6125470  41.6626290  38.7960318   9.5166775  40.6546639  38.5747074
   9.1575656  41.1608918  39.0541257   1.7357280  40.0757678  29.4841425
   2.5572975  40.2455991  29.2423120   1.2726931  40.2304939  28.7607723
   1.7888443  40.1239411  29.3413069   5.9526943  54.0982801  38.3540899
   6.7725317  53.9545768  38.6157194   5.6721021  54.7229000  38.8957337
   6.0323686  54.1693154  38.4728839  22.4240593  61.7547653  31.3183775
  22.3934598  62.6092290  31.4902045  23.0221942  61.4542946  31.8769919
  22.5077751  61.8364150  31.4258578  15.6240278  60.8423304  36.0736706
  14.7678174  61.0031802  36.1245823  15.6707932  59.9715368  36.0941767
  15.5039390  60.7374106  36.0842772  10.0081418  70.3786022  31.8373937
   9.2564318  70.0001560  31.6089983  10.4567430  70.4104456  31.0892748
   9.9631085  70.3271629  31.6931440  18.9333995  67.1109830  45.6797162
  19.6400762  66.6161861  45.8084096  19.1221930  67.5518911  44.9499820
  19.0661900  67.1028180  45.5906207  15.4606378  70.8011392  27.2659485
  15.1257746  71.4788313  26.8303707  15.9733248  70.4116703  26.6776356
  15.4871959  70.8435970  27.1146276  15.0010669  72.7525660  33.2070596
  15.3850049  73.3212559  32.6675371  14.9369810  72.0275171  32.7276412
  15.0484096  72.7301124  33.0564459  18.4692099  62.9015348  38.7168358
  19.0148059  63.5800435  38.7762327  18.4108976  62.7602809  37.8569939
  18.5408014  62.9807350  38.5980418  11.5866174  70.3904414  34.1036710
  11.6876537  69.5804768  34.4133838  10.9907919  70.2961361  33.4736388
  11.5138713  70.2569442  34.0562948  20.2457168  64.3299955  29.5902085
  20.1296694  65.0807641  30.0194223  21.0413055  64.0723909  29.8398172
  20.3461757  64.4034802  29.6906177  11.4266914  75.3082003  35.5051566
  12.0704369  75.7495167  35.8947724  11.7523169  74.5035430  35.4181825
  11.5698742  75.2547198  35.5497043   4.7831218  66.4124701  33.7289044
   4.5481403  65.5792353  33.6221312   4.9216859  66.6929366  32.9150245
   4.7686881  66.3308204  33.5931399   7.0821306  58.5810431  36.6273351
   6.4626338  57.9903079  36.4583366   6.9805170  59.1721867  35.9937675
   6.9758981  58.5814514  36.5078341  12.1287494  68.3193978  30.8771428
  12.4503335  68.8599186  30.2732736  12.7759590  67.7490750  31.0093718
  12.2713549  68.3153153  30.8078463  14.1789202  60.3209973  30.9605814
  14.8769366  60.4998101  31.4527278  14.4941534  59.7980313  30.3376204
  14.3284539  60.2703745  30.9407825   6.8090439  62.1262713  38.8716920
   6.6849136  62.7125159  39.5066739   7.4608723  61.6322909  39.1729195
   6.8864088  62.1401518  39.0102850  14.3677137  66.7080418  30.9485606
  14.8070772  66.0997519  31.3940379  14.2181800  66.3287792  30.1771071
  14.4098603  66.5618889  30.9004773  11.8348780  65.3024430  38.1504431
  12.4797782  64.8096873  37.8315380  12.0750557  65.4449217  38.9770510
  11.9659365  65.2501872  38.2253965  14.3734871  68.1479336  37.8011324
  14.6558114  67.3530742  37.5798080  15.1021032  68.6259923  37.8216385
  14.5224435  68.1013933  37.7714339  12.3516065  55.6902370  35.0427089
  12.0219395  56.1413513  34.3730788  11.6761067  55.6118533  35.5900095
  12.2026501  55.7453505  35.0250312  17.9686474  65.0607600  27.9016375
  17.8837769  65.9168566  28.0465944  18.4570857  64.7851924  28.5698534
  18.0275371  65.1464921  28.0218457  19.5592473  51.6787893  33.2876700
  19.2445914  52.3691371  33.7197122  19.0419415  51.6232675  32.5862200
  19.4356943  51.7722781  33.2473649  18.9004907  61.6792394  29.4014110
  18.3716378  61.8952027  30.0611416  19.4229927  62.3728532  29.3215080
  18.8993360  61.8135531  29.4869709  24.3552960  67.2538698  34.7747155
  23.5250663  67.4649342  34.9380571  24.3062212  66.4275753  34.4989438
  24.2259695  67.1628304  34.7584520  10.7904515  65.5755610  28.2021578
  10.2061730  66.0805642  28.6087442  10.3874610  65.3497997  27.4618170
  10.6443818  65.6163859  28.1526603   6.3448543  71.2910372  35.0045250
   5.8616121  72.0160861  34.9804833   7.1571861  71.5886502  35.1155407
   6.3939291  71.4412725  35.0172529  12.4162697  70.0842552  37.6095064
  11.8989639  69.7249967  37.0056372  13.1137088  69.5604727  37.6201130
  12.4428278  69.9540240  37.5225323  16.0726289  70.5337366  43.5711237
  16.1609635  70.3463507  44.4189448  16.5016002  69.8874796  43.1716084
  16.1488392  70.4100374  43.6382989  13.6396749  69.8168526  42.5528899
  13.0767584  69.4041136  43.0768561  14.4017772  69.7421432  42.9722043
  13.6691198  69.7445927  42.6921900  15.2481729  61.8221263  26.6790499
  15.4877733  62.0299246  25.8665842  15.5697570  61.0178771  26.7879443
  15.3318887  61.7335364  26.5751052  10.5572019  53.7514658  30.5250037
  11.3117987  54.1192975  30.2867087  10.3799554  54.1254213  31.2929216
  10.6426498  53.8612846  30.6034925   9.1992740  71.8066548  35.1565530
   9.9013320  71.2918537  35.2138286   9.1190224  72.1340699  35.9612405
   9.2916501  71.7780774  35.2838322  23.8506918  59.9009099  38.5697576
  23.0135339  59.9711286  38.8045171  23.8195149  59.9033594  37.6971878
  23.7225200  59.9119326  38.4757124  10.2471647  62.0442134  44.2845945
  10.4192151  61.9348029  45.1331226  10.7841005  62.6896540  44.0477137
  10.3516651  62.1234136  44.3751041   8.9129084  56.1584977  27.2228150
   8.7304657  56.3756858  26.3969143   9.7754697  56.2723990  27.2786764
   9.0133673  56.2074875  27.1082637   8.5243516  67.9972899  34.6651138
   9.3632415  68.2295832  34.7124899   8.5555285  67.1277211  34.5958173
   8.6525233  67.9029846  34.6615782   9.1496219  68.4173775  38.9664443
   9.6894444  68.2744906  39.6367816   8.4666165  68.8170525  39.3348469
   9.1288373  68.4553446  39.1198865  14.5928803  53.1611388  30.2577174
  15.3214964  52.9827343  29.8115330  14.6823696  54.0029468  30.4684352
  14.7135465  53.2595266  30.2230691  18.5737104  64.0964775  34.1609468
  19.3294619  64.5296290  34.1998376  18.6799428  63.4469545  34.7344104
  18.7007274  64.0642259  34.2507493  21.6117275  67.9238053  34.9111871
  21.1752507  67.9274795  35.6670842  21.2780190  68.6043552  34.4791448
  21.4979895  68.0250508  34.9592703  16.1846348  69.9646385  46.2355021
  16.9686765  70.0777233  46.6010763  15.9842943  69.1387522  46.4313707
  16.2712374  69.8593105  46.3189407   4.5533364  64.6374065  39.1198865
   4.2871779  63.8213182  39.2789855   4.5671928  64.6827221  38.2494380
   4.5158086  64.5230970  39.0152347  21.5314758  54.9651880  37.1541298
  22.1740666  55.0349985  37.7403214  21.7837778  54.2981103  36.6520840
  21.6636890  54.8778229  37.1668578   8.4591111  59.4359150  25.7350623
   7.7449288  59.1497329  26.1473055   8.9435080  59.7755776  26.3757010
   8.4250474  59.4440800  25.8906258   9.3031970  58.1752444  41.7665872
   8.6103767  57.7049423  42.0126604   9.9192298  57.9490748  42.3407580
   9.2916500  58.0719576  41.8875025  16.3416742  71.8756487  39.8821476
  15.5431988  71.6355988  40.1395345  16.7902753  71.9270880  40.6288524
  16.2891353  71.8478879  40.0306401  24.7461621  64.6418972  33.8031508
  25.4078055  64.0809641  33.7027416  24.1053033  64.1471003  34.1284199
  24.7490489  64.4855381  33.8363848  15.6338429  67.9389104  26.1112431
  16.0489577  67.6074128  25.4196927  14.8030358  67.7058006  25.9832568
  15.5726438  67.8560360  25.9903278   4.9626778  65.4232845  36.4010609
   4.7802351  65.3979731  35.5482901   5.6976447  65.8931783  36.4399518
   5.0440841  65.4894207  36.2808527  21.0326452  65.6584355  33.5443497
  21.2682041  65.8029554  32.7170347  21.1816015  66.4226763  33.9375010
  21.0892255  65.7923409  33.4807100   8.0272529  62.1417848  42.9092718
   8.7512502  62.1270878  43.3957612   8.1288666  62.8513203  42.4114686
   8.1490738  62.2442551  42.9071504  22.8616909  64.4986021  31.3813100
  23.1925126  65.0313661  30.7753195  23.4349997  64.5524909  32.0375051
  22.9950588  64.5855590  31.3890882  15.4017479  65.6216932  47.7741665
  14.6090459  65.9360444  47.9594284  15.5166406  65.8368401  46.9362449
  15.3012889  65.7000769  47.6779999  18.0748798  62.3450924  32.0636680
  18.1695652  63.0840218  32.5176306  17.4507641  61.9168399  32.4971245
  17.9957828  62.3912244  32.1944828  16.3301271  65.5237136  42.7126961
  16.9040133  64.8864380  42.8675525  16.2516075  65.5241219  41.8436619
  16.4034506  65.4302248  42.6073372   4.9297688  62.3026346  36.5509676
   5.5071191  62.1662796  37.1901921   4.2311750  61.8462130  36.8055260
   4.9118709  62.2148612  36.6831965  18.3271819  64.1899663  25.2973632
  18.2451981  64.2601850  26.1628619  18.9651539  64.7529407  25.1057373
  18.4091656  64.2838634  25.3963582  11.6864990  63.9560401  34.7648159
  11.4284234  63.1232136  34.7379458  11.7413473  64.1818014  33.9240659
  11.6564768  63.8658172  34.6368296  16.7666040  56.0588852  34.8652251
  16.0622367  55.5698037  35.0236171  16.8151015  56.0711326  33.9940696
  16.6696092  55.9878500  34.7591591  10.6599702  61.5098164  35.2513054
  10.0849294  61.6690332  35.8877014  10.2835379  60.8733573  34.7881504
  10.5202515  61.4395977  35.2767612  14.3272991  59.9821513  40.1105432
  13.9387424  59.5575731  39.4557623  13.6627689  60.2303663  40.6182459
  14.1719919  59.9560234  40.0893300  23.9696260  59.7396518  32.8853262
  23.7132825  58.9276459  32.6951145  24.8125574  59.7474085  32.6583449
  24.0562285  59.6208515  32.8238079  18.1499352  53.6796142  37.6229416
  18.5309864  52.9974313  38.0097290  17.3462637  53.3905744  37.4405081
  18.0875814  53.5363190  37.6533472  15.4311929  64.2120118  28.3082239
  16.2452568  64.5035010  28.1965010  15.3671070  63.5579980  27.7340532
  15.5414668  64.1585312  28.2071076  21.6521419  66.8946114  42.7211815
  21.4160057  66.0634179  42.6023875  22.2964648  66.8431721  43.3066659
  21.7116090  66.7643802  42.7897708  11.3019837  67.6841635  33.4354551
  11.9393784  67.4453383  33.9806344  11.7274909  67.8878794  32.7007712
  11.4596004  67.6792645  33.4071708   5.9932480  69.9229972  37.3188855
   6.0336625  70.1944823  36.4908634   6.5527004  70.4471880  37.7346643
   6.0815826  70.0405727  37.2580743  11.9422652  62.9043925  27.7729440
  12.3267805  62.6851632  28.5245986  11.6934273  63.7306870  27.9030517
  11.9624725  62.9942071  27.9030517  12.1091193  56.1850340  47.4892025
  11.7944634  56.9549903  47.2261587  11.7881125  55.6220596  46.9044252
  12.0150112  56.2160609  47.3633375  22.6757840  66.6790562  38.7840109
  22.3703657  67.4118619  39.1453425  21.9564056  66.2728492  38.5032895
  22.5245182  66.7272295  38.7953246  13.6841309  68.1614058  35.1148337
  13.7580318  67.9989230  35.9690187  14.5010816  68.3504247  34.8708819
  13.8157668  68.1650800  35.2046363  28.3759632  63.3183563  38.1108453
  28.3084132  63.3379522  37.2411040  28.3615294  64.1613890  38.3364124
  28.3638389  63.4457298  38.0160930   7.4447066  68.5071920  32.1442781
   6.6185184  68.7533658  32.0177060   7.5059057  68.4284001  33.0104839
   7.3321233  68.5316869  32.2531725   9.6623090  54.5740861  33.1038221
   8.7945515  54.6463461  33.1695830   9.9498294  55.3762940  33.2926196
   9.5762838  54.7035009  33.1412988  18.7855979  54.7218721  41.4349543
  19.5309571  54.5328531  41.0212968  18.3693283  55.2476959  40.8763399
  18.8340953  54.7720866  41.2914116  12.2245895  71.1248801  29.8461811
  12.5144193  70.7337782  29.1221037  12.9549376  71.3065506  30.2867086
  12.3752779  71.0942614  29.8044618  26.1618249  62.0927949  36.3855048
  26.7126171  61.4596018  36.6252140  26.1462365  62.6243342  37.0770552
  26.2403446  62.0776897  36.5233906  12.8140640  65.9266547  40.9314941
  12.3152334  66.6382314  41.0099830  13.6240865  66.2467213  40.8933104
  12.8596747  66.0793395  40.9371510  10.1651811  73.1016183  32.9121960
   9.9452106  72.8113538  33.7048627   9.9446333  72.4431138  32.3839873
  10.0999405  72.9615891  32.9510869   9.0768758  65.1889500  35.1777662
   8.7882006  64.5626971  35.7123389   9.9452106  65.1309787  35.2442343
   9.1629010  65.0877044  35.2668617  19.8646656  60.3324283  35.4959644
  19.5211422  59.6114618  35.8466894  19.9639698  60.1238134  34.6538002
  19.8288698  60.1948486  35.4231324  12.3319766  74.4745573  31.6952653
  12.9843824  73.9422015  31.9243679  11.6345375  74.1214225  32.0820527
  12.3250484  74.3435096  31.7864821   9.2801031  66.8284751  31.1020027
  10.0346999  67.2097790  31.3155490   8.6871644  67.2795894  31.5566724
   9.3037745  66.9513578  31.2002906  20.3259685  66.7949987  31.0383632
  20.8917717  67.4543197  30.9542175  19.6787588  67.1399685  31.5100034
  20.3138441  66.9431928  31.0956389  11.7407698  58.7847591  46.2277239
  10.9307474  59.0905371  46.1167082  12.2182385  59.5053173  46.3429823
  11.6911177  58.9362192  46.2284311  10.5999258  67.9993312  36.4760143
  10.0780011  68.1393604  37.1612007  10.9873278  67.2403976  36.6662260
  10.5802959  67.9078836  36.6061219   7.5890442  58.0499121  30.5455097
   7.3015238  57.6800391  29.8087045   8.2760910  58.5193976  30.2838802
   7.6479339  58.0646090  30.3970173  16.7966263  69.7388771  30.4620711
  16.5552939  69.0056632  30.0547776  16.9767596  70.2875628  29.8087045
  16.7873887  69.7111162  30.3050934  12.0265583  65.0297331  31.8741634
  11.8308366  65.6372066  31.2801937  12.2499929  64.3365275  31.3933308
  12.0300224  65.0174857  31.7157714  10.4244113  61.9152069  31.9922502
  11.1466765  62.0793227  31.5326308   9.9452106  62.6361734  31.8861842
  10.4607844  62.0450299  31.9088116  18.3837621  58.2515868  37.3719187
  17.5448722  58.2777147  37.1357450  18.4541988  58.8986603  37.9524533
  18.2706015  58.3511994  37.4228304   8.0751730  64.3210141  41.0976642
   8.5872827  64.5994395  40.4485402   7.7888073  65.0599435  41.4639455
   8.1086593  64.4712495  41.0566520  16.8306899  55.1501245  32.1046803
  17.5333252  54.9508993  31.6266761  16.5651088  54.3777187  32.4115646
  16.8953532  55.0064211  32.0792244  22.2595145  63.4583855  34.6580429
  22.1729119  63.6139281  35.5115207  21.8045625  64.1021930  34.2839834
  22.1798402  63.5759610  34.7287535   5.1618636  58.8280333  31.3940378
   5.2634773  59.6306495  31.7221354   5.9574523  58.6267669  31.0963459
   5.2946542  58.9166232  31.3975734  11.5935456  56.4136530  41.1577683
  11.4018653  56.4291664  42.0077107  12.4434052  56.6100204  41.1344338
  11.6911177  56.4450881  41.2800978   5.9782369  58.9427511  39.1361500
   5.8367860  58.0911452  39.2606008   6.2622932  58.9856172  38.3123706
   5.9990215  58.8227261  39.0329124  16.1320961  60.7794602  33.2805988
  15.8855675  60.6990353  34.1142777  16.4606084  59.9948069  33.0868516
  16.1442205  60.6520867  33.3753511  20.0269010  67.4877961  37.0692769
  19.8883369  68.1859007  37.5741512  19.2469008  67.3326617  36.7128951
  19.8912237  67.5678128  37.0919044  18.3647095  63.7874336  43.3215151
  18.3595133  62.9154153  43.3257578  19.0708089  63.9862506  42.8484607
  18.4692099  63.6878211  43.2522186  12.0917988  63.5151320  42.6928971
  12.2361364  64.0952528  42.0572081  12.4393637  63.8927617  43.3978826
  12.1645450  63.6572024  42.7027966  14.2637906  62.7141489  40.4754103
  13.5161220  62.9072503  40.0702381  14.4179431  61.8886708  40.2378224
  14.1760333  62.6206600  40.3799509  11.1645743  71.7054092  39.5589998
  11.3135307  71.1457008  38.9063402  11.9445745  71.7846094  39.9422517
  11.3019837  71.6339658  39.5186947  21.5222383  66.8456215  27.8309269
  21.1429191  66.0593353  27.8238558  20.8588628  67.3943072  27.6880913
  21.3680857  66.8101039  27.8090065  13.6899044  71.8768735  40.8374489
  13.6142715  71.2077546  41.3925277  13.6188903  72.5786523  41.3515155
  13.6679651  71.8813642  40.9951337  14.5039683  56.6092039  41.3649507
  14.9612297  57.3416014  41.4922299  14.5796011  56.1858505  42.1236762
  14.5830652  56.6549277  41.4950583   6.7472674  56.8557859  42.4538950
   6.2114863  56.2438217  42.7699717   6.8090439  57.4305995  43.1072617
   6.6768306  56.8504787  42.5974377  18.9767009  49.7881915  35.2343349
  19.0950577  50.2458378  34.5010652  18.8029184  48.9827176  34.9479567
  18.9686180  49.7375687  35.0844283  14.3469291  70.3969734  31.6698095
  15.1119182  70.1279378  31.3480759  14.2447381  69.9119744  32.3868158
  14.4450786  70.2859298  31.7277922  12.3822061  58.5994143  38.2091331
  11.5918135  58.4185603  38.5308666  12.7782683  57.8221096  38.1921625
  12.3238937  58.4581604  38.2543879  16.8687951  67.4281918  23.6498044
  17.6360936  67.4882043  23.2403896  16.4219260  66.8562359  23.1654363
  16.9161379  67.3518493  23.5175754  17.7665747  66.2336573  35.9350776
  17.0910749  66.0021806  36.4364163  17.7758123  65.6257756  35.3092881
  17.6684251  66.1095499  35.9166929  14.8959891  61.0754402  42.6914829
  14.8319032  61.9364359  42.5634966  15.0357079  60.7586396  41.8910381
  14.9075361  61.1554569  42.5543042  19.7682481  69.0901706  28.1660954
  19.8502319  69.8968692  27.8422405  20.2532224  69.1097665  28.8901728
  19.8519639  69.2122368  28.2247853  13.5778985  63.7686542  36.8331032
  13.1541234  63.9691041  36.0970051  13.4023840  62.9215390  36.9455332
  13.4889865  63.6735323  36.7404722  13.0790678  75.2837055  39.2952490
  13.5686608  74.5847844  39.1128154  12.5074910  74.9860925  39.8828547
  13.0675208  75.1363278  39.3553530   8.8661430  64.2638593  32.2659005
   9.0226049  64.1985396  33.1214997   9.2062023  65.0387146  32.0537685
   8.9394665  64.3687791  32.3613599  15.4040574  63.6396477  31.1352368
  15.9456120  63.1366858  31.5990989  15.7187133  63.5861671  30.3241853
  15.5304971  63.5575898  31.0836180  19.2757682  67.8499124  48.2479280
  20.0892547  67.5784273  48.4084413  19.1152648  67.5506664  47.4439476
  19.3727630  67.7654050  48.1524686  13.5727024  69.0313828  28.4192396
  13.6419844  68.1728367  28.5585397  14.3515479  69.2485709  28.0911421
  13.6979874  68.9366692  28.3909553  16.5529844  58.5332781  41.1874669
  16.7671813  57.8943695  40.6338023  15.9363743  58.9778605  40.7582530
  16.4935173  58.5042925  41.0425100  17.9634512  71.4551530  32.6328889
  17.5714303  71.1518245  31.9151756  18.1187584  72.2920619  32.4433843
  17.9288101  71.5335366  32.4985387   5.4395691  61.4473544  32.5819772
   5.8194656  61.8658089  31.9180039   4.8651056  62.0286999  32.8888615
   5.4107016  61.5951402  32.5296513  18.7168932  60.1421846  42.1257976
  17.9045613  59.8347737  42.2071148  19.1758866  59.6620847  42.6900688
  18.6649316  60.0258339  42.2212570  18.1274186  68.0201518  32.5734920
  17.7688841  68.1916161  33.3498952  17.6412897  68.4814724  32.0162918
  18.0032883  68.1140489  32.6060189  15.9444572  51.6432717  36.1762011
  15.0738130  51.6171438  36.1295321  16.1984914  51.4709909  35.3587857
  15.8538132  51.6142861  36.0482148  12.9162552  63.7000684  25.1135154
  13.2055077  64.4765566  25.3878729  13.0034351  63.1889415  25.8149654
  12.9716808  63.7392602  25.2577652  15.8122439  61.5481918  46.9086678
  16.2822070  62.1724034  47.2954552  15.8584319  60.8798893  47.4679893
  15.8890315  61.5416598  47.0486749  12.9693713  53.6538945  37.6335482
  12.4532201  52.9619137  37.7587061  12.4087642  54.3209722  37.5798080
  12.8100226  53.6502203  37.6441548  15.0385946  54.1931905  39.4628334
  14.6517699  54.2180937  40.2441864  14.5518884  53.6273584  39.0102851
  14.9098455  54.1127656  39.5116238  19.2878926  68.9105414  43.5202121
  19.9258646  68.4165610  43.1864577  18.6453017  68.8382815  42.9354348
  19.2873152  68.8264423  43.3844476  21.0135926  60.7594560  38.0868036
  20.5863534  60.6720909  37.3316136  20.3761979  60.8672336  38.6722881
  20.8565533  60.7627220  38.0613478  14.7043088  51.0798891  41.7538594
  15.3336206  51.6159191  41.4759665  14.8728951  50.9876250  42.6052160
  14.8220883  51.1460253  41.8387122  14.5057003  55.8670086  44.0265006
  15.3330432  55.5955234  44.0823620  14.5264849  56.6630927  44.3828824
  14.6309853  55.9449840  44.0880189  19.3433182  69.6025223  40.1607478
  20.1325560  69.2514287  40.2809559  19.5176780  70.4161611  39.8984111
  19.4853464  69.6711080  40.1395346   9.0826493  63.0133948  37.2135266
   8.2414499  62.9137823  37.4214160   9.2916501  63.7829429  37.5649587
   8.9891185  63.1125992  37.2962581   6.5602060  60.6353485  35.0420017
   6.1658757  60.7096497  34.2670127   6.0042177  61.0211432  35.5928379
   6.4204872  60.7035260  35.0087677  18.1967006  53.6134779  34.7223896
  18.4016600  53.5457087  35.5680893  17.8693430  54.4193601  34.6545073
  18.1782254  53.7220720  34.8383551  12.8943158  60.9415348  36.4632864
  12.5906295  60.3871336  37.0643272  12.1922578  61.1207558  35.9760898
  12.7459367  60.8860130  36.4802570  11.9509255  58.2515867  31.0277566
  12.2268989  57.5334780  30.6155133  12.5507924  58.8500787  30.8198672
  12.0802519  58.2336238  30.9358327  10.9561509  68.1565068  41.1704962
  10.8481863  68.1667130  42.0367020  11.1657290  68.9819849  40.9809916
  10.9711620  68.2806143  41.2709053  21.4500694  54.1666544  34.2026661
  20.8375008  54.6536946  34.5880393  21.5464869  53.4910034  34.7464313
  21.3738592  54.1384852  34.3405520  15.4519775  55.9229385  29.3024161
  15.9063522  56.0939945  30.0272005  15.9259821  55.3097495  28.9021937
  15.5888095  55.8580270  29.3497922   8.9735301  65.4077711  38.6326899
   8.3823234  66.0487209  38.6029914   9.7356324  65.8315328  38.6058199
   8.9983561  65.5653549  38.6242047   9.3695923  56.5679708  39.2994917
   9.8297405  56.6418638  40.0370041   9.4152030  57.3660962  38.9494738
   9.4446479  56.6973855  39.3567673  11.0179273  57.2346403  43.8666944
  10.6264838  56.5879750  44.3022722  11.1865136  57.8257839  44.4861199
  10.9850183  57.2260671  44.0229650  25.0925722  65.2383480  39.6304178
  25.1508846  65.6870129  40.3764154  24.4592190  65.6482293  39.1934258
  25.0077017  65.3657215  39.6756726  18.7324817  70.8587022  36.0658924
  18.5344505  71.3477837  35.3715135  18.1112528  71.0628264  36.6443057
  18.6112381  70.9603561  36.0482147  12.7932795  62.6271919  30.4069168
  13.5374840  63.0146195  30.6452118  12.9393491  61.7829344  30.5709656
  12.9243380  62.5602392  30.4663138  14.7112371  54.4222178  35.4401029
  13.8648416  54.5944986  35.3142379  14.7083503  53.6171522  35.7766858
  14.5859521  54.3283207  35.4712156  15.7810671  58.1997392  36.3063087
  15.3070625  57.6739154  36.8168398  16.1528807  57.6526865  35.7377949
  15.7660560  58.0413389  36.2978235   6.1583701  60.1968899  41.6746633
   7.0209314  60.0964608  41.5883963   5.8275484  59.6163608  41.1132205
   6.2368898  60.0960526  41.5792039  22.0447402  63.2599768  37.7169868
  21.8045624  62.4206183  37.7212294  22.5239409  63.3399935  38.4410641
  22.0799585  63.1481168  37.8244670  17.7094171  59.0933947  29.3688841
  17.1817189  59.1762691  28.6794550  18.1689879  59.8351818  29.3653486
  17.6996021  59.2154609  29.2663536  24.0452589  60.0401225  35.6699127
  23.8062359  59.9997059  34.8319912  24.2086490  60.8872377  35.7964848
  24.0342892  60.1593310  35.5652609  20.6498619  64.4251175  41.6004172
  21.3732818  63.9723701  41.4215192  20.3848581  64.7055840  40.8176500
  20.7179892  64.4002143  41.4582888   9.5185487  59.0211348  38.3357051
   8.8938557  59.0329740  37.7283004   9.1831082  59.4971523  38.9848292
   9.3770979  59.0929865  38.3413620   9.7027236  57.3636467  24.3929736
   9.3540040  58.0156192  24.8561286   9.2223682  57.3493580  23.6653608
   9.5797480  57.4579520  24.3540828   6.2311163  67.0811808  39.7760816
   5.7011087  66.3904247  39.8255790   6.5036256  67.0721994  38.9473524
   6.1935885  66.9778940  39.6608232  17.2631253  67.6637511  28.4998498
  17.9865452  68.1295624  28.3563072  16.8231844  67.7311120  27.7496095
  17.3046945  67.7421347  28.3683280  16.4317408  64.5235053  39.7499187
  15.8174401  63.9793103  40.0447823  16.9484693  64.0099289  39.2705003
  16.4173071  64.3671462  39.7223416  15.6713705  65.5939323  37.4843486
  15.2441313  64.9689041  37.0508921  15.6638650  65.3114245  38.3102493
  15.6072847  65.4592103  37.5423313   8.7876233  60.6304496  40.5531920
   8.9469719  59.8747820  40.9583642   8.6069126  61.1795435  41.2072658
   8.7841591  60.5998310  40.7094626  16.7296536  52.7965731  41.1082709
  16.2337097  52.9929406  40.4174276  17.4865598  53.1958400  40.9371511
  16.7683360  52.8843465  40.9802846  13.9999415  56.4708077  37.6986020
  14.0241902  55.9368190  37.0098800  14.2510889  55.9625386  38.3611610
  14.0409334  56.3168981  37.6950665   1.5107005  63.7539572  37.1329164
   1.4050454  63.7086417  36.2681248   0.7607225  64.0993353  37.4143449
   1.3842608  63.7980480  37.0466494  10.2800737  55.1978896  37.0791764
  10.3199109  55.6988102  37.7926472   9.4550402  55.2889289  36.8097687
  10.1640263  55.2860712  37.1442302  12.4630350  64.7639636  45.1812059
  11.6125981  64.9011350  45.3169704  12.6258478  64.0303414  45.6259760
  12.3614214  64.6753737  45.2667658  11.7015101  61.7139405  39.3765663
  10.8707030  61.8813223  39.1700911  11.6466618  61.3375356  40.1614549
  11.5704516  61.6829137  39.4614191   9.5098884  55.2048298  45.0122074
  10.1351587  54.6610431  45.2851506   9.0549364  54.7243216  44.4429864
   9.5347145  55.0537780  44.9683668  10.0751145  59.9894997  29.9055781
  10.2154106  60.4867461  30.6084422  10.5733677  59.2881291  30.0469995
  10.1692225  59.9596976  30.0307360  10.1051367  60.8562108  27.2348358
  10.7396446  61.4522533  27.1697820  10.1876978  60.5565566  28.0494228
  10.2107918  60.9003016  27.3451444  23.0833933  63.3877585  40.1034722
  23.6751773  64.0274836  40.1352920  23.5192927  62.6900622  40.3926789
  23.2352364  63.3795936  40.1515555  11.6830350  56.7876083  27.2093800
  12.0046191  56.3079166  26.5553062  11.9457294  57.5975729  27.0184611
  11.7696375  56.8365981  27.0849292  14.9127323  67.8094958  40.7292616
  14.4052414  68.3630805  41.1733246  14.6153969  67.8703248  39.9111390
  14.7932208  67.9001269  40.6741073  17.0789505  56.1748277  39.5717279
  17.5044576  55.7220804  38.9600805  16.4646498  55.6208348  39.8482066
  17.0518150  56.0262254  39.5222304   6.6104355  63.0529949  30.5037904
   7.1196584  63.6494456  30.8849209   7.0838627  62.7855922  29.8214323
   6.7547731  63.1015764  30.4592426  17.5235103  71.7258215  28.6596559
  16.8064413  71.5519078  28.1943797  18.1741840  71.4910788  28.1272045
  17.5136953  71.6654008  28.5125777  15.5183728  52.6463377  32.9807856
  14.8752046  52.4961024  33.5492994  15.1783135  52.4005722  32.2156960
  15.3728805  52.5875500  32.9510871  20.1083074  60.6022804  32.4037864
  19.4374264  61.1452506  32.2750930  20.8022824  61.0717659  32.1619559
  20.1111942  60.7521075  32.3493392  14.1569808  72.7419516  37.6349623
  13.9335462  71.9838345  38.0033649  13.6679651  72.7717537  36.9130062
  14.0513257  72.6341741  37.5826364  20.2711202  57.0578688  35.3128238
  20.6238812  56.6308411  35.9874036  19.4126003  56.9729531  35.4429314
  20.1960646  56.9823428  35.4323248   8.9694887  59.6886207  33.3711084
   8.2506876  60.1050340  33.6383948   9.3407249  60.2540446  32.8202722
   8.9186818  59.8335489  33.3293891  18.2694467  60.3214056  39.2613080
  18.2492395  60.1397351  40.1147859  18.3173668  61.1926075  39.2372664
  18.2729108  60.4230594  39.3836375  16.2140797  66.9101248  45.1861556
  16.1736652  66.2650925  44.6006712  17.0264115  66.8537866  45.4986968
  16.3283951  66.8060215  45.1458506  12.8048265  72.9619974  35.0886707
  12.3908663  72.2994104  34.6990549  13.4895639  73.1097833  34.5682402
  12.8446636  72.8860632  34.9543204  16.1713559  72.1210059  35.8410324
  15.7729842  72.2312330  35.0731144  15.5564778  72.3292126  36.4236884
  16.0212448  72.1683627  35.8141623  14.7441461  58.7284207  28.7084464
  14.1506300  59.0501204  28.1569031  14.7816739  57.8825303  28.5005570
  14.6615850  58.6508535  28.5967235  21.7035262  52.1797099  36.2412550
  21.1966126  51.4726239  36.1733728  22.5002695  51.8490288  36.3713627
  21.7462501  52.0270251  36.2511545  17.6199278  58.6863712  32.1386214
  17.3912971  58.7096413  31.2964572  17.8797354  57.8621179  32.2581224
  17.6245466  58.5679792  32.0311412  11.9018506  60.5398185  41.7411314
  11.3897409  59.9319368  42.0996345  11.7298002  61.2554777  42.2085290
  11.8008143  60.5561484  41.8627538   6.7484221  58.9835760  44.3913676
   6.5786811  59.6437135  43.8461883   6.3050171  59.1942321  45.1126165
   6.6583554  59.1121742  44.4175305  10.6744040  57.2240258  33.4340410
  11.1501406  57.5857338  32.7990591  10.1732640  57.8796726  33.7140552
  10.6709399  57.3734447  33.3817151  23.9055402  66.6962026  29.2253415
  24.2889007  67.4453382  29.4551512  23.1099515  66.9427846  28.9665404
  23.8449184  66.8431720  29.2210988  15.7787576  58.4622429  44.1813570
  16.3359006  58.2336239  43.5492035  15.4548641  59.2228095  43.9048782
  15.8133986  58.5406266  44.0470067   3.6486285  61.8882626  39.6502166
   3.1013005  61.2183271  39.7683034   4.4378663  61.5212474  39.7145633
   3.6838469  61.7347612  39.6770866  13.4970694  61.5490083  45.1465577
  14.2482021  61.8641760  45.4605131  13.6893270  61.3469254  44.3199499
  13.6362108  61.5657465  45.0708973  12.7170693  59.3681458  26.8013794
  13.0969658  59.3861087  26.0164908  11.9763289  59.8135447  26.6804641
  12.6639531  59.4363232  26.6677362  20.3455984  57.6763649  32.3889372
  20.3450210  57.5212306  33.2473649  20.1412164  58.5226636  32.3330758
  20.3155762  57.7784270  32.5077312   2.4073255  61.1003433  36.8048189
   2.2295016  60.6480042  37.5303104   2.1192277  61.9029595  36.9886666
   2.3386208  61.1525991  36.9391692  18.0696836  62.3561151  36.0425579
  18.5650501  61.6384146  36.0029599  17.2596611  62.0531948  35.9280066
  18.0240729  62.2058797  36.0199305  13.5155447  66.2058964  28.1922584
  12.7066770  65.8825638  28.1455893  14.0230356  65.4992186  28.1250832
  13.4705114  66.0540280  28.1752878   4.1445725  63.6331157  33.9169948
   3.2791244  63.6216848  33.8052719   4.2444540  63.4461380  34.7641087
   4.0319891  63.6037218  34.0258892  20.1348655  65.1064838  38.7302708
  20.5603726  64.5839260  38.1773133  19.7705574  65.7045676  38.2091331
  20.1435257  65.1175065  38.5711718   9.7702734  73.4029056  37.4900053
  10.0849293  74.2165444  37.4977835  10.1796148  73.0179274  38.1582212
   9.8770832  73.4657758  37.5904145  16.7227254  68.8199103  35.0603865
  17.1938432  69.5339365  35.2293851  17.0587433  68.2197853  35.5963735
  16.8422369  68.8370567  35.1636241  18.8104239  70.4300416  47.2395937
  18.9201204  69.6408977  47.5952685  19.1395135  70.3406352  46.4370275
  18.8756644  70.3006269  47.1738328  13.6396749  53.5926573  42.0161960
  13.7724655  52.7957567  42.3442936  14.0241902  54.1192976  42.5960236
  13.7153078  53.5526490  42.1505463  17.3601200  68.6117037  41.8231558
  16.8122146  67.9874920  41.5551623  17.8214229  68.8011309  41.1075637
  17.3468410  68.5476087  41.6781989  16.7129104  50.5156899  38.6143053
  15.9075068  50.4054629  38.9310892  16.5835840  50.6169355  37.7572919
  16.5749237  50.5140569  38.5351094  20.1695065  56.6802391  39.2082750
  19.5858054  57.1811598  38.7960318  20.4899359  56.1731947  38.5747074
  20.1308240  56.6794226  39.0541257  12.7089864  55.5942986  29.4841425
  13.5305558  55.7641299  29.2423120  12.2459515  55.7490247  28.7607723
  12.7621026  55.6424719  29.3413069  11.2985196  53.5885748  40.2639854
  11.8429609  53.2476875  40.8544196  11.3522131  54.4471210  40.4061138
  11.3874315  53.6641008  40.3721727   7.1115755  67.3502164  37.1378662
   7.7160612  67.3097998  36.5092482   6.9043067  68.1973316  37.1682718
   7.1704652  67.4690167  37.0494778  16.9259527  69.6168109  38.3540899
  17.7457900  69.4731075  38.6157194  16.6453604  70.2414308  38.8957337
  17.0056270  69.6878461  38.4728839   2.3467037  66.3336782  37.0077585
   2.2491315  65.5233053  37.3167642   3.1295907  66.3128575  36.6223853
   2.4483173  66.2103872  36.9964448  33.3973177  77.2732961  31.3183775
  33.3667181  78.1277598  31.4902045  33.9954526  76.9728254  31.8769919
  33.4810335  77.3549458  31.4258578  26.5972862  76.3608612  36.0736706
  25.7410757  76.5217110  36.1245823  26.6440516  75.4900676  36.0941767
  26.4771973  76.2559414  36.0842772  20.9814002  85.8971330  31.8373937
  20.2296901  85.5186868  31.6089983  21.4300013  85.9289764  31.0892748
  20.9363668  85.8456937  31.6931440  26.4338961  86.3196700  27.2659485
  26.0990330  86.9973621  26.8303707  26.9465832  85.9302011  26.6776356
  26.4604543  86.3621278  27.1146276  25.9743253  88.2710968  33.2070596
  26.3582632  88.8397867  32.6675371  25.9102394  87.5460479  32.7276412
  26.0216680  88.2486432  33.0564459  29.4424683  78.4200656  38.7168358
  29.9880643  79.0985743  38.7762327  29.3841559  78.2788117  37.8569939
  29.5140597  78.4992658  38.5980418  22.5598758  85.9089722  34.1036710
  22.6609121  85.0990076  34.4133838  21.9640503  85.8146669  33.4736388
  22.4871296  85.7754750  34.0562948  31.2189752  79.8485263  29.5902085
  31.1029277  80.5992949  30.0194223  32.0145638  79.5909216  29.8398172
  31.3194341  79.9220110  29.6906177  22.3999497  90.8267311  35.5051566
  23.0436953  91.2680475  35.8947724  22.7255753  90.0220738  35.4181825
  22.5431326  90.7732506  35.5497043  15.7563802  81.9310009  33.7289044
  15.5213986  81.0977661  33.6221312  15.8949443  82.2114674  32.9150245
  15.7419465  81.8493512  33.5931399  18.0553890  74.0995739  36.6273351
  17.4358921  73.5088387  36.4583366  17.9537753  74.6907175  35.9937675
  17.9491565  74.0999822  36.5078341  23.1020077  83.8379286  30.8771428
  23.4235918  84.3784494  30.2732736  23.7492174  83.2676058  31.0093718
  23.2446132  83.8338461  30.8078463  25.1521785  75.8395281  30.9605814
  25.8501950  76.0183409  31.4527278  25.4674118  75.3165620  30.3376204
  25.3017122  75.7889053  30.9407825  17.7823023  77.6448021  38.8716920
  17.6581719  78.2310467  39.5066739  18.4341307  77.1508217  39.1729195
  17.8596672  77.6586825  39.0102850  25.3409721  82.2265726  30.9485606
  25.7803356  81.6182827  31.3940379  25.1914383  81.8473099  30.1771071
  25.3831186  82.0804197  30.9004773  22.8081364  80.8209738  38.1504431
  23.4530366  80.3282181  37.8315380  23.0483141  80.9634525  38.9770510
  22.9391949  80.7687180  38.2253965  23.3248649  71.2087678  35.0427089
  22.9951979  71.6598821  34.3730788  22.6493651  71.1303841  35.5900095
  23.1759085  71.2638813  35.0250312  28.9419057  80.5792907  27.9016375
  28.8570352  81.4353874  28.0465944  29.4303440  80.3037232  28.5698534
  29.0007954  80.6650229  28.0218457  30.5325057  67.1973201  33.2876700
  30.2178498  67.8876679  33.7197122  30.0151998  67.1417983  32.5862200
  30.4089527  67.2908089  33.2473649  29.8737490  77.1977702  29.4014110
  29.3448962  77.4137335  30.0611416  30.3962510  77.8913840  29.3215080
  29.8725943  77.3320839  29.4869709  35.3285543  82.7724006  34.7747155
  34.4983246  82.9834650  34.9380571  35.2794796  81.9461061  34.4989438
  35.1992279  82.6813612  34.7584520  21.7637098  81.0940918  28.2021578
  21.1794313  81.5990950  28.6087442  21.3607193  80.8683305  27.4618170
  21.6176402  81.1349167  28.1526603  17.3181127  86.8095680  35.0045250
  16.8348705  87.5346169  34.9804833  18.1304445  87.1071810  35.1155407
  17.3671874  86.9598033  35.0172529  26.2214313  77.3406570  26.6790499
  26.4610316  77.5484554  25.8665842  26.5430154  76.5364079  26.7879443
  26.3051470  77.2520672  26.5751052  21.5304603  69.2699966  30.5250037
  22.2850571  69.6378283  30.2867087  21.3532137  69.6439521  31.2929216
  21.6159081  69.3798154  30.6034925  20.1725324  87.3251855  35.1565530
  20.8745903  86.8103844  35.2138286  20.0922807  87.6526007  35.9612405
  20.2649084  87.2966082  35.2838322  34.8239502  75.4194407  38.5697576
  33.9867923  75.4896594  38.8045171  34.7927732  75.4218902  37.6971878
  34.6957784  75.4304634  38.4757124  21.2204231  77.5627442  44.2845945
  21.3924734  77.4533337  45.1331226  21.7573588  78.2081848  44.0477137
  21.3249235  77.6419444  44.3751041  19.8861667  71.6770285  27.2228150
  19.7037241  71.8942166  26.3969143  20.7487280  71.7909298  27.2786764
  19.9866257  71.7260183  27.1082637  19.4976099  83.5158207  34.6651138
  20.3364999  83.7481140  34.7124899  19.5287869  82.6462519  34.5958173
  19.6257817  83.4215154  34.6615782  25.5661387  68.6796696  30.2577174
  26.2947547  68.5012651  29.8115330  25.6556280  69.5214776  30.4684352
  25.6868049  68.7780574  30.2230691  29.5469687  79.6150083  34.1609468
  30.3027202  80.0481598  34.1998376  29.6532012  78.9654853  34.7344104
  29.6739858  79.5827567  34.2507493  32.5849858  83.4423361  34.9111871
  32.1485090  83.4460103  35.6670842  32.2512774  84.1228859  34.4791448
  32.4712478  83.5435816  34.9592703  15.5265947  80.1559373  39.1198865
  15.2604363  79.3398490  39.2789855  15.5404512  80.2012529  38.2494380
  15.4890670  80.0416278  39.0152347  32.5047341  70.4837188  37.1541298
  33.1473250  70.5535293  37.7403214  32.7570362  69.8166411  36.6520840
  32.6369473  70.3963537  37.1668578  19.4323694  74.9544458  25.7350623
  18.7181872  74.6682637  26.1473055  19.9167663  75.2941084  26.3757010
  19.3983058  74.9626107  25.8906258  20.2764554  73.6937752  41.7665872
  19.5836351  73.2234731  42.0126604  20.8924881  73.4676056  42.3407580
  20.2649084  73.5904884  41.8875025  35.7194205  80.1604280  33.8031508
  36.3810639  79.5994949  33.7027416  35.0785617  79.6656311  34.1284199
  35.7223072  80.0040689  33.8363848  26.6071012  83.4574412  26.1112431
  27.0222161  83.1259436  25.4196927  25.7762942  83.2243314  25.9832568
  26.5459021  83.3745668  25.9903278  15.9359361  80.9418153  36.4010609
  15.7534934  80.9165039  35.5482901  16.6709030  81.4117091  36.4399518
  16.0173425  81.0079515  36.2808527  32.0059035  81.1769663  33.5443497
  32.2414625  81.3214862  32.7170347  32.1548599  81.9412071  33.9375010
  32.0624839  81.3108717  33.4807100  19.0005113  77.6603156  42.9092718
  19.7245085  77.6456186  43.3957612  19.1021249  78.3698511  42.4114686
  19.1223322  77.7627859  42.9071504  33.8349492  80.0171329  31.3813100
  34.1657709  80.5498969  30.7753195  34.4082580  80.0710216  32.0375051
  33.9683171  80.1040898  31.3890882  26.3750062  81.1402240  47.7741665
  25.5823043  81.4545752  47.9594284  26.4898989  81.3553709  46.9362449
  26.2745473  81.2186077  47.6779999  29.0481381  77.8636231  32.0636680
  29.1428236  78.6025526  32.5176306  28.4240225  77.4353707  32.4971245
  28.9690411  77.9097552  32.1944828  15.9030271  77.8211654  36.5509676
  16.4803774  77.6848104  37.1901921  15.2044333  77.3647438  36.8055260
  15.8851293  77.7333920  36.6831965  29.3004403  79.7084971  25.2973632
  29.2184565  79.7787158  26.1628619  29.9384123  80.2714715  25.1057373
  29.3824240  79.8023942  25.3963582  22.6597574  79.4745709  34.7648159
  22.4016818  78.6417444  34.7379458  22.7146056  79.7003322  33.9240659
  22.6297352  79.3843480  34.6368296  27.7398624  71.5774160  34.8652251
  27.0354951  71.0883345  35.0236171  27.7883598  71.5896634  33.9940696
  27.6428675  71.5063808  34.7591591  21.6332286  77.0283472  35.2513054
  21.0581877  77.1875640  35.8877014  21.2567962  76.3918881  34.7881504
  21.4935098  76.9581285  35.2767612  25.3005574  75.5006821  40.1105432
  24.9120007  75.0761039  39.4557623  24.6360273  75.7488971  40.6182459
  25.1452502  75.4745542  40.0893300  34.9428844  75.2581826  32.8853262
  34.6865408  74.4461767  32.6951145  35.7858158  75.2659393  32.6583449
  35.0294869  75.1393823  32.8238079  11.3789105  76.6723546  33.2657494
  11.4649357  76.2955415  34.0471024  12.0064902  76.2983992  32.7877452
  11.4845656  76.5609029  33.3102971  29.1231936  69.1981450  37.6229416
  29.5042448  68.5159621  38.0097290  28.3195220  68.9091052  37.4405081
  29.0608398  69.0548498  37.6533472  26.4044513  79.7305426  28.3082239
  27.2185152  80.0220318  28.1965010  26.3403654  79.0765288  27.7340532
  26.5147252  79.6770620  28.2071076  22.2752421  83.2026943  33.4354551
  22.9126368  82.9638690  33.9806344  22.7007493  83.4064102  32.7007712
  22.4328587  83.1977953  33.4071708  16.9665063  85.4415279  37.3188855
  17.0069209  85.7130131  36.4908634  17.5259587  85.9657188  37.7346643
  17.0548409  85.5591035  37.2580743  22.9155236  78.4229233  27.7729440
  23.3000389  78.2036939  28.5245986  22.6666856  79.2492178  27.9030517
  22.9357309  78.5127379  27.9030517  23.0823776  71.7035648  47.4892025
  22.7677217  72.4735211  47.2261587  22.7613709  71.1405904  46.9044252
  22.9882696  71.7345917  47.3633375  33.6490424  82.1975870  38.7840109
  33.3436241  82.9303927  39.1453425  32.9296639  81.7913800  38.5032895
  33.4977766  82.2457603  38.7953246  24.6573893  83.6799366  35.1148337
  24.7312901  83.5174537  35.9690187  25.4743399  83.8689555  34.8708819
  24.7890252  83.6836108  35.2046363  39.3492216  78.8368871  38.1108453
  39.2816716  78.8564830  37.2411040  39.3347878  79.6799198  38.3364124
  39.3370972  78.9642606  38.0160930  18.4179650  84.0257228  32.1442781
  17.5917767  84.2718966  32.0177060  18.4791641  83.9469309  33.0104839
  18.3053817  84.0502177  32.2531725  20.6355673  70.0926169  33.1038221
  19.7678099  70.1648769  33.1695830  20.9230878  70.8948248  33.2926196
  20.5495421  70.2220316  33.1412988  29.7588562  70.2404029  41.4349543
  30.5042154  70.0513839  41.0212968  29.3425867  70.7662267  40.8763399
  29.8073536  70.2906174  41.2914116  23.1978479  86.6434109  29.8461811
  23.4876777  86.2523090  29.1221037  23.9281960  86.8250814  30.2867086
  23.3485363  86.6127922  29.8044618  37.1350833  77.6113257  36.3855048
  37.6858755  76.9781326  36.6252140  37.1194948  78.1428650  37.0770552
  37.2136029  77.5962205  36.5233906  21.1384394  88.6201491  32.9121960
  20.9184690  88.3298846  33.7048627  20.9178916  87.9616446  32.3839873
  21.0731988  88.4801199  32.9510869  20.0501341  80.7074808  35.1777662
  19.7614590  80.0812279  35.7123389  20.9184689  80.6495095  35.2442343
  20.1361593  80.6062352  35.2668617  30.8379239  75.8509591  35.4959644
  30.4944005  75.1299926  35.8466894  30.9372282  75.6423442  34.6538002
  30.8021282  75.7133794  35.4231324  23.3052350  89.9930881  31.6952653
  23.9576408  89.4607323  31.9243679  22.6077959  89.6399533  32.0820527
  23.2983068  89.8620404  31.7864821  20.2533615  82.3470059  31.1020027
  21.0079583  82.7283098  31.3155490  19.6604227  82.7981202  31.5566724
  20.2770328  82.4698886  31.2002906  31.2992268  82.3135295  31.0383632
  31.8650301  82.9728505  30.9542175  30.6520172  82.6584993  31.5100034
  31.2871025  82.4617236  31.0956389  22.7140282  74.3032899  46.2277239
  21.9040058  74.6090679  46.1167082  23.1914969  75.0238481  46.3429823
  22.6643761  74.4547500  46.2284311  21.5731841  83.5178620  36.4760143
  21.0512595  83.6578912  37.1612007  21.9605862  82.7589284  36.6662260
  21.5535542  83.4264144  36.6061219  18.5623025  73.5684429  30.5455097
  18.2747821  73.1985699  29.8087045  19.2493494  74.0379284  30.2838802
  18.6211923  73.5831398  30.3970173  27.7698846  85.2574079  30.4620711
  27.5285522  84.5241940  30.0547776  27.9500179  85.8060936  29.8087045
  27.7606470  85.2296470  30.3050934  22.9998167  80.5482639  31.8741634
  22.8040950  81.1557374  31.2801937  23.2232513  79.8550583  31.3933308
  23.0032808  80.5360164  31.7157714  21.3976697  77.4337377  31.9922502
  22.1199349  77.5978535  31.5326308  20.9184690  78.1547042  31.8861842
  21.4340428  77.5635606  31.9088116  29.3570205  73.7701176  37.3719187
  28.5181305  73.7962455  37.1357450  29.4274572  74.4171911  37.9524533
  29.2438598  73.8697302  37.4228304  27.8039483  70.6686553  32.1046803
  28.5065836  70.4694301  31.6266761  27.5383672  69.8962495  32.4115646
  27.8686115  70.5249519  32.0792244  33.2327728  78.9769162  34.6580429
  33.1461703  79.1324589  35.5115207  32.7778208  79.6207238  34.2839834
  33.1530985  79.0944918  34.7287535  16.1351220  74.3465641  31.3940378
  16.2367357  75.1491803  31.7221354  16.9307107  74.1452977  31.0963459
  16.2679126  74.4351540  31.3975734  22.5668039  71.9321838  41.1577683
  22.3751236  71.9476972  42.0077107  23.4166635  72.1285512  41.1344338
  22.6643761  71.9636189  41.2800978  16.9514952  74.4612819  39.1361500
  16.8100444  73.6096760  39.2606008  17.2355516  74.5041480  38.3123706
  16.9722798  74.3412569  39.0329124  27.1053545  76.2979910  33.2805988
  26.8588259  76.2175660  34.1142777  27.4338668  75.5133377  33.0868516
  27.1174788  76.1706175  33.3753511  31.0001593  83.0063269  37.0692769
  30.8615953  83.7044315  37.5741512  30.2201591  82.8511925  36.7128951
  30.8644820  83.0863436  37.0919044  25.2370489  78.2326797  40.4754103
  24.4893803  78.4257811  40.0702381  25.3912014  77.4072016  40.2378224
  25.1492917  78.1391908  40.3799509  32.4954966  82.3641523  27.8309269
  32.1161775  81.5778661  27.8238558  31.8321212  82.9128380  27.6880913
  32.3413441  82.3286347  27.8090065  25.4772266  72.1277347  41.3649507
  25.9344880  72.8601322  41.4922299  25.5528595  71.7043813  42.1236762
  25.5563236  72.1734585  41.4950583  17.7205257  72.3743167  42.4538950
  17.1847447  71.7623525  42.7699717  17.7823022  72.9491303  43.1072617
  17.6500890  72.3690095  42.5974377  29.9499592  65.3067222  35.2343349
  30.0683160  65.7643686  34.5010652  29.7761768  64.5012484  34.9479567
  29.9418763  65.2560995  35.0844283  25.3201874  85.9155042  31.6698095
  26.0851765  85.6464685  31.3480759  25.2179964  85.4305052  32.3868158
  25.4183370  85.8044606  31.7277922  23.3554644  74.1179451  38.2091331
  22.5650719  73.9370911  38.5308666  23.7515267  73.3406404  38.1921625
  23.2971520  73.9766912  38.2543879  27.8420535  82.9467226  23.6498044
  28.6093520  83.0067350  23.2403896  27.3951844  82.3747667  23.1654363
  27.8893962  82.8703801  23.5175754  28.7398330  81.7521881  35.9350776
  28.0643332  81.5207114  36.4364163  28.7490707  81.1443064  35.3092881
  28.6416835  81.6280807  35.9166929  25.8692474  76.5939710  42.6914829
  25.8051616  77.4549667  42.5634966  26.0089662  76.2771704  41.8910381
  25.8807944  76.6739877  42.5543042  30.7415065  84.6087014  28.1660954
  30.8234902  85.4154000  27.8422405  31.2264807  84.6282973  28.8901728
  30.8252223  84.7307676  28.2247853  24.5511568  79.2871850  36.8331032
  24.1273817  79.4876349  36.0970051  24.3756423  78.4400698  36.9455332
  24.4622449  79.1920631  36.7404722  19.8394013  79.7823901  32.2659005
  19.9958632  79.7170704  33.1214997  20.1794606  80.5572454  32.0537685
  19.9127248  79.8873099  32.3613599  26.3773158  79.1581785  31.1352368
  26.9188703  78.6552166  31.5990989  26.6919717  79.1046979  30.3241853
  26.5037555  79.0761206  31.0836180  24.5459608  84.5499136  28.4192396
  24.6152428  83.6913675  28.5585397  25.3248063  84.7671017  28.0911421
  24.6712458  84.4552000  28.3909553  27.5262427  74.0518089  41.1874669
  27.7404397  73.4129003  40.6338023  26.9096326  74.4963913  40.7582530
  27.4667756  74.0228233  41.0425100  28.9367095  86.9736837  32.6328889
  28.5446887  86.6703553  31.9151756  29.0920167  87.8105927  32.4433843
  28.9020685  87.0520674  32.4985387  16.4128275  76.9658852  32.5819772
  16.7927240  77.3843396  31.9180039  15.8383640  77.5472307  32.8888615
  16.3839600  77.1136710  32.5296513  29.6901515  75.6607154  42.1257976
  28.8778197  75.3533045  42.2071148  30.1491450  75.1806154  42.6900688
  29.6381900  75.5443647  42.2212570  29.1006770  83.5386826  32.5734920
  28.7421425  83.7101469  33.3498952  28.6145481  84.0000032  32.0162918
  28.9765467  83.6325797  32.6060189  26.9177156  67.1618025  36.1762011
  26.0470714  67.1356746  36.1295321  27.1717497  66.9895217  35.3587857
  26.8270716  67.1328169  36.0482148  23.8895135  79.2185992  25.1135154
  24.1787660  79.9950874  25.3878729  23.9766934  78.7074723  25.8149654
  23.9449392  79.2577910  25.2577652  26.7855023  77.0667226  46.9086678
  27.2554654  77.6909342  47.2954552  26.8316903  76.3984201  47.4679893
  26.8622899  77.0601906  47.0486749  23.9426296  69.1724253  37.6335482
  23.4264785  68.4804445  37.7587061  23.3820225  69.8395030  37.5798080
  23.7832810  69.1687511  37.6441548  26.0118530  69.7117213  39.4628334
  25.6250283  69.7366245  40.2441864  25.5251467  69.1458892  39.0102851
  25.8831039  69.6312964  39.5116238  31.9868509  76.2779868  38.0868036
  31.5596117  76.1906217  37.3316136  31.3494562  76.3857644  38.6722881
  31.8298117  76.2812528  38.0613478  25.6775672  66.5984199  41.7538594
  26.3068790  67.1344499  41.4759665  25.8461534  66.5061558  42.6052160
  25.7953466  66.6645561  41.8387122  25.4789586  71.3855393  44.0265006
  26.3063016  71.1140542  44.0823620  25.4997432  72.1816235  44.3828824
  25.6042437  71.4635148  44.0880189  20.0559076  78.5319256  37.2135266
  19.2147083  78.4323130  37.4214160  20.2649084  79.3014737  37.5649587
  19.9623769  78.6311300  37.2962581  17.5334643  76.1538793  35.0420017
  17.1391341  76.2281805  34.2670127  16.9774760  76.5396740  35.5928379
  17.3937456  76.2220568  35.0087677  29.1699590  69.1320087  34.7223896
  29.3749183  69.0642395  35.5680893  28.8426014  69.9378908  34.6545073
  29.1514838  69.2406028  34.8383551  23.8675741  76.4600655  36.4632864
  23.5638879  75.9056644  37.0643272  23.1655162  76.6392865  35.9760898
  23.7191951  76.4045438  36.4802570  22.9241838  73.7701175  31.0277566
  23.2001573  73.0520088  30.6155133  23.5240508  74.3686095  30.8198672
  23.0535103  73.7521546  30.9358327  32.4233278  69.6851852  34.2026661
  31.8107591  70.1722254  34.5880393  32.5197453  69.0095342  34.7464313
  32.3471175  69.6570160  34.3405520  26.4252359  71.4414693  29.3024161
  26.8796105  71.6125253  30.0272005  26.8992404  70.8282803  28.9021937
  26.5620679  71.3765578  29.3497922  20.3428507  72.0865016  39.2994917
  20.8029989  72.1603946  40.0370041  20.3884614  72.8846270  38.9494738
  20.4179062  72.2159163  39.3567673  21.9911857  72.7531711  43.8666944
  21.5997422  72.1065058  44.3022722  22.1597719  73.3443147  44.4861199
  21.9582767  72.7445979  44.0229650  36.0658306  80.7568788  39.6304178
  36.1241429  81.2055437  40.3764154  35.4324773  81.1667601  39.1934258
  35.9809601  80.8842523  39.6756726  29.7057400  86.3772330  36.0658924
  29.5077089  86.8663145  35.3715135  29.0845111  86.5813572  36.6443057
  29.5844965  86.4788868  36.0482147  23.7665379  78.1457227  30.4069168
  24.5107424  78.5331503  30.6452118  23.9126075  77.3014652  30.5709656
  23.8975964  78.0787700  30.4663138  25.6844954  69.9407486  35.4401029
  24.8380999  70.1130294  35.3142379  25.6816087  69.1356830  35.7766858
  25.5592104  69.8468515  35.4712156  26.7543255  73.7182700  36.3063087
  26.2803209  73.1924462  36.8168398  27.1261390  73.1712173  35.7377949
  26.7393144  73.5598697  36.2978235  17.1316285  75.7154207  41.6746633
  17.9941898  75.6149916  41.5883963  16.8008068  75.1348916  41.1132205
  17.2101481  75.6145834  41.5792039  33.0179985  78.7785076  37.7169868
  32.7778208  77.9391491  37.7212294  33.4971992  78.8585243  38.4410641
  33.0532169  78.6666476  37.8244670  28.6826754  74.6119255  29.3688841
  28.1549773  74.6947999  28.6794550  29.1422462  75.3537126  29.3653486
  28.6728605  74.7339917  29.2663536  35.0185172  75.5586533  35.6699127
  34.7794942  75.5182367  34.8319912  35.1819073  76.4057685  35.7964848
  35.0075476  75.6778618  35.5652609  20.4918071  74.5396656  38.3357051
  19.8671141  74.5515048  37.7283004  20.1563666  75.0156831  38.9848292
  20.3503563  74.6115173  38.3413620  20.6759819  72.8821775  24.3929736
  20.3272624  73.5341500  24.8561286  20.1956265  72.8678888  23.6653608
  20.5530063  72.9764828  24.3540828  17.2043746  82.5997116  39.7760816
  16.6743671  81.9089555  39.8255790  17.4768840  82.5907301  38.9473524
  17.1668469  82.4964248  39.6608232  28.2363837  83.1822818  28.4998498
  28.9598036  83.6480931  28.3563072  27.7964428  83.2496428  27.7496095
  28.2779529  83.2606655  28.3683280  26.6446289  81.1124631  37.4843486
  26.2173897  80.4874349  37.0508921  26.6371233  80.8299553  38.3102493
  26.5805430  80.9777411  37.5423313  19.7608816  76.1489804  40.5531920
  19.9202303  75.3933128  40.9583642  19.5801710  76.6980743  41.2072658
  19.7574175  76.1183618  40.7094626  27.7029119  68.3151039  41.1082709
  27.2069680  68.5114714  40.4174276  28.4598181  68.7143708  40.9371511
  27.7415944  68.4028773  40.9802846  24.9731999  71.9893385  37.6986020
  24.9974486  71.4553498  37.0098800  25.2243472  71.4810694  38.3611610
  25.0141917  71.8354289  37.6950665  12.4839588  79.2724880  37.1329164
  12.3783038  79.2271725  36.2681248  11.7339808  79.6178661  37.4143449
  12.3575191  79.3165788  37.0466494  21.2533321  70.7164204  37.0791764
  21.2931693  71.2173410  37.7926472  20.4282986  70.8074597  36.8097687
  21.1372847  70.8046020  37.1442302  22.6747684  77.2324713  39.3765663
  21.8439614  77.3998531  39.1700911  22.6199201  76.8560664  40.1614549
  22.5437099  77.2014445  39.4614191  20.4831468  70.7233606  45.0122074
  21.1084171  70.1795739  45.2851506  20.0281947  70.2428524  44.4429864
  20.5079728  70.5723088  44.9683668  21.0483728  75.5080305  29.9055781
  21.1886689  76.0052769  30.6084422  21.5466261  74.8066599  30.0469995
  21.1424809  75.4782284  30.0307360  21.0783951  76.3747416  27.2348358
  21.7129030  76.9707841  27.1697820  21.1609561  76.0750874  28.0494228
  21.1840501  76.4188324  27.3451444  34.0566516  78.9062893  40.1034722
  34.6484357  79.5460144  40.1352920  34.4925511  78.2085930  40.3926789
  34.2084947  78.8981244  40.1515555  22.6562933  72.3061391  27.2093800
  22.9778774  71.8264474  26.5553062  22.9189877  73.1161037  27.0184611
  22.7428959  72.3551289  27.0849292  28.0522088  71.6933585  39.5717279
  28.4777160  71.2406112  38.9600805  27.4379081  71.1393656  39.8482066
  28.0250734  71.5447562  39.5222304  17.5836938  78.5715257  30.5037904
  18.0929168  79.1679764  30.8849209  18.0571211  78.3041230  29.8214323
  17.7280314  78.6201072  30.4592426  28.4967686  87.2443523  28.6596559
  27.7796996  87.0704386  28.1943797  29.1474424  87.0096096  28.1272045
  28.4869537  87.1839316  28.5125777  26.4916311  68.1648685  32.9807856
  25.8484629  68.0146331  33.5492994  26.1515718  67.9191030  32.2156960
  26.3461389  68.1060808  32.9510871  31.0815658  76.1208112  32.4037864
  30.4106848  76.6637814  32.2750930  31.7755408  76.5902967  32.1619559
  31.0844525  76.2706383  32.3493392  31.2443785  72.5763996  35.3128238
  31.5971395  72.1493718  35.9874036  30.3858587  72.4914839  35.4429314
  31.1693230  72.5008736  35.4323248  19.9427470  75.2071515  33.3711084
  19.2239459  75.6235648  33.6383948  20.3139832  75.7725754  32.8202722
  19.8919402  75.3520797  33.3293891  29.2427051  75.8399364  39.2613080
  29.2224978  75.6582659  40.1147859  29.2906252  76.7111383  39.2372664
  29.2461692  75.9415902  39.3836375  23.7780848  88.4805282  35.0886707
  23.3641247  87.8179412  34.6990549  24.4628223  88.6283141  34.5682402
  23.8179220  88.4045940  34.9543204  27.1446142  87.6395367  35.8410324
  26.7462426  87.7497638  35.0731144  26.5297362  87.8477434  36.4236884
  26.9945032  87.6868935  35.8141623  25.7174044  74.2469515  28.7084464
  25.1238884  74.5686512  28.1569031  25.7549322  73.4010611  28.5005570
  25.6348434  74.1693843  28.5967235  32.6767845  67.6982407  36.2412550
  32.1698710  66.9911547  36.1733728  33.4735279  67.3675596  36.3713627
  32.7195084  67.5455559  36.2511545  28.5931861  74.2049020  32.1386214
  28.3645554  74.2281721  31.2964572  28.8529937  73.3806487  32.2581224
  28.5978049  74.0865100  32.0311412  22.8751090  76.0583493  41.7411314
  22.3629993  75.4504676  42.0996345  22.7030586  76.7740085  42.2085290
  22.7740727  76.0746792  41.8627538  17.7216804  74.5021068  44.3913676
  17.5519394  75.1622443  43.8461883  17.2782754  74.7127629  45.1126165
  17.6316138  74.6307050  44.4175305  21.6476624  72.7425566  33.4340410
  22.1233990  73.1042646  32.7990591  21.1465223  73.3982034  33.7140552
  21.6441983  72.8919755  33.3817151  34.8787985  82.2147334  29.2253415
  35.2621591  82.9638690  29.4551512  34.0832098  82.4613154  28.9665404
  34.8181767  82.3617028  29.2210988  26.7520160  73.9807737  44.1813570
  27.3091590  73.7521547  43.5492035  26.4281225  74.7413403  43.9048782
  26.7866570  74.0591574  44.0470067  14.6218869  77.4067934  39.6502166
  14.0745588  76.7368579  39.7683034  15.4111247  77.0397781  39.7145633
  14.6571052  77.2532920  39.6770866  24.4703277  77.0675391  45.1465577
  25.2214604  77.3827067  45.4605131  24.6625854  76.8654562  44.3199499
  24.6094691  77.0842772  45.0708973  23.6903277  74.8866766  26.8013794
  24.0702242  74.9046395  26.0164908  22.9495873  75.3320755  26.6804641
  23.6372114  74.9548540  26.6677362  31.3188567  73.1948957  32.3889372
  31.3182794  73.0397614  33.2473649  31.1144747  74.0411944  32.3330758
  31.2888345  73.2969578  32.5077312  13.3805838  76.6188741  36.8048189
  13.2027599  76.1665350  37.5303104  13.0924860  77.4214903  36.9886666
  13.3118791  76.6711299  36.9391692  29.0429419  77.8746459  36.0425579
  29.5383085  77.1569454  36.0029599  28.2329195  77.5717256  35.9280066
  28.9973313  77.7244105  36.0199305  24.4888031  81.7244272  28.1922584
  23.6799354  81.4010946  28.1455893  24.9962940  81.0177494  28.1250832
  24.4437698  81.5725588  28.1752878  15.1178308  79.1516465  33.9169948
  14.2523828  79.1402156  33.8052719  15.2177124  78.9646688  34.7641087
  15.0052475  79.1222526  34.0258892  31.1081238  80.6250146  38.7302708
  31.5336310  80.1024568  38.1773133  30.7438158  81.2230984  38.2091331
  31.1167841  80.6360373  38.5711718  20.7435318  88.9214364  37.4900053
  21.0581877  89.7350752  37.4977835  21.1528731  88.5364582  38.1582212
  20.8503416  88.9843066  37.5904145  27.6959838  84.3384410  35.0603865
  28.1671016  85.0524673  35.2293851  28.0320016  83.7383161  35.5963735
  27.8154953  84.3555875  35.1636241  24.6129333  69.1111881  42.0161960
  24.7457238  68.3142874  42.3442936  24.9974485  69.6378284  42.5960236
  24.6885661  69.0711798  42.1505463  27.6861688  66.0342207  38.6143053
  26.8807651  65.9239937  38.9310892  27.5568423  66.1354663  37.7572919
  27.5481821  66.0325877  38.5351094  31.1427648  72.1987699  39.2082750
  30.5590637  72.6996906  38.7960318  31.4631942  71.6917255  38.5747074
  31.1040824  72.1979534  39.0541257  23.6822447  71.1128294  29.4841425
  24.5038142  71.2826607  29.2423120  23.2192098  71.2675555  28.7607723
  23.7353610  71.1610027  29.3413069  22.2717779  69.1071056  40.2639854
  22.8162192  68.7662183  40.8544196  22.3254715  69.9656518  40.4061138
  22.3606899  69.1826316  40.3721727  18.0848338  82.8687472  37.1378662
  18.6893195  82.8283306  36.5092482  17.8775651  83.7158624  37.1682718
  18.1437235  82.9875475  37.0494778  13.3199620  81.8522090  37.0077585
  13.2223898  81.0418361  37.3167642  14.1028490  81.8313883  36.6223853
  13.4215757  81.7289180  36.9964448  44.3705761  92.7918269  31.3183775
  44.3399765  93.6462906  31.4902045  44.9687109  92.4913562  31.8769919
  44.4542919  92.8734766  31.4258578  37.5705445  91.8793920  36.0736706
  36.7143341  92.0402418  36.1245823  37.6173099  91.0085984  36.0941767
  37.4504557  91.7744722  36.0842772  31.9546585 101.4156638  31.8373937
  31.2029485 101.0372176  31.6089983  32.4032597 101.4475072  31.0892748
  31.9096252 101.3642245  31.6931440  40.8799162  98.1480446  45.6797162
  41.5865929  97.6532476  45.8084096  41.0687097  98.5889527  44.9499820
  41.0127068  98.1398796  45.5906207  37.4071545 101.8382007  27.2659485
  37.0722914 102.5158929  26.8303707  37.9198415 101.4487319  26.6776356
  37.4337126 101.8806586  27.1146276  36.9475836 103.7896276  33.2070596
  37.3315216 104.3583175  32.6675371  36.8834978 103.0645786  32.7276412
  36.9949264 103.7671740  33.0564459  40.4157266  93.9385964  38.7168358
  40.9613227  94.6171051  38.7762327  40.3574143  93.7973425  37.8569939
  40.4873181  94.0177966  38.5980418  33.5331341 101.4275030  34.1036710
  33.6341704 100.6175384  34.4133838  32.9373087 101.3331977  33.4736388
  33.4603880 101.2940058  34.0562948  42.1922335  95.3670571  29.5902085
  42.0761861  96.1178257  30.0194223  42.9878222  95.1094524  29.8398172
  42.2926925  95.4405418  29.6906177  33.3732081 106.3452619  35.5051566
  34.0169536 106.7865783  35.8947724  33.6988336 105.5406045  35.4181825
  33.5163910 106.2917814  35.5497043  26.7296386  97.4495317  33.7289044
  26.4946570  96.6162969  33.6221312  26.8682026  97.7299982  32.9150245
  26.7152048  97.3678820  33.5931399  29.0286473  89.6181047  36.6273351
  28.4091505  89.0273695  36.4583366  28.9270337  90.2092482  35.9937675
  28.9224149  89.6185130  36.5078341  34.0752661  99.3564594  30.8771428
  34.3968502  99.8969801  30.2732736  34.7224757  98.7861365  31.0093718
  34.2178716  99.3523769  30.8078463  36.1254369  91.3580589  30.9605814
  36.8234533  91.5368717  31.4527278  36.4406701  90.8350928  30.3376204
  36.2749706  91.3074361  30.9407825  28.7555606  93.1633329  38.8716920
  28.6314303  93.7495774  39.5066739  29.4073891  92.6693525  39.1729195
  28.8329255  93.1772133  39.0102850  36.3142304  97.7451034  30.9485606
  36.7535940  97.1368135  31.3940379  36.1646967  97.3658407  30.1771071
  36.3563770  97.5989505  30.9004773  33.7813947  96.3395046  38.1504431
  34.4262950  95.8467489  37.8315380  34.0215724  96.4819833  38.9770510
  33.9124532  96.2872488  38.2253965  36.3200038  99.1849952  37.8011324
  36.6023281  98.3901358  37.5798080  37.0486199  99.6630539  37.8216385
  36.4689602  99.1384549  37.7714339  34.2981232  86.7272986  35.0427089
  33.9684562  87.1784129  34.3730788  33.6226234  86.6489149  35.5900095
  34.1491669  86.7824121  35.0250312  39.9151641  96.0978215  27.9016375
  39.8302936  96.9539182  28.0465944  40.4036024  95.8222539  28.5698534
  39.9740538  96.1835537  28.0218457  41.5057640  82.7158509  33.2876700
  41.1911081  83.4061987  33.7197122  40.9884582  82.6603291  32.5862200
  41.3822111  82.8093397  33.2473649  40.8470074  92.7163010  29.4014110
  40.3181545  92.9322643  30.0611416  41.3695094  93.4099148  29.3215080
  40.8458527  92.8506146  29.4869709  46.3018127  98.2909314  34.7747155
  45.4715830  98.5019958  34.9380571  46.2527379  97.4646369  34.4989438
  46.1724862  98.1998920  34.7584520  32.7369682  96.6126226  28.2021578
  32.1526897  97.1176258  28.6087442  32.3339777  96.3868613  27.4618170
  32.5908986  96.6534475  28.1526603  28.2913710 102.3280987  35.0045250
  27.8081289 103.0531477  34.9804833  29.1037029 102.6257117  35.1155407
  28.3404458 102.4783341  35.0172529  34.3627864 101.1213168  37.6095064
  33.8454806 100.7620583  37.0056372  35.0602256 100.5975343  37.6201130
  34.3893446 100.9910856  37.5225323  38.0191456 101.5707982  43.5711237
  38.1074802 101.3834123  44.4189448  38.4481169 100.9245412  43.1716084
  38.0953559 101.4470990  43.6382989  35.5861916 100.8539142  42.5528899
  35.0232751 100.4411752  43.0768561  36.3482940 100.7792048  42.9722043
  35.6156365 100.7816543  42.6921900  37.1946896  92.8591878  26.6790499
  37.4342900  93.0669862  25.8665842  37.5162737  92.0549387  26.7879443
  37.2784054  92.7705980  26.5751052  32.5037186  84.7885274  30.5250037
  33.2583154  85.1563591  30.2867087  32.3264721  85.1624829  31.2929216
  32.5891665  84.8983462  30.6034925  31.1457908 102.8437163  35.1565530
  31.8478487 102.3289152  35.2138286  31.0655391 103.1711315  35.9612405
  31.2381668 102.8151390  35.2838322  45.7972085  90.9379715  38.5697576
  44.9600506  91.0081902  38.8045171  45.7660316  90.9404209  37.6971878
  45.6690368  90.9489942  38.4757124  32.1936814  93.0812750  44.2845945
  32.3657318  92.9718645  45.1331226  32.7306172  93.7267156  44.0477137
  32.2981818  93.1604752  44.3751041  30.8594251  87.1955593  27.2228150
  30.6769824  87.4127474  26.3969143  31.7219864  87.3094606  27.2786764
  30.9598841  87.2445491  27.1082637  30.4708683  99.0343515  34.6651138
  31.3097582  99.2666448  34.7124899  30.5020452  98.1647827  34.5958173
  30.5990401  98.9400462  34.6615782  31.0961386  99.4544391  38.9664443
  31.6359611  99.3115522  39.6367816  30.4131332  99.8541141  39.3348469
  31.0753540  99.4924061  39.1198865  36.5393970  84.1982004  30.2577174
  37.2680131  84.0197959  29.8115330  36.6288863  85.0400084  30.4684352
  36.6600632  84.2965882  30.2230691  40.5202271  95.1335391  34.1609468
  41.2759786  95.5666906  34.1998376  40.6264595  94.4840161  34.7344104
  40.6472441  95.1012875  34.2507493  43.5582442  98.9608668  34.9111871
  43.1217674  98.9645411  35.6670842  43.2245357  99.6414167  34.4791448
  43.4445062  99.0621124  34.9592703  38.1311516 101.0017001  46.2355021
  38.9151932 101.1147849  46.6010763  37.9308110 100.1758138  46.4313707
  38.2177541 100.8963721  46.3189407  26.4998531  95.6744681  39.1198865
  26.2336946  94.8583798  39.2789855  26.5137095  95.7197837  38.2494380
  26.4623253  95.5601586  39.0152347  43.4779925  86.0022496  37.1541298
  44.1205833  86.0720601  37.7403214  43.7302946  85.3351719  36.6520840
  43.6102057  85.9148845  37.1668578  30.4056278  90.4729766  25.7350623
  29.6914455  90.1867945  26.1473055  30.8900247  90.8126392  26.3757010
  30.3715641  90.4811415  25.8906258  31.2497137  89.2123060  41.7665872
  30.5568934  88.7420039  42.0126604  31.8657465  88.9861364  42.3407580
  31.2381667  89.1090191  41.8875025  38.2881909 102.9127103  39.8821476
  37.4897155 102.6726603  40.1395345  38.7367920 102.9641496  40.6288524
  38.2356520 102.8849494  40.0306401  46.6926788  95.6789588  33.8031508
  47.3543222  95.1180257  33.7027416  46.0518200  95.1841619  34.1284199
  46.6955656  95.5225997  33.8363848  37.5803596  98.9759720  26.1112431
  37.9954744  98.6444744  25.4196927  36.7495526  98.7428622  25.9832568
  37.5191605  98.8930976  25.9903278  26.9091945  96.4603461  36.4010609
  26.7267518  96.4350347  35.5482901  27.6441614  96.9302399  36.4399518
  26.9906009  96.5264823  36.2808527  42.9791619  96.6954971  33.5443497
  43.2147208  96.8400170  32.7170347  43.1281183  97.4597379  33.9375010
  43.0357422  96.8294025  33.4807100  29.9737696  93.1788464  42.9092718
  30.6977669  93.1641494  43.3957612  30.0753833  93.8883819  42.4114686
  30.0955905  93.2813167  42.9071504  44.8082076  95.5356637  31.3813100
  45.1390293  96.0684277  30.7753195  45.3815164  95.5895524  32.0375051
  44.9415755  95.6226205  31.3890882  37.3482646  96.6587548  47.7741665
  36.5555627  96.9731060  47.9594284  37.4631573  96.8739017  46.9362449
  37.2478056  96.7371385  47.6779999  40.0213965  93.3821539  32.0636680
  40.1160819  94.1210833  32.5176306  39.3972808  92.9539015  32.4971245
  39.9422995  93.4282860  32.1944828  38.2766439  96.5607752  42.7126961
  38.8505300  95.9234996  42.8675525  38.1981242  96.5611834  41.8436619
  38.3499673  96.4672863  42.6073372  26.8762855  93.3396961  36.5509676
  27.4536358  93.2033412  37.1901921  26.1776917  92.8832746  36.8055260
  26.8583876  93.2519228  36.6831965  40.2736986  95.2270279  25.2973632
  40.1917149  95.2972466  26.1628619  40.9116707  95.7900023  25.1057373
  40.3556823  95.3209250  25.3963582  33.6330157  94.9931017  34.7648159
  33.3749402  94.1602752  34.7379458  33.6878640  95.2188630  33.9240659
  33.6029935  94.9028788  34.6368296  38.7131207  87.0959468  34.8652251
  38.0087534  86.6068653  35.0236171  38.7616182  87.1081942  33.9940696
  38.6161259  87.0249116  34.7591591  32.6064869  92.5468780  35.2513054
  32.0314461  92.7060948  35.8877014  32.2300546  91.9104189  34.7881504
  32.4667682  92.4766592  35.2767612  36.2738158  91.0192129  40.1105432
  35.8852591  90.5946347  39.4557623  35.6092856  91.2674278  40.6182459
  36.1185086  90.9930850  40.0893300  45.9161427  90.7767134  32.8853262
  45.6597992  89.9647075  32.6951145  46.7590741  90.7844701  32.6583449
  46.0027453  90.6579131  32.8238079  22.3521688  92.1908854  33.2657494
  22.4381940  91.8140723  34.0471024  22.9797486  91.8169300  32.7877452
  22.4578239  92.0794336  33.3102971  40.0964520  84.7166758  37.6229416
  40.4775031  84.0344929  38.0097290  39.2927804  84.4276360  37.4405081
  40.0340981  84.5733806  37.6533472  37.3777096  95.2490733  28.3082239
  38.1917735  95.5405626  28.1965010  37.3136238  94.5950596  27.7340532
  37.4879835  95.1955928  28.2071076  43.5986586  97.9316730  42.7211815
  43.3625224  97.1004794  42.6023875  44.2429815  97.8802337  43.3066659
  43.6581257  97.8014418  42.7897708  33.2485005  98.7212251  33.4354551
  33.8858951  98.4823998  33.9806344  33.6740076  98.9249410  32.7007712
  33.4061171  98.7163261  33.4071708  27.9397647 100.9600587  37.3188855
  27.9801792 101.2315438  36.4908634  28.4992171 101.4842495  37.7346643
  28.0280993 101.0776342  37.2580743  33.8887820  93.9414541  27.7729440
  34.2732972  93.7222247  28.5245986  33.6399440  94.7677486  27.9030517
  33.9089892  94.0312687  27.9030517  34.0556360  87.2220956  47.4892025
  33.7409801  87.9920519  47.2261587  33.7346293  86.6591212  46.9044252
  33.9615279  87.2531225  47.3633375  44.6223007  97.7161178  38.7840109
  44.3168824  98.4489235  39.1453425  43.9029223  97.3099108  38.5032895
  44.4710349  97.7642911  38.7953246  35.6306477  99.1984674  35.1148337
  35.7045485  99.0359845  35.9690187  36.4475983  99.3874863  34.8708819
  35.7622835  99.2021416  35.2046363  50.3224799  94.3554179  38.1108453
  50.2549300  94.3750138  37.2411040  50.3080462  95.1984506  38.3364124
  50.3103556  94.4827914  38.0160930  29.3912233  99.5442536  32.1442781
  28.5650351  99.7904274  32.0177060  29.4524224  99.4654617  33.0104839
  29.2786400  99.5687485  32.2531725  31.6088257  85.6111477  33.1038221
  30.7410682  85.6834077  33.1695830  31.8963461  86.4133556  33.2926196
  31.5228005  85.7405624  33.1412988  40.7321146  85.7589337  41.4349543
  41.4774738  85.5699147  41.0212968  40.3158450  86.2847575  40.8763399
  40.7806120  85.8091482  41.2914116  34.1711062 102.1619417  29.8461811
  34.4609361 101.7708398  29.1221037  34.9014543 102.3436121  30.2867086
  34.3217946 102.1313230  29.8044618  48.1083417  93.1298565  36.3855048
  48.6591338  92.4966634  36.6252140  48.0927532  93.6613958  37.0770552
  48.1868613  93.1147513  36.5233906  34.7605807  96.9637162  40.9314941
  34.2617501  97.6752930  41.0099830  35.5706032  97.2837829  40.8933104
  34.8061914  97.1164011  40.9371510  32.1116978 104.1386799  32.9121960
  31.8917273 103.8484154  33.7048627  31.8911500 103.4801754  32.3839873
  32.0464572 103.9986507  32.9510869  31.0233925  96.2260115  35.1777662
  30.7347174  95.5997587  35.7123389  31.8917273  96.1680403  35.2442343
  31.1094177  96.1247660  35.2668617  41.8111823  91.3694899  35.4959644
  41.4676589  90.6485234  35.8466894  41.9104865  91.1608750  34.6538002
  41.7753866  91.2319102  35.4231324  34.2784934 105.5116189  31.6952653
  34.9308992 104.9792631  31.9243679  33.5810542 105.1584841  32.0820527
  34.2715651 105.3805712  31.7864821  31.2266198  97.8655367  31.1020027
  31.9812166  98.2468406  31.3155490  30.6336811  98.3166510  31.5566724
  31.2502912  97.9884194  31.2002906  42.2724852  97.8320603  31.0383632
  42.8382885  98.4913813  30.9542175  41.6252755  98.1770301  31.5100034
  42.2603608  97.9802544  31.0956389  33.6872865  89.8218207  46.2277239
  32.8772641  90.1275987  46.1167082  34.1647552  90.5423789  46.3429823
  33.6376344  89.9732808  46.2284311  32.5464425  99.0363928  36.4760143
  32.0245179  99.1764220  37.1612007  32.9338445  98.2774592  36.6662260
  32.5268126  98.9449452  36.6061219  29.5355609  89.0869737  30.5455097
  29.2480405  88.7171007  29.8087045  30.2226077  89.5564592  30.2838802
  29.5944506  89.1016706  30.3970173  38.7431430 100.7759387  30.4620711
  38.5018106 100.0427248  30.0547776  38.9232763 101.3246244  29.8087045
  38.7339054 100.7481778  30.3050934  33.9730751  96.0667947  31.8741634
  33.7773533  96.6742681  31.2801937  34.1965096  95.3735891  31.3933308
  33.9765392  96.0545472  31.7157714  32.3709281  92.9522685  31.9922502
  33.0931933  93.1163843  31.5326308  31.8917273  93.6732350  31.8861842
  32.4073011  93.0820914  31.9088116  40.3302788  89.2886484  37.3719187
  39.4913889  89.3147763  37.1357450  40.4007155  89.9357219  37.9524533
  40.2171182  89.3882609  37.4228304  30.0216897  95.3580757  41.0976642
  30.5337994  95.6365011  40.4485402  29.7353240  96.0970051  41.4639455
  30.0551760  95.5083111  41.0566520  38.7772066  86.1871861  32.1046803
  39.4798419  85.9879609  31.6266761  38.5116255  85.4147803  32.4115646
  38.8418699  86.0434827  32.0792244  44.2060312  94.4954470  34.6580429
  44.1194287  94.6509896  35.5115207  43.7510792  95.1392546  34.2839834
  44.1263569  94.6130225  34.7287535  27.1083804  89.8650949  31.3940378
  27.2099940  90.6677111  31.7221354  27.9039690  89.6638285  31.0963459
  27.2411709  89.9536848  31.3975734  33.5400623  87.4507146  41.1577683
  33.3483820  87.4662280  42.0077107  34.3899219  87.6470820  41.1344338
  33.6376345  87.4821497  41.2800978  27.9247536  89.9798127  39.1361500
  27.7833028  89.1282068  39.2606008  28.2088099  90.0226788  38.3123706
  27.9455382  89.8597877  39.0329124  38.0786128  91.8165217  33.2805988
  37.8320842  91.7360968  34.1142777  38.4071251  91.0318685  33.0868516
  38.0907372  91.6891483  33.3753511  41.9734177  98.5248577  37.0692769
  41.8348536  99.2229623  37.5741512  41.1934175  98.3697233  36.7128951
  41.8377404  98.6048743  37.0919044  40.3112262  94.8244952  43.3215151
  40.3060301  93.9524769  43.3257578  41.0173256  95.0233121  42.8484607
  40.4157266  94.7248826  43.2522186  34.0383155  94.5521936  42.6928971
  34.1826531  95.1323144  42.0572081  34.3858804  94.9298233  43.3978826
  34.1110617  94.6942640  42.7027966  36.2103073  93.7512104  40.4754103
  35.4626387  93.9443119  40.0702381  36.3644598  92.9257324  40.2378224
  36.1225500  93.6577216  40.3799509  33.1110910 102.7424708  39.5589998
  33.2600474 102.1827624  38.9063402  33.8910912 102.8216710  39.9422517
  33.2485004 102.6710273  39.5186947  43.4687550  97.8826831  27.8309269
  43.0894358  97.0963969  27.8238558  42.8053795  98.4313688  27.6880913
  43.3146025  97.8471655  27.8090065  35.6364211 102.9139351  40.8374489
  35.5607882 102.2448161  41.3925277  35.5654070 103.6157139  41.3515155
  35.6144818 102.9184258  40.9951337  36.4504850  87.6462655  41.3649507
  36.9077464  88.3786630  41.4922299  36.5261179  87.2229120  42.1236762
  36.5295820  87.6919893  41.4950583  40.9232176  80.8252530  35.2343349
  41.0415744  81.2828994  34.5010652  40.7494351  80.0197792  34.9479567
  40.9151347  80.7746302  35.0844283  36.2934458 101.4340350  31.6698095
  37.0584349 101.1649993  31.3480759  36.1912548 100.9490360  32.3868158
  36.3915953 101.3229914  31.7277922  34.3287228  89.6364759  38.2091331
  33.5383302  89.4556219  38.5308666  34.7247851  88.8591712  38.1921625
  34.2704104  89.4952220  38.2543879  38.8153118  98.4652533  23.6498044
  39.5826104  98.5252658  23.2403896  38.3684427  97.8932975  23.1654363
  38.8626546  98.3889109  23.5175754  39.7130914  97.2707189  35.9350776
  39.0375916  97.0392422  36.4364163  39.7223290  96.6628372  35.3092881
  39.6149419  97.1466114  35.9166929  36.8425058  92.1125018  42.6914829
  36.7784199  92.9734975  42.5634966  36.9822246  91.7957011  41.8910381
  36.8540528  92.1925185  42.5543042  41.7147649 100.1272322  28.1660954
  41.7967486 100.9339308  27.8422405  42.1997391 100.1468281  28.8901728
  41.7984806 100.2492984  28.2247853  35.5244152  94.8057158  36.8331032
  35.1006401  95.0061657  36.0970051  35.3489007  93.9586006  36.9455332
  35.4355032  94.7105939  36.7404722  35.0255845 106.3207671  39.2952490
  35.5151776 105.6218460  39.1128154  34.4540078 106.0231541  39.8828547
  35.0140375 106.1733894  39.3553530  30.8126597  95.3009209  32.2659005
  30.9691216  95.2356012  33.1214997  31.1527190  96.0757762  32.0537685
  30.8859832  95.4058407  32.3613599  37.3505741  94.6767093  31.1352368
  37.8921287  94.1737474  31.5990989  37.6652300  94.6232287  30.3241853
  37.4770139  94.5946514  31.0836180  41.2222849  98.8869740  48.2479280
  42.0357714  98.6154889  48.4084413  41.0617815  98.5877280  47.4439476
  41.3192797  98.8024666  48.1524686  35.5192191 100.0684444  28.4192396
  35.5885011  99.2098983  28.5585397  36.2980646 100.2856325  28.0911421
  35.6445041  99.9737308  28.3909553  38.4995011  89.5703397  41.1874669
  38.7136980  88.9314311  40.6338023  37.8828910  90.0149221  40.7582530
  38.4400340  89.5413541  41.0425100  39.9099679 102.4922145  32.6328889
  39.5179470 102.1888861  31.9151756  40.0652751 103.3291235  32.4433843
  39.8753269 102.5705982  32.4985387  27.3860858  92.4844159  32.5819772
  27.7659823  92.9028704  31.9180039  26.8116223  93.0657615  32.8888615
  27.3572183  92.6322018  32.5296513  40.6634099  91.1792462  42.1257976
  39.8510781  90.8718353  42.2071148  41.1224033  90.6991462  42.6900688
  40.6114484  91.0628955  42.2212570  40.0739353  99.0572134  32.5734920
  39.7154008  99.2286777  33.3498952  39.5878064  99.5185340  32.0162918
  39.9498050  99.1511105  32.6060189  37.8909739  82.6803333  36.1762011
  37.0203297  82.6542054  36.1295321  38.1450081  82.5080525  35.3587857
  37.8003300  82.6513476  36.0482148  34.8627719  94.7371300  25.1135154
  35.1520244  95.5136182  25.3878729  34.9499518  94.2260031  25.8149654
  34.9181975  94.7763218  25.2577652  37.7587606  92.5852534  46.9086678
  38.2287237  93.2094650  47.2954552  37.8049486  91.9169509  47.4679893
  37.8355482  92.5787214  47.0486749  34.9158880  84.6909561  37.6335482
  34.3997369  83.9989753  37.7587061  34.3552809  85.3580338  37.5798080
  34.7565393  84.6872819  37.6441548  36.9851113  85.2302521  39.4628334
  36.5982867  85.2551553  40.2441864  36.4984051  84.6644200  39.0102851
  36.8563622  85.1498272  39.5116238  41.2344093  99.9476030  43.5202121
  41.8723813  99.4536226  43.1864577  40.5918184  99.8753431  42.9354348
  41.2338319  99.8635039  43.3844476  42.9601093  91.7965176  38.0868036
  42.5328701  91.7091525  37.3316136  42.3227146  91.9042952  38.6722881
  42.8030700  91.7997836  38.0613478  36.4522170  86.9040701  44.0265006
  37.2795599  86.6325850  44.0823620  36.4730016  87.7001543  44.3828824
  36.5775020  86.9820456  44.0880189  41.2898349 100.6395838  40.1607478
  42.0790728 100.2884903  40.2809559  41.4641947 101.4532227  39.8984111
  41.4318631 100.7081696  40.1395346  31.0291660  94.0504564  37.2135266
  30.1879666  93.9508438  37.4214160  31.2381668  94.8200045  37.5649587
  30.9356352  94.1496608  37.2962581  28.5067227  91.6724101  35.0420017
  28.1123925  91.7467113  34.2670127  27.9507344  92.0582048  35.5928379
  28.3670039  91.7405876  35.0087677  40.1432174  84.6505395  34.7223896
  40.3481767  84.5827703  35.5680893  39.8158598  85.4564216  34.6545073
  40.1247422  84.7591336  34.8383551  34.8408325  91.9785963  36.4632864
  34.5371462  91.4241952  37.0643272  34.1387745  92.1578173  35.9760898
  34.6924535  91.9230746  36.4802570  33.8974422  89.2886483  31.0277566
  34.1734156  88.5705396  30.6155133  34.4973091  89.8871403  30.8198672
  34.0267686  89.2706854  30.9358327  32.9026676  99.1935684  41.1704962
  32.7947031  99.2037746  42.0367020  33.1122457 100.0190465  40.9809916
  32.9176787  99.3176759  41.2709053  43.3965861  85.2037159  34.2026661
  42.7840175  85.6907562  34.5880393  43.4930036  84.5280650  34.7464313
  43.3203759  85.1755468  34.3405520  37.3984942  86.9600001  29.3024161
  37.8528689  87.1310561  30.0272005  37.8724988  86.3468111  28.9021937
  37.5353262  86.8950886  29.3497922  30.9200468  96.4448327  38.6326899
  30.3288401  97.0857825  38.6029914  31.6821491  96.8685944  38.6058199
  30.9448728  96.6024165  38.6242047  31.3161091  87.6050324  39.2994917
  31.7762572  87.6789254  40.0370041  31.3617197  88.4031578  38.9494738
  31.3911646  87.7344471  39.3567673  32.9644440  88.2717019  43.8666944
  32.5730005  87.6250366  44.3022722  33.1330303  88.8628454  44.4861199
  32.9315351  88.2631287  44.0229650  47.0390889  96.2754096  39.6304178
  47.0974013  96.7240745  40.3764154  46.4057357  96.6852909  39.1934258
  46.9542184  96.4027831  39.6756726  40.6789984 101.8957638  36.0658924
  40.4809673 102.3848453  35.3715135  40.0577695 102.0998880  36.6443057
  40.5577548 101.9974176  36.0482147  34.7397962  93.6642535  30.4069168
  35.4840007  94.0516811  30.6452118  34.8858658  92.8199960  30.5709656
  34.8708547  93.5973008  30.4663138  36.6577538  85.4592794  35.4401029
  35.8113583  85.6315602  35.3142379  36.6548670  84.6542138  35.7766858
  36.5324688  85.3653823  35.4712156  37.7275838  89.2368008  36.3063087
  37.2535792  88.7109770  36.8168398  38.0993974  88.6897481  35.7377949
  37.7125727  89.0784005  36.2978235  28.1048868  91.2339515  41.6746633
  28.9674481  91.1335224  41.5883963  27.7740651  90.6534224  41.1132205
  28.1834065  91.1331142  41.5792039  43.9912569  94.2970384  37.7169868
  43.7510792  93.4576799  37.7212294  44.4704576  94.3770551  38.4410641
  44.0264752  94.1851784  37.8244670  39.6559338  90.1304563  29.3688841
  39.1282356  90.2133307  28.6794550  40.1155046  90.8722434  29.3653486
  39.6461188  90.2525225  29.2663536  45.9917756  91.0771841  35.6699127
  45.7527526  91.0367675  34.8319912  46.1551657  91.9242993  35.7964848
  45.9808059  91.1963926  35.5652609  42.5963786  95.4621790  41.6004172
  43.3197985  95.0094317  41.4215192  42.3313748  95.7426456  40.8176500
  42.6645059  95.4372759  41.4582888  31.4650654  90.0581964  38.3357051
  30.8403724  90.0700356  37.7283004  31.1296249  90.5342139  38.9848292
  31.3236146  90.1300481  38.3413620  31.6492403  88.4007082  24.3929736
  31.3005207  89.0526808  24.8561286  31.1688849  88.3864195  23.6653608
  31.5262647  88.4950136  24.3540828  28.1776330  98.1182424  39.7760816
  27.6476254  97.4274863  39.8255790  28.4501423  98.1092609  38.9473524
  28.1401052  98.0149556  39.6608232  39.2096420  98.7008126  28.4998498
  39.9330619  99.1666239  28.3563072  38.7697011  98.7681736  27.7496095
  39.2512113  98.7791963  28.3683280  38.3782575  95.5605669  39.7499187
  37.7639569  95.0163719  40.0447823  38.8949860  95.0469905  39.2705003
  38.3638238  95.4042078  39.7223416  37.6178873  96.6309939  37.4843486
  37.1906481  96.0059657  37.0508921  37.6103817  96.3484861  38.3102493
  37.5538014  96.4962719  37.5423313  30.7341400  91.6675112  40.5531920
  30.8934886  90.9118436  40.9583642  30.5534293  92.2166051  41.2072658
  30.7306759  91.6368926  40.7094626  38.6761703  83.8336347  41.1082709
  38.1802264  84.0300022  40.4174276  39.4330765  84.2329016  40.9371511
  38.7148527  83.9214081  40.9802846  35.9464582  87.5078693  37.6986020
  35.9707069  86.9738806  37.0098800  36.1976056  86.9996002  38.3611610
  35.9874501  87.3539597  37.6950665  23.4572172  94.7910188  37.1329164
  23.3515621  94.7457033  36.2681248  22.7072392  95.1363969  37.4143449
  23.3307775  94.8351096  37.0466494  32.2265904  86.2349511  37.0791764
  32.2664276  86.7358718  37.7926472  31.4015569  86.3259905  36.8097687
  32.1105430  86.3231328  37.1442302  34.4095517  95.8010251  45.1812059
  33.5591148  95.9381966  45.3169704  34.5723645  95.0674030  45.6259760
  34.3079381  95.7124353  45.2667658  33.6480268  92.7510021  39.3765663
  32.8172198  92.9183839  39.1700911  33.5931785  92.3745972  40.1614549
  33.5169683  92.7199753  39.4614191  32.0216312  91.0265613  29.9055781
  32.1619273  91.5238077  30.6084422  32.5198844  90.3251907  30.0469995
  32.1157393  90.9967592  30.0307360  32.0516534  91.8932724  27.2348358
  32.6861614  92.4893149  27.1697820  32.1342145  91.5936181  28.0494228
  32.1573085  91.9373632  27.3451444  45.0299100  94.4248201  40.1034722
  45.6216940  95.0645452  40.1352920  45.4658094  93.7271238  40.3926789
  45.1817531  94.4166552  40.1515555  33.6295517  87.8246699  27.2093800
  33.9511358  87.3449782  26.5553062  33.8922461  88.6346345  27.0184611
  33.7161542  87.8736597  27.0849292  36.8592490  98.8465574  40.7292616
  36.3517581  99.4001420  41.1733246  36.5619136  98.9073864  39.9111390
  36.7397375  98.9371885  40.6741073  39.0254672  87.2118893  39.5717279
  39.4509743  86.7591420  38.9600805  38.4111665  86.6578964  39.8482066
  38.9983317  87.0632869  39.5222304  28.5569522  94.0900565  30.5037904
  29.0661751  94.6865072  30.8849209  29.0303794  93.8226538  29.8214323
  28.7012898  94.1386380  30.4592426  39.4700270 102.7628831  28.6596559
  38.7529580 102.5889694  28.1943797  40.1207008 102.5281404  28.1272045
  39.4602121 102.7024624  28.5125777  37.4648895  83.6833993  32.9807856
  36.8217213  83.5331639  33.5492994  37.1248302  83.4376338  32.2156960
  37.3193972  83.6246116  32.9510871  42.0548241  91.6393420  32.4037864
  41.3839431  92.1823122  32.2750930  42.7487991  92.1088275  32.1619559
  42.0577109  91.7891691  32.3493392  36.1034975 103.7790132  37.6349623
  35.8800629 103.0208961  38.0033649  35.6144818 103.8088153  36.9130062
  35.9978424 103.6712356  37.5826364  42.2176369  88.0949303  35.3128238
  42.5703979  87.6679026  35.9874036  41.3591170  88.0100147  35.4429314
  42.1425813  88.0194044  35.4323248  30.9160054  90.7256823  33.3711084
  30.1972043  91.1420956  33.6383948  31.2872416  91.2911062  32.8202722
  30.8651985  90.8706105  33.3293891  40.2159635  91.3584672  39.2613080
  40.1957562  91.1767967  40.1147859  40.2638835  92.2296691  39.2372664
  40.2194276  91.4601210  39.3836375  38.1605964  97.9471864  45.1861556
  38.1201819  97.3021541  44.6006712  38.9729283  97.8908481  45.4986968
  38.2749118  97.8430831  45.1458506  34.7513432 103.9990590  35.0886707
  34.3373831 103.3364720  34.6990549  35.4360806 104.1468449  34.5682402
  34.7911804 103.9231248  34.9543204  38.1178726 103.1580675  35.8410324
  37.7195009 103.2682946  35.0731144  37.5029946 103.3662742  36.4236884
  37.9677615 103.2054243  35.8141623  36.6906628  89.7654823  28.7084464
  36.0971467  90.0871820  28.1569031  36.7281906  88.9195918  28.5005570
  36.6081017  89.6879151  28.5967235  43.6500429  83.2167715  36.2412550
  43.1431293  82.5096855  36.1733728  44.4467863  82.8860904  36.3713627
  43.6927668  83.0640867  36.2511545  39.5664445  89.7234328  32.1386214
  39.3378138  89.7467029  31.2964572  39.8262521  88.8991795  32.2581224
  39.5710633  89.6050408  32.0311412  33.8483673  91.5768801  41.7411314
  33.3362576  90.9689984  42.0996345  33.6763169  92.2925393  42.2085290
  33.7473310  91.5932100  41.8627538  28.6949388  90.0206376  44.3913676
  28.5251978  90.6807751  43.8461883  28.2515338  90.2312937  45.1126165
  28.6048721  90.1492358  44.4175305  32.6209207  88.2610874  33.4340410
  33.0966573  88.6227954  32.7990591  32.1197807  88.9167341  33.7140552
  32.6174566  88.4105063  33.3817151  45.8520569  97.7332642  29.2253415
  46.2354175  98.4823998  29.4551512  45.0564682  97.9798462  28.9665404
  45.7914351  97.8802336  29.2210988  37.7252743  89.4993045  44.1813570
  38.2824174  89.2706855  43.5492035  37.4013808  90.2598711  43.9048782
  37.7599154  89.5776882  44.0470067  25.5951452  92.9253241  39.6502166
  25.0478172  92.2553887  39.7683034  26.3843830  92.5583089  39.7145633
  25.6303636  92.7718228  39.6770866  35.4435861  92.5860699  45.1465577
  36.1947188  92.9012375  45.4605131  35.6358437  92.3839869  44.3199499
  35.5827275  92.6028080  45.0708973  34.6635860  90.4052074  26.8013794
  35.0434825  90.4231703  26.0164908  33.9228456  90.8506063  26.6804641
  34.6104698  90.4733848  26.6677362  42.2921151  88.7134265  32.3889372
  42.2915377  88.5582921  33.2473649  42.0877331  89.5597252  32.3330758
  42.2620929  88.8154886  32.5077312  24.3538422  92.1374049  36.8048189
  24.1760183  91.6850658  37.5303104  24.0657444  92.9400211  36.9886666
  24.2851375  92.1896607  36.9391692  40.0162003  93.3931767  36.0425579
  40.5115668  92.6754762  36.0029599  39.2061779  93.0902564  35.9280066
  39.9705896  93.2429413  36.0199305  35.4620614  97.2429580  28.1922584
  34.6531937  96.9196253  28.1455893  35.9695523  96.5362802  28.1250832
  35.4170281  97.0910896  28.1752878  26.0910892  94.6701773  33.9169948
  25.2256411  94.6587464  33.8052719  26.1909708  94.4831996  34.7641087
  25.9785059  94.6407834  34.0258892  42.0813822  96.1435454  38.7302708
  42.5068893  95.6209876  38.1773133  41.7170742  96.7416292  38.2091331
  42.0900424  96.1545681  38.5711718  31.7167902 104.4399672  37.4900053
  32.0314461 105.2536060  37.4977835  32.1261315 104.0549890  38.1582212
  31.8236000 104.5028374  37.5904145  38.6692421  99.8569718  35.0603865
  39.1403599 100.5709981  35.2293851  39.0052600  99.2568469  35.5963735
  38.7887536  99.8741183  35.1636241  40.7569406 101.4671032  47.2395937
  40.8666371 100.6779592  47.5952685  41.0860302 101.3776968  46.4370275
  40.8221812 101.3376885  47.1738328  39.3066368  99.6487653  41.8231558
  38.7587313  99.0245536  41.5551623  39.7679396  99.8381925  41.1075637
  39.2933577  99.5846703  41.6781989  38.6594271  81.5527515  38.6143053
  37.8540235  81.4425245  38.9310892  38.5301007  81.6539971  37.7572919
  38.5214404  81.5511185  38.5351094  42.1160232  87.7173007  39.2082750
  41.5323221  88.2182214  38.7960318  42.4364526  87.2102563  38.5747074
  42.0773407  87.7164842  39.0541257  34.6555031  86.6313602  29.4841425
  35.4770725  86.8011915  29.2423120  34.1924682  86.7860863  28.7607723
  34.7086193  86.6795335  29.3413069  33.2450363  84.6256364  40.2639854
  33.7894776  84.2847491  40.8544196  33.2987299  85.4841826  40.4061138
  33.3339482  84.7011623  40.3721727  29.0580922  98.3872780  37.1378662
  29.6625779  98.3468614  36.5092482  28.8508234  99.2343932  37.1682718
  29.1169819  98.5060783  37.0494778  38.8724694 100.6538725  38.3540899
  39.6923068 100.5101691  38.6157194  38.5918771 101.2784924  38.8957337
  38.9521437 100.7249077  38.4728839  24.2932204  97.3707398  37.0077585
  24.1956482  96.5603669  37.3167642  25.0761074  97.3499191  36.6223853
  24.3948340  97.2474488  36.9964448  55.3438344 108.3103577  31.3183775
  55.3132349 109.1648214  31.4902045  55.9419693 108.0098870  31.8769919
  55.4275502 108.3920074  31.4258578  48.5438029 107.3979228  36.0736706
  47.6875925 107.5587726  36.1245823  48.5905683 106.5271292  36.0941767
  48.4237140 107.2930030  36.0842772  42.9279169 116.9341946  31.8373937
  42.1762068 116.5557484  31.6089983  43.3765180 116.9660379  31.0892748
  42.8828836 116.8827553  31.6931440  51.8531746 113.6665754  45.6797162
  52.5598513 113.1717784  45.8084096  52.0419681 114.1074835  44.9499820
  51.9859651 113.6584104  45.5906207  48.3804129 117.3567315  27.2659485
  48.0455497 118.0344237  26.8303707  48.8930999 116.9672627  26.6776356
  48.4069710 117.3991894  27.1146276  47.9208420 119.3081584  33.2070596
  48.3047799 119.8768483  32.6675371  47.8567561 118.5831094  32.7276412
  47.9681847 119.2857047  33.0564459  51.3889850 109.4571272  38.7168358
  51.9345810 110.1356359  38.7762327  51.3306726 109.3158733  37.8569939
  51.4605764 109.5363274  38.5980418  44.5063925 116.9460338  34.1036710
  44.6074288 116.1360692  34.4133838  43.9105670 116.8517284  33.4736388
  44.4336464 116.8125366  34.0562948  53.1654919 110.8855879  29.5902085
  53.0494445 111.6363565  30.0194223  53.9610805 110.6279832  29.8398172
  53.2659508 110.9590726  29.6906177  44.3464665 121.8637927  35.5051566
  44.9902120 122.3051091  35.8947724  44.6720920 121.0591353  35.4181825
  44.4896493 121.8103122  35.5497043  37.7028969 112.9680625  33.7289044
  37.4679154 112.1348277  33.6221312  37.8414610 113.2485290  32.9150245
  37.6884632 112.8864128  33.5931399  40.0019057 105.1366355  36.6273351
  39.3824088 104.5459002  36.4583366  39.9002920 105.7277790  35.9937675
  39.8956732 105.1370438  36.5078341  45.0485244 114.8749902  30.8771428
  45.3701085 115.4155109  30.2732736  45.6957341 114.3046673  31.0093718
  45.1911299 114.8709077  30.8078463  47.0986952 106.8765897  30.9605814
  47.7967117 107.0554025  31.4527278  47.4139285 106.3536236  30.3376204
  47.2482289 106.8259669  30.9407825  39.7288190 108.6818637  38.8716920
  39.6046887 109.2681082  39.5066739  40.3806474 108.1878833  39.1729195
  39.8061839 108.6957441  39.0102850  47.2874888 113.2636342  30.9485606
  47.7268523 112.6553443  31.3940379  47.1379551 112.8843715  30.1771071
  47.3296353 113.1174813  30.9004773  44.7546531 111.8580354  38.1504431
  45.3995533 111.3652797  37.8315380  44.9948308 112.0005140  38.9770510
  44.8857116 111.8057796  38.2253965  47.2932622 114.7035260  37.8011324
  47.5755865 113.9086665  37.5798080  48.0218782 115.1815847  37.8216385
  47.4422186 114.6569857  37.7714339  45.2713816 102.2458294  35.0427089
  44.9417146 102.6969437  34.3730788  44.5958818 102.1674457  35.5900095
  45.1224252 102.3009429  35.0250312  50.8884224 111.6163523  27.9016375
  50.8035519 112.4724490  28.0465944  51.3768607 111.3407847  28.5698534
  50.9473122 111.7020845  28.0218457  52.4790224  98.2343817  33.2876700
  52.1643665  98.9247295  33.7197122  51.9617165  98.1788599  32.5862200
  52.3554694  98.3278705  33.2473649  51.8202657 108.2348317  29.4014110
  51.2914129 108.4507951  30.0611416  52.3427677 108.9284456  29.3215080
  51.8191110 108.3691454  29.4869709  57.2750710 113.8094622  34.7747155
  56.4448413 114.0205266  34.9380571  57.2259963 112.9831676  34.4989438
  57.1457446 113.7184228  34.7584520  43.7102265 112.1311534  28.2021578
  43.1259480 112.6361566  28.6087442  43.3072360 111.9053921  27.4618170
  43.5641569 112.1719783  28.1526603  39.2646294 117.8466295  35.0045250
  38.7813872 118.5716785  34.9804833  40.0769612 118.1442425  35.1155407
  39.3137042 117.9968649  35.0172529  45.3360448 116.6398476  37.6095064
  44.8187390 116.2805891  37.0056372  46.0334839 116.1160651  37.6201130
  45.3626029 116.5096164  37.5225323  48.9924040 117.0893290  43.5711237
  49.0807386 116.9019431  44.4189448  49.4213752 116.4430720  43.1716084
  49.0686142 116.9656298  43.6382989  46.5594500 116.3724450  42.5528899
  45.9965335 115.9597060  43.0768561  47.3215523 116.2977356  42.9722043
  46.5888948 116.3001851  42.6921900  48.1679480 108.3777186  26.6790499
  48.4075483 108.5855170  25.8665842  48.4895321 107.5734695  26.7879443
  48.2516638 108.2891288  26.5751052  43.4769770 100.3070582  30.5250037
  44.2315738 100.6748899  30.2867087  43.2997305 100.6810136  31.2929216
  43.5624248 100.4168770  30.6034925  42.1190491 118.3622471  35.1565530
  42.8211070 117.8474460  35.2138286  42.0387974 118.6896623  35.9612405
  42.2114252 118.3336697  35.2838322  56.7704669 106.4565023  38.5697576
  55.9333090 106.5267210  38.8045171  56.7392900 106.4589517  37.6971878
  56.6422951 106.4675250  38.4757124  43.1669398 108.5998058  44.2845945
  43.3389901 108.4903953  45.1331226  43.7038755 109.2452464  44.0477137
  43.2714402 108.6790060  44.3751041  41.8326835 102.7140901  27.2228150
  41.6502408 102.9312782  26.3969143  42.6952448 102.8279914  27.2786764
  41.9331424 102.7630799  27.1082637  41.4441267 114.5528823  34.6651138
  42.2830166 114.7851756  34.7124899  41.4753036 113.6833135  34.5958173
  41.5722984 114.4585770  34.6615782  42.0693970 114.9729698  38.9664443
  42.6092195 114.8300829  39.6367816  41.3863916 115.3726449  39.3348469
  42.0486123 115.0109369  39.1198865  47.5126554  99.7167312  30.2577174
  48.2412714  99.5383267  29.8115330  47.6021447 100.5585392  30.4684352
  47.6333216  99.8151190  30.2230691  51.4934854 110.6520699  34.1609468
  52.2492370 111.0852213  34.1998376  51.5997179 110.0025469  34.7344104
  51.6205025 110.6198183  34.2507493  54.5315026 114.4793976  34.9111871
  54.0950257 114.4830719  35.6670842  54.1977941 115.1599475  34.4791448
  54.4177646 114.5806432  34.9592703  49.1044099 116.5202309  46.2355021
  49.8884516 116.6333157  46.6010763  48.9040694 115.6943446  46.4313707
  49.1910125 116.4149029  46.3189407  37.4731115 111.1929989  39.1198865
  37.2069530 110.3769106  39.2789855  37.4869679 111.2383145  38.2494380
  37.4355837 111.0786894  39.0152347  54.4512508 101.5207804  37.1541298
  55.0938417 101.5905909  37.7403214  54.7035529 100.8537027  36.6520840
  54.5834641 101.4334153  37.1668578  41.3788862 105.9915074  25.7350623
  40.6647039 105.7053253  26.1473055  41.8632830 106.3311700  26.3757010
  41.3448225 105.9996723  25.8906258  42.2229721 104.7308368  41.7665872
  41.5301518 104.2605347  42.0126604  42.8390048 104.5046672  42.3407580
  42.2114251 104.6275499  41.8875025  49.2614493 118.4312411  39.8821476
  48.4629738 118.1911911  40.1395345  49.7100504 118.4826804  40.6288524
  49.2089104 118.4034802  40.0306401  57.6659372 111.1974896  33.8031508
  58.3275806 110.6365565  33.7027416  57.0250784 110.7026927  34.1284199
  57.6688239 111.0411305  33.8363848  48.5536180 114.4945028  26.1112431
  48.9687328 114.1630051  25.4196927  47.7228109 114.2613930  25.9832568
  48.4924188 114.4116284  25.9903278  37.8824528 111.9788769  36.4010609
  37.7000102 111.9535655  35.5482901  38.6174197 112.4487707  36.4399518
  37.9638592 112.0450131  36.2808527  53.9524203 112.2140279  33.5443497
  54.1879792 112.3585478  32.7170347  54.1013766 112.9782687  33.9375010
  54.0090006 112.3479333  33.4807100  40.9470280 108.6973772  42.9092718
  41.6710252 108.6826802  43.3957612  41.0486417 109.4069127  42.4114686
  41.0688489 108.7998475  42.9071504  55.7814659 111.0541945  31.3813100
  56.1122876 111.5869585  30.7753195  56.3547747 111.1080832  32.0375051
  55.9148338 111.1411513  31.3890882  48.3215229 112.1772856  47.7741665
  47.5288210 112.4916368  47.9594284  48.4364157 112.3924325  46.9362449
  48.2210640 112.2556693  47.6779999  50.9946548 108.9006847  32.0636680
  51.0893403 109.6396141  32.5176306  50.3705392 108.4724323  32.4971245
  50.9155578 108.9468168  32.1944828  49.2499022 112.0793060  42.7126961
  49.8237884 111.4420304  42.8675525  49.1713826 112.0797142  41.8436619
  49.3232257 111.9858171  42.6073372  37.8495439 108.8582269  36.5509676
  38.4268941 108.7218720  37.1901921  37.1509500 108.4018053  36.8055260
  37.8316460 108.7704536  36.6831965  51.2469570 110.7455587  25.2973632
  51.1649732 110.8157774  26.1628619  51.8849290 111.3085331  25.1057373
  51.3289407 110.8394558  25.3963582  44.6062741 110.5116325  34.7648159
  44.3481985 109.6788060  34.7379458  44.6611224 110.7373938  33.9240659
  44.5762519 110.4214096  34.6368296  49.6863791 102.6144776  34.8652251
  48.9820118 102.1253961  35.0236171  49.7348765 102.6267250  33.9940696
  49.5893843 102.5434424  34.7591591  43.5797453 108.0654087  35.2513054
  43.0047044 108.2246256  35.8877014  43.2033129 107.4289497  34.7881504
  43.4400265 107.9951900  35.2767612  47.2470742 106.5377437  40.1105432
  46.8585174 106.1131655  39.4557623  46.5825440 106.7859586  40.6182459
  47.0917669 106.5116158  40.0893300  56.8894011 106.2952441  32.8853262
  56.6330576 105.4832383  32.6951145  57.7323325 106.3030009  32.6583449
  56.9760036 106.1764439  32.8238079  33.3254272 107.7094162  33.2657494
  33.4114524 107.3326031  34.0471024  33.9530069 107.3354608  32.7877452
  33.4310823 107.5979644  33.3102971  51.0697103 100.2352066  37.6229416
  51.4507615  99.5530237  38.0097290  50.2660387  99.9461668  37.4405081
  51.0073565 100.0919114  37.6533472  48.3509680 110.7676041  28.3082239
  49.1650319 111.0590934  28.1965010  48.2868821 110.1135904  27.7340532
  48.4612419 110.7141236  28.2071076  54.5719170 113.4502037  42.7211815
  54.3357807 112.6190102  42.6023875  55.2162399 113.3987645  43.3066659
  54.6313841 113.3199725  42.7897708  44.2217588 114.2397559  33.4354551
  44.8591535 114.0009306  33.9806344  44.6472660 114.4434718  32.7007712
  44.3793754 114.2348569  33.4071708  38.9130231 116.4785895  37.3188855
  38.9534376 116.7500746  36.4908634  39.4724755 117.0027803  37.7346643
  39.0013576 116.5961650  37.2580743  44.8620403 109.4599849  27.7729440
  45.2465556 109.2407555  28.5245986  44.6132023 110.2862794  27.9030517
  44.8822476 109.5497995  27.9030517  45.0288944 102.7406264  47.4892025
  44.7142385 103.5105827  47.2261587  44.7078876 102.1776520  46.9044252
  44.9347863 102.7716532  47.3633375  55.5955591 113.2346486  38.7840109
  55.2901408 113.9674543  39.1453425  54.8761806 112.8284416  38.5032895
  55.4442933 113.2828219  38.7953246  46.6039060 114.7169981  35.1148337
  46.6778068 114.5545153  35.9690187  47.4208566 114.9060171  34.8708819
  46.7355419 114.7206724  35.2046363  61.2957383 109.8739487  38.1108453
  61.2281883 109.8935446  37.2411040  61.2813045 110.7169814  38.3364124
  61.2836139 110.0013222  38.0160930  40.3644817 115.0627844  32.1442781
  39.5382934 115.3089581  32.0177060  40.4256808 114.9839925  33.0104839
  40.2518984 115.0872793  32.2531725  42.5820841 101.1296785  33.1038221
  41.7143266 101.2019385  33.1695830  42.8696045 101.9318864  33.2926196
  42.4960589 101.2590932  33.1412988  51.7053729 101.2774645  41.4349543
  52.4507321 101.0884455  41.0212968  51.2891034 101.8032883  40.8763399
  51.7538704 101.3276790  41.2914116  45.1443646 117.6804724  29.8461811
  45.4341944 117.2893706  29.1221037  45.8747127 117.8621429  30.2867086
  45.2950530 117.6498538  29.8044618  59.0816000 108.6483873  36.3855048
  59.6323922 108.0151942  36.6252140  59.0660116 109.1799266  37.0770552
  59.1601197 108.6332821  36.5233906  45.7338391 112.4822470  40.9314941
  45.2350085 113.1938238  41.0099830  46.5438615 112.8023137  40.8933104
  45.7794498 112.6349319  40.9371510  43.0849561 119.6572107  32.9121960
  42.8649857 119.3669462  33.7048627  42.8644083 118.9987062  32.3839873
  43.0197156 119.5171815  32.9510869  41.9966509 111.7445423  35.1777662
  41.7079757 111.1182895  35.7123389  42.8649857 111.6865711  35.2442343
  42.0826761 111.6432968  35.2668617  52.7844406 106.8880207  35.4959644
  52.4409172 106.1670542  35.8466894  52.8837449 106.6794058  34.6538002
  52.7486449 106.7504410  35.4231324  45.2517517 121.0301497  31.6952653
  45.9041575 120.4977939  31.9243679  44.5543126 120.6770149  32.0820527
  45.2448235 120.8991020  31.7864821  42.1998782 113.3840674  31.1020027
  42.9544750 113.7653714  31.3155490  41.6069395 113.8351818  31.5566724
  42.2235496 113.5069502  31.2002906  53.2457435 113.3505911  31.0383632
  53.8115468 114.0099121  30.9542175  52.5985339 113.6955609  31.5100034
  53.2336192 113.4987852  31.0956389  44.6605449 105.3403515  46.2277239
  43.8505225 105.6461295  46.1167082  45.1380136 106.0609097  46.3429823
  44.6108928 105.4918116  46.2284311  43.5197009 114.5549236  36.4760143
  42.9977762 114.6949527  37.1612007  43.9071029 113.7959900  36.6662260
  43.5000709 114.4634760  36.6061219  40.5088193 104.6055045  30.5455097
  40.2212988 104.2356315  29.8087045  41.1958661 105.0749900  30.2838802
  40.5677090 104.6202014  30.3970173  49.7164014 116.2944695  30.4620711
  49.4750689 115.5612556  30.0547776  49.8965346 116.8431552  29.8087045
  49.7071638 116.2667086  30.3050934  44.9463334 111.5853255  31.8741634
  44.7506117 112.1927989  31.2801937  45.1697680 110.8921199  31.3933308
  44.9497975 111.5730780  31.7157714  43.3441864 108.4707993  31.9922502
  44.0664516 108.6349151  31.5326308  42.8649857 109.1917658  31.8861842
  43.3805595 108.6006222  31.9088116  51.3035372 104.8071792  37.3719187
  50.4646472 104.8333070  37.1357450  51.3739739 105.4542527  37.9524533
  51.1903765 104.9067917  37.4228304  40.9949481 110.8766065  41.0976642
  41.5070578 111.1550318  40.4485402  40.7085824 111.6155359  41.4639455
  41.0284344 111.0268419  41.0566520  49.7504650 101.7057169  32.1046803
  50.4531003 101.5064917  31.6266761  49.4848839 100.9333111  32.4115646
  49.8151282 101.5620135  32.0792244  55.1792896 110.0139778  34.6580429
  55.0926870 110.1695204  35.5115207  54.7243376 110.6577854  34.2839834
  55.0996152 110.1315533  34.7287535  38.0816387 105.3836257  31.3940378
  38.1832524 106.1862418  31.7221354  38.8772274 105.1823593  31.0963459
  38.2144293 105.4722156  31.3975734  44.5133206 102.9692454  41.1577683
  44.3216403 102.9847588  42.0077107  45.3631802 103.1656128  41.1344338
  44.6108928 103.0006805  41.2800978  38.8980119 105.4983435  39.1361500
  38.7565611 104.6467376  39.2606008  39.1820683 105.5412096  38.3123706
  38.9187965 105.3783185  39.0329124  49.0518712 107.3350525  33.2805988
  48.8053426 107.2546276  34.1142777  49.3803835 106.5503993  33.0868516
  49.0639955 107.2076791  33.3753511  52.9466760 114.0433885  37.0692769
  52.8081120 114.7414931  37.5741512  52.1666758 113.8882541  36.7128951
  52.8109987 114.1234051  37.0919044  51.2844846 110.3430260  43.3215151
  51.2792884 109.4710077  43.3257578  51.9905839 110.5418429  42.8484607
  51.3889850 110.2434134  43.2522186  45.0115739 110.0707244  42.6928971
  45.1559115 110.6508452  42.0572081  45.3591388 110.4483541  43.3978826
  45.0843200 110.2127948  42.7027966  47.1835656 109.2697412  40.4754103
  46.4358970 109.4628427  40.0702381  47.3377182 108.4442632  40.2378224
  47.0958084 109.1762524  40.3799509  44.0843494 118.2610016  39.5589998
  44.2333058 117.7012932  38.9063402  44.8643496 118.3402018  39.9422517
  44.2217588 118.1895581  39.5186947  54.4420133 113.4012139  27.8309269
  54.0626942 112.6149276  27.8238558  53.7786379 113.9498996  27.6880913
  54.2878608 113.3656963  27.8090065  46.6096795 118.4324659  40.8374489
  46.5340466 117.7633469  41.3925277  46.5386654 119.1342447  41.3515155
  46.5877401 118.4369566  40.9951337  47.4237433 103.1647963  41.3649507
  47.8810047 103.8971937  41.4922299  47.4993762 102.7414428  42.1236762
  47.5028403 103.2105201  41.4950583  39.6670425 103.4113783  42.4538950
  39.1312614 102.7994141  42.7699717  39.7288189 103.9861919  43.1072617
  39.5966057 103.4060711  42.5974377  51.8964759  96.3437838  35.2343349
  52.0148327  96.8014302  34.5010652  51.7226935  95.5383100  34.9479567
  51.8883930  96.2931610  35.0844283  47.2667042 116.9525658  31.6698095
  48.0316933 116.6835301  31.3480759  47.1645131 116.4675668  32.3868158
  47.3648537 116.8415222  31.7277922  45.3019811 105.1550067  38.2091331
  44.5115886 104.9741527  38.5308666  45.6980434 104.3777020  38.1921625
  45.2436687 105.0137528  38.2543879  49.7885702 113.9837841  23.6498044
  50.5558687 114.0437966  23.2403896  49.3417011 113.4118283  23.1654363
  49.8359129 113.9074417  23.5175754  50.6863498 112.7892497  35.9350776
  50.0108499 112.5577729  36.4364163  50.6955874 112.1813680  35.3092881
  50.5882002 112.6651422  35.9166929  47.8157642 107.6310326  42.6914829
  47.7516783 108.4920283  42.5634966  47.9554829 107.3142319  41.8910381
  47.8273112 107.7110493  42.5543042  52.6880232 115.6457630  28.1660954
  52.7700070 116.4524616  27.8422405  53.1729974 115.6653589  28.8901728
  52.7717390 115.7678292  28.2247853  46.4976735 110.3242465  36.8331032
  46.0738985 110.5246965  36.0970051  46.3221591 109.4771313  36.9455332
  46.4087616 110.2291247  36.7404722  45.9988429 121.8392978  39.2952490
  46.4884359 121.1403768  39.1128154  45.4272661 121.5416848  39.8828547
  45.9872959 121.6919202  39.3553530  41.7859180 110.8194517  32.2659005
  41.9423800 110.7541320  33.1214997  42.1259774 111.5943069  32.0537685
  41.8592415 110.9243715  32.3613599  48.3238325 110.1952401  31.1352368
  48.8653870 109.6922782  31.5990989  48.6384884 110.1417595  30.3241853
  48.4502722 110.1131821  31.0836180  52.1955432 114.4055048  48.2479280
  53.0090298 114.1340197  48.4084413  52.0350399 114.1062588  47.4439476
  52.2925381 114.3209974  48.1524686  46.4924775 115.5869752  28.4192396
  46.5617595 114.7284291  28.5585397  47.2713230 115.8041633  28.0911421
  46.6177625 115.4922616  28.3909553  49.4727594 105.0888705  41.1874669
  49.6869564 104.4499619  40.6338023  48.8561494 105.5334529  40.7582530
  49.4132924 105.0598849  41.0425100  50.8832262 118.0107453  32.6328889
  50.4912054 117.7074168  31.9151756  51.0385335 118.8476543  32.4433843
  50.8485852 118.0891290  32.4985387  38.3593442 108.0029467  32.5819772
  38.7392407 108.4214012  31.9180039  37.7848807 108.5842923  32.8888615
  38.3304767 108.1507326  32.5296513  51.6366682 106.6977770  42.1257976
  50.8243364 106.3903661  42.2071148  52.0956617 106.2176770  42.6900688
  51.5847067 106.5814263  42.2212570  51.0471937 114.5757442  32.5734920
  50.6886592 114.7472085  33.3498952  50.5610648 115.0370648  32.0162918
  50.9230634 114.6696413  32.6060189  48.8642323  98.1988641  36.1762011
  47.9935881  98.1727362  36.1295321  49.1182664  98.0265833  35.3587857
  48.7735883  98.1698784  36.0482148  45.8360302 110.2556608  25.1135154
  46.1252827 111.0321490  25.3878729  45.9232101 109.7445339  25.8149654
  45.8914559 110.2948526  25.2577652  48.7320190 108.1037842  46.9086678
  49.2019821 108.7279958  47.2954552  48.7782070 107.4354817  47.4679893
  48.8088066 108.0972522  47.0486749  45.8891464 100.2094869  37.6335482
  45.3729952  99.5175061  37.7587061  45.3285392 100.8765646  37.5798080
  45.7297977 100.2058127  37.6441548  47.9583697 100.7487829  39.4628334
  47.5715450 100.7736861  40.2441864  47.4716634 100.1829508  39.0102851
  47.8296206 100.6683580  39.5116238  52.2076676 115.4661338  43.5202121
  52.8456397 114.9721534  43.1864577  51.5650768 115.3938739  42.9354348
  52.2070903 115.3820347  43.3844476  53.9333676 107.3150484  38.0868036
  53.5061285 107.2276833  37.3316136  53.2959729 107.4228260  38.6722881
  53.7763284 107.3183144  38.0613478  47.6240839  97.6354815  41.7538594
  48.2533957  98.1715115  41.4759665  47.7926701  97.5432174  42.6052160
  47.7418633  97.7016177  41.8387122  47.4254754 102.4226009  44.0265006
  48.2528183 102.1511158  44.0823620  47.4462600 103.2186851  44.3828824
  47.5507604 102.5005764  44.0880189  52.2630933 116.1581146  40.1607478
  53.0523311 115.8070211  40.2809559  52.4374531 116.9717535  39.8984111
  52.4051215 116.2267004  40.1395346  42.0024243 109.5689872  37.2135266
  41.1612250 109.4693746  37.4214160  42.2114251 110.3385352  37.5649587
  41.9088936 109.6681915  37.2962581  39.4799810 107.1909409  35.0420017
  39.0856508 107.2652421  34.2670127  38.9239927 107.5767355  35.5928379
  39.3402623 107.2591184  35.0087677  51.1164757 100.1690703  34.7223896
  51.3214351 100.1013011  35.5680893  50.7891181 100.9749524  34.6545073
  51.0980005 100.2776644  34.8383551  45.8140908 107.4971271  36.4632864
  45.5104046 106.9427260  37.0643272  45.1120329 107.6763481  35.9760898
  45.6657118 107.4416054  36.4802570  44.8707005 104.8071791  31.0277566
  45.1466740 104.0890704  30.6155133  45.4705675 105.4056711  30.8198672
  45.0000270 104.7892162  30.9358327  43.8759259 114.7120992  41.1704962
  43.7679614 114.7223054  42.0367020  44.0855041 115.5375772  40.9809916
  43.8909370 114.8362067  41.2709053  54.3698445 100.7222467  34.2026661
  53.7572758 101.2092870  34.5880393  54.4662620 100.0465958  34.7464313
  54.2936343 100.6940776  34.3405520  48.3717526 102.4785309  29.3024161
  48.8261272 102.6495869  30.0272005  48.8457572 101.8653419  28.9021937
  48.5085846 102.4136194  29.3497922  41.8933051 111.9633634  38.6326899
  41.3020985 112.6043133  38.6029914  42.6554075 112.3871252  38.6058199
  41.9181312 112.1209473  38.6242047  42.2893674 103.1235632  39.2994917
  42.7495156 103.1974562  40.0370041  42.3349781 103.9216886  38.9494738
  42.3644229 103.2529779  39.3567673  43.9377024 103.7902327  43.8666944
  43.5462589 103.1435674  44.3022722  44.1062887 104.3813762  44.4861199
  43.9047934 103.7816595  44.0229650  58.0123473 111.7939404  39.6304178
  58.0706597 112.2426053  40.3764154  57.3789940 112.2038217  39.1934258
  57.9274768 111.9213139  39.6756726  51.6522568 117.4142946  36.0658924
  51.4542256 117.9033761  35.3715135  51.0310279 117.6184188  36.6443057
  51.5310132 117.5159484  36.0482147  45.7130546 109.1827843  30.4069168
  46.4572591 109.5702119  30.6452118  45.8591242 108.3385268  30.5709656
  45.8441131 109.1158316  30.4663138  47.6310121 100.9778102  35.4401029
  46.7846166 101.1500910  35.3142379  47.6281254 100.1727446  35.7766858
  47.5057271 100.8839131  35.4712156  48.7008422 104.7553316  36.3063087
  48.2268376 104.2295078  36.8168398  49.0726558 104.2082789  35.7377949
  48.6858311 104.5969313  36.2978235  39.0781452 106.7524823  41.6746633
  39.9407065 106.6520532  41.5883963  38.7473235 106.1719532  41.1132205
  39.1566648 106.6516450  41.5792039  54.9645152 109.8155692  37.7169868
  54.7243375 108.9762107  37.7212294  55.4437159 109.8955859  38.4410641
  54.9997336 109.7037092  37.8244670  50.6291921 105.6489871  29.3688841
  50.1014940 105.7318615  28.6794550  51.0887630 106.3907742  29.3653486
  50.6193772 105.7710533  29.2663536  56.9650339 106.5957149  35.6699127
  56.7260109 106.5552983  34.8319912  57.1284241 107.4428301  35.7964848
  56.9540643 106.7149234  35.5652609  53.5696369 110.9807098  41.6004172
  54.2930568 110.5279625  41.4215192  53.3046332 111.2611764  40.8176500
  53.6377643 110.9558067  41.4582888  42.4383238 105.5767272  38.3357051
  41.8136308 105.5885664  37.7283004  42.1028833 106.0527447  38.9848292
  42.2968730 105.6485789  38.3413620  42.6224987 103.9192390  24.3929736
  42.2737791 104.5712116  24.8561286  42.1421432 103.9049503  23.6653608
  42.4995230 104.0135444  24.3540828  39.1508913 113.6367732  39.7760816
  38.6208838 112.9460171  39.8255790  39.4234007 113.6277917  38.9473524
  39.1133636 113.5334864  39.6608232  50.1829004 114.2193434  28.4998498
  50.9063203 114.6851547  28.3563072  49.7429595 114.2867044  27.7496095
  50.2244696 114.2977271  28.3683280  49.3515159 111.0790977  39.7499187
  48.7372152 110.5349027  40.0447823  49.8682444 110.5655213  39.2705003
  49.3370821 110.9227386  39.7223416  48.5911456 112.1495247  37.4843486
  48.1639064 111.5244965  37.0508921  48.5836401 111.8670168  38.3102493
  48.5270597 112.0148027  37.5423313  41.7073983 107.1860420  40.5531920
  41.8667470 106.4303744  40.9583642  41.5266877 107.7351359  41.2072658
  41.7039342 107.1554233  40.7094626  49.6494286  99.3521655  41.1082709
  49.1534847  99.5485329  40.4174276  50.4063348  99.7514324  40.9371511
  49.6881111  99.4399389  40.9802846  46.9197166 103.0264001  37.6986020
  46.9439653 102.4924113  37.0098800  47.1708639 102.5181310  38.3611610
  46.9607085 102.8724905  37.6950665  34.4304756 110.3095496  37.1329164
  34.3248205 110.2642340  36.2681248  33.6804976 110.6549277  37.4143449
  34.3040359 110.3536404  37.0466494  43.1998488 101.7534819  37.0791764
  43.2396860 102.2544026  37.7926472  42.3748153 101.8445213  36.8097687
  43.0838014 101.8416636  37.1442302  45.3828101 111.3195559  45.1812059
  44.5323731 111.4567274  45.3169704  45.5456229 110.5859338  45.6259760
  45.2811964 111.2309661  45.2667658  44.6212851 108.2695329  39.3765663
  43.7904781 108.4369147  39.1700911  44.5664369 107.8931280  40.1614549
  44.4902266 108.2385061  39.4614191  42.4296635 101.7604222  45.0122074
  43.0549338 101.2166355  45.2851506  41.9747115 101.2799140  44.4429864
  42.4544895 101.6093703  44.9683668  42.9948895 106.5450921  29.9055781
  43.1351856 107.0423385  30.6084422  43.4931428 105.8437215  30.0469995
  43.0889976 106.5152900  30.0307360  43.0249118 107.4118032  27.2348358
  43.6594197 108.0078457  27.1697820  43.1074728 107.1121489  28.0494228
  43.1305669 107.4558940  27.3451444  56.0031683 109.9433509  40.1034722
  56.5949524 110.5830760  40.1352920  56.4390678 109.2456546  40.3926789
  56.1550115 109.9351860  40.1515555  44.6028101 103.3432007  27.2093800
  44.9243942 102.8635090  26.5553062  44.8655044 104.1531653  27.0184611
  44.6894126 103.3921905  27.0849292  47.8325073 114.3650882  40.7292616
  47.3250164 114.9186728  41.1733246  47.5351719 114.4259171  39.9111390
  47.7129958 114.4557193  40.6741073  49.9987256 102.7304201  39.5717279
  50.4242327 102.2776728  38.9600805  49.3844249 102.1764272  39.8482066
  49.9715901 102.5818177  39.5222304  39.5302106 109.6085873  30.5037904
  40.0394335 110.2050380  30.8849209  40.0036378 109.3411846  29.8214323
  39.6745481 109.6571688  30.4592426  50.4432854 118.2814139  28.6596559
  49.7262163 118.1075001  28.1943797  51.0939591 118.0466712  28.1272045
  50.4334704 118.2209932  28.5125777  48.4381478  99.2019301  32.9807856
  47.7949796  99.0516947  33.5492994  48.0980885  98.9561646  32.2156960
  48.2926556  99.1431423  32.9510871  53.0280825 107.1578728  32.4037864
  52.3572015 107.7008430  32.2750930  53.7220575 107.6273583  32.1619559
  53.0309692 107.3076999  32.3493392  47.0767559 119.2975440  37.6349623
  46.8533213 118.5394269  38.0033649  46.5877402 119.3273461  36.9130062
  46.9711008 119.1897664  37.5826364  53.1908952 103.6134611  35.3128238
  53.5436562 103.1864334  35.9874036  52.3323754 103.5285455  35.4429314
  53.1158397 103.5379352  35.4323248  41.8892637 106.2442131  33.3711084
  41.1704626 106.6606264  33.6383948  42.2605000 106.8096370  32.8202722
  41.8384569 106.3891413  33.3293891  51.1892218 106.8769980  39.2613080
  51.1690145 106.6953275  40.1147859  51.2371419 107.7481999  39.2372664
  51.1926859 106.9786518  39.3836375  49.1338548 113.4657172  45.1861556
  49.0934403 112.8206849  44.6006712  49.9461866 113.4093789  45.4986968
  49.2481701 113.3616139  45.1458506  45.7246015 119.5175898  35.0886707
  45.3106414 118.8550028  34.6990549  46.4093390 119.6653757  34.5682402
  45.7644387 119.4416556  34.9543204  49.0911310 118.6765983  35.8410324
  48.6927593 118.7868254  35.0731144  48.4762529 118.8848049  36.4236884
  48.9410199 118.7239551  35.8141623  47.6639212 105.2840131  28.7084464
  47.0704051 105.6057127  28.1569031  47.7014489 104.4381226  28.5005570
  47.5813601 105.2064459  28.5967235  54.6233012  98.7353023  36.2412550
  54.1163877  98.0282163  36.1733728  55.4200446  98.4046212  36.3713627
  54.6660252  98.5826175  36.2511545  50.5397028 105.2419635  32.1386214
  50.3110721 105.2652337  31.2964572  50.7995104 104.4177103  32.2581224
  50.5443216 105.1235715  32.0311412  44.8216257 107.0954109  41.7411314
  44.3095160 106.4875292  42.0996345  44.6495753 107.8110701  42.2085290
  44.7205894 107.1117408  41.8627538  39.6681971 105.5391684  44.3913676
  39.4984562 106.1993059  43.8461883  39.2247921 105.7498245  45.1126165
  39.5781305 105.6677666  44.4175305  43.5941791 103.7796182  33.4340410
  44.0699157 104.1413262  32.7990591  43.0930390 104.4352649  33.7140552
  43.5907150 103.9290371  33.3817151  56.8253152 113.2517950  29.2253415
  57.2086758 114.0009306  29.4551512  56.0297266 113.4983770  28.9665404
  56.7646935 113.3987644  29.2210988  48.6985327 105.0178353  44.1813570
  49.2556757 104.7892163  43.5492035  48.3746392 105.7784019  43.9048782
  48.7331737 105.0962190  44.0470067  36.5684036 108.4438549  39.6502166
  36.0210755 107.7739195  39.7683034  37.3576414 108.0768397  39.7145633
  36.6036220 108.2903536  39.6770866  46.4168444 108.1046006  45.1465577
  47.1679771 108.4197683  45.4605131  46.6091021 107.9025177  44.3199499
  46.5559858 108.1213388  45.0708973  45.6368444 105.9237382  26.8013794
  46.0167409 105.9417011  26.0164908  44.8961040 106.3691370  26.6804641
  45.5837282 105.9919156  26.6677362  53.2653734 104.2319573  32.3889372
  53.2647961 104.0768229  33.2473649  53.0609914 105.0782560  32.3330758
  53.2353512 104.3340194  32.5077312  35.3271005 107.6559357  36.8048189
  35.1492766 107.2035966  37.5303104  35.0390027 108.4585519  36.9886666
  35.2583959 107.7081915  36.9391692  50.9894586 108.9117075  36.0425579
  51.4848252 108.1940070  36.0029599  50.1794362 108.6087872  35.9280066
  50.9438480 108.7614721  36.0199305  46.4353198 112.7614888  28.1922584
  45.6264521 112.4381561  28.1455893  46.9428107 112.0548110  28.1250832
  46.3902865 112.6096204  28.1752878  37.0643475 110.1887081  33.9169948
  36.1988995 110.1772771  33.8052719  37.1642291 110.0017304  34.7641087
  36.9517642 110.1593142  34.0258892  53.0546405 111.6620762  38.7302708
  53.4801477 111.1395184  38.1773133  52.6903325 112.2601600  38.2091331
  53.0633008 111.6730989  38.5711718  42.6900485 119.9584980  37.4900053
  43.0047044 120.7721368  37.4977835  43.0993898 119.5735198  38.1582212
  42.7968583 120.0213682  37.5904145  49.6425005 115.3755026  35.0603865
  50.1136183 116.0895289  35.2293851  49.9785183 114.7753777  35.5963735
  49.7620120 115.3926491  35.1636241  51.7301989 116.9856340  47.2395937
  51.8398955 116.1964900  47.5952685  52.0592886 116.8962276  46.4370275
  51.7954395 116.8562193  47.1738328  46.5594500 100.1482497  42.0161960
  46.6922405  99.3513490  42.3442936  46.9439652 100.6748900  42.5960236
  46.6350829 100.1082414  42.1505463  50.2798951 115.1672961  41.8231558
  49.7319897 114.5430844  41.5551623  50.7411980 115.3567233  41.1075637
  50.2666161 115.1032011  41.6781989  49.6326855  97.0712823  38.6143053
  48.8272819  96.9610553  38.9310892  49.5033590  97.1725279  37.7572919
  49.4946988  97.0696493  38.5351094  53.0892815 103.2358315  39.2082750
  52.5055804 103.7367521  38.7960318  53.4097110 102.7287871  38.5747074
  53.0505991 103.2350150  39.0541257  45.6287615 102.1498910  29.4841425
  46.4503309 102.3197223  29.2423120  45.1657265 102.3046171  28.7607723
  45.6818777 102.1980643  29.3413069  44.2182946 100.1441672  40.2639854
  44.7627359  99.8032799  40.8544196  44.2719882 101.0027134  40.4061138
  44.3072066 100.2196931  40.3721727  40.0313505 113.9058088  37.1378662
  40.6358363 113.8653922  36.5092482  39.8240818 114.7529240  37.1682718
  40.0902403 114.0246091  37.0494778  49.8457277 116.1724033  38.3540899
  50.6655651 116.0286999  38.6157194  49.5651355 116.7970232  38.8957337
  49.9254021 116.2434385  38.4728839  35.2664788 112.8892706  37.0077585
  35.1689066 112.0788977  37.3167642  36.0493657 112.8684499  36.6223853
  35.3680924 112.7659796  36.9964448  66.3170928 123.8288885  31.3183775
  66.2864932 124.6833522  31.4902045  66.9152277 123.5284178  31.8769919
  66.4008086 123.9105381  31.4258578  59.5170613 122.9164536  36.0736706
  58.6608508 123.0773034  36.1245823  59.5638266 122.0456600  36.0941767
  59.3969724 122.8115338  36.0842772  62.3622434 124.9756580  38.7168358
  62.9078394 125.6541666  38.7762327  62.3039310 124.8344041  37.8569939
  62.4338348 125.0548582  38.5980418  64.1387502 126.4041187  29.5902085
  64.0227028 127.1548873  30.0194223  64.9343389 126.1465140  29.8398172
  64.2392092 126.4776034  29.6906177  50.9751640 120.6551663  36.6273351
  50.3556672 120.0644310  36.4583366  50.8735504 121.2463098  35.9937675
  50.8689316 120.6555746  36.5078341  58.0719536 122.3951205  30.9605814
  58.7699701 122.5739332  31.4527278  58.3871868 121.8721544  30.3376204
  58.2214873 122.3444977  30.9407825  50.7020773 124.2003945  38.8716920
  50.5779470 124.7866390  39.5066739  51.3539058 123.7064141  39.1729195
  50.7794423 124.2142749  39.0102850  56.2446399 117.7643602  35.0427089
  55.9149729 118.2154745  34.3730788  55.5691401 117.6859765  35.5900095
  56.0956836 117.8194737  35.0250312  61.8616808 127.1348831  27.9016375
  61.7768103 127.9909798  28.0465944  62.3501191 126.8593155  28.5698534
  61.9205705 127.2206153  28.0218457  63.4522807 113.7529124  33.2876700
  63.1376248 114.4432603  33.7197122  62.9349749 113.6973907  32.5862200
  63.3287278 113.8464013  33.2473649  62.7935241 123.7533625  29.4014110
  62.2646713 123.9693259  30.0611416  63.3160261 124.4469764  29.3215080
  62.7923694 123.8876762  29.4869709  68.2483294 129.3279930  34.7747155
  67.4180997 129.5390574  34.9380571  68.1992546 128.5016984  34.4989438
  68.1190029 129.2369536  34.7584520  59.1412063 123.8962494  26.6790499
  59.3808067 124.1040478  25.8665842  59.4627904 123.0920003  26.7879443
  59.2249221 123.8076595  26.5751052  54.4502354 115.8255890  30.5250037
  55.2048322 116.1934207  30.2867087  54.2729888 116.1995444  31.2929216
  54.5356832 115.9354078  30.6034925  67.7437252 121.9750330  38.5697576
  66.9065673 122.0452518  38.8045171  67.7125483 121.9774825  37.6971878
  67.6155535 121.9860558  38.4757124  54.1401981 124.1183366  44.2845945
  54.3122485 124.0089261  45.1331226  54.6771339 124.7637772  44.0477137
  54.2446985 124.1975368  44.3751041  52.8059418 118.2326209  27.2228150
  52.6234991 118.4498090  26.3969143  53.6685031 118.3465222  27.2786764
  52.9064008 118.2816107  27.1082637  58.4859137 115.2352620  30.2577174
  59.2145298 115.0568575  29.8115330  58.5754030 116.0770699  30.4684352
  58.6065799 115.3336498  30.2230691  62.4667438 126.1706007  34.1609468
  63.2224953 126.6037521  34.1998376  62.5729763 125.5210777  34.7344104
  62.5937609 126.1383491  34.2507493  65.4245092 117.0393112  37.1541298
  66.0671001 117.1091217  37.7403214  65.6768113 116.3722335  36.6520840
  65.5567224 116.9519461  37.1668578  52.3521445 121.5100382  25.7350623
  51.6379622 121.2238561  26.1473055  52.8365414 121.8497007  26.3757010
  52.3180809 121.5182031  25.8906258  53.1962305 120.2493675  41.7665872
  52.5034101 119.7790655  42.0126604  53.8122632 120.0231980  42.3407580
  53.1846835 120.1460807  41.8875025  68.6391955 126.7160204  33.8031508
  69.3008389 126.1550873  33.7027416  67.9983367 126.2212235  34.1284199
  68.6420823 126.5596613  33.8363848  64.9256786 127.7325587  33.5443497
  65.1612375 127.8770785  32.7170347  65.0746350 128.4967995  33.9375010
  64.9822589 127.8664641  33.4807100  51.9202864 124.2159079  42.9092718
  52.6442836 124.2012110  43.3957612  52.0219000 124.9254435  42.4114686
  52.0421073 124.3183783  42.9071504  66.7547243 126.5727252  31.3813100
  67.0855460 127.1054893  30.7753195  67.3280331 126.6266140  32.0375051
  66.8880922 126.6596821  31.3890882  61.9679132 124.4192155  32.0636680
  62.0625986 125.1581449  32.5176306  61.3437975 123.9909631  32.4971245
  61.8888162 124.4653476  32.1944828  60.2231606 127.5978368  42.7126961
  60.7970467 126.9605612  42.8675525  60.1446410 127.5982450  41.8436619
  60.2964841 127.5043479  42.6073372  48.8228022 124.3767577  36.5509676
  49.4001525 124.2404028  37.1901921  48.1242084 123.9203361  36.8055260
  48.8049044 124.2889843  36.6831965  62.2202153 126.2640895  25.2973632
  62.1382316 126.3343082  26.1628619  62.8581874 126.8270639  25.1057373
  62.3021991 126.3579866  25.3963582  55.5795324 126.0301633  34.7648159
  55.3214569 125.1973368  34.7379458  55.6343807 126.2559246  33.9240659
  55.5495102 125.9399404  34.6368296  60.6596375 118.1330084  34.8652251
  59.9552701 117.6439269  35.0236171  60.7081349 118.1452558  33.9940696
  60.5626426 118.0619732  34.7591591  54.5530037 123.5839395  35.2513054
  53.9779628 123.7431564  35.8877014  54.1765713 122.9474805  34.7881504
  54.4132849 123.5137208  35.2767612  58.2203325 122.0562745  40.1105432
  57.8317758 121.6316962  39.4557623  57.5558024 122.3044894  40.6182459
  58.0650253 122.0301466  40.0893300  67.8626594 121.8137749  32.8853262
  67.6063159 121.0017691  32.6951145  68.7055908 121.8215317  32.6583449
  67.9492620 121.6949747  32.8238079  62.0429687 115.7537373  37.6229416
  62.4240198 115.0715545  38.0097290  61.2392971 115.4646976  37.4405081
  61.9806148 115.6104422  37.6533472  59.3242263 126.2861349  28.3082239
  60.1382902 126.5776242  28.1965010  59.2601405 125.6321212  27.7340532
  59.4345002 126.2326544  28.2071076  65.5451754 128.9687345  42.7211815
  65.3090391 128.1375410  42.6023875  66.1894983 128.9172953  43.3066659
  65.6046424 128.8385033  42.7897708  55.8352987 124.9785157  27.7729440
  56.2198139 124.7592863  28.5245986  55.5864607 125.8048102  27.9030517
  55.8555059 125.0683303  27.9030517  56.0021527 118.2591572  47.4892025
  55.6874968 119.0291134  47.2261587  55.6811460 117.6961828  46.9044252
  55.9080446 118.2901840  47.3633375  66.5688174 128.7531794  38.7840109
  66.2633991 129.4859851  39.1453425  65.8494390 128.3469724  38.5032895
  66.4175517 128.8013527  38.7953246  72.2689966 125.3924795  38.1108453
  72.2014467 125.4120754  37.2411040  72.2545629 126.2355122  38.3364124
  72.2568723 125.5198530  38.0160930  53.5553424 116.6482093  33.1038221
  52.6875850 116.7204693  33.1695830  53.8428628 117.4504172  33.2926196
  53.4693172 116.7776240  33.1412988  62.6786313 116.7959953  41.4349543
  63.4239905 116.6069763  41.0212968  62.2623617 117.3218191  40.8763399
  62.7271287 116.8462098  41.2914116  70.0548584 124.1669181  36.3855048
  70.6056505 123.5337250  36.6252140  70.0392699 124.6984574  37.0770552
  70.1333780 124.1518129  36.5233906  63.7576990 122.4065515  35.4959644
  63.4141756 121.6855850  35.8466894  63.8570032 122.1979366  34.6538002
  63.7219033 122.2689718  35.4231324  64.2190019 128.8691219  31.0383632
  64.7848052 129.5284429  30.9542175  63.5717922 129.2140917  31.5100034
  64.2068775 129.0173160  31.0956389  55.6338033 120.8588823  46.2277239
  54.8237808 121.1646602  46.1167082  56.1112719 121.5794405  46.3429823
  55.5841511 121.0103424  46.2284311  51.4820776 120.1240352  30.5455097
  51.1945572 119.7541623  29.8087045  52.1691244 120.5935208  30.2838802
  51.5409673 120.1387322  30.3970173  54.3174448 123.9893301  31.9922502
  55.0397100 124.1534459  31.5326308  53.8382441 124.7102966  31.8861842
  54.3538178 124.1191530  31.9088116  62.2767955 120.3257099  37.3719187
  61.4379056 120.3518378  37.1357450  62.3472323 120.9727835  37.9524533
  62.1636349 120.4253225  37.4228304  60.7237234 117.2242477  32.1046803
  61.4263586 117.0250225  31.6266761  60.4581422 116.4518419  32.4115646
  60.7883866 117.0805443  32.0792244  66.1525479 125.5325086  34.6580429
  66.0659454 125.6880512  35.5115207  65.6975959 126.1763162  34.2839834
  66.0728736 125.6500841  34.7287535  49.0548971 120.9021565  31.3940378
  49.1565107 121.7047726  31.7221354  49.8504858 120.7008901  31.0963459
  49.1876876 120.9907464  31.3975734  55.4865790 118.4877762  41.1577683
  55.2948987 118.5032896  42.0077107  56.3364386 118.6841436  41.1344338
  55.5841512 118.5192113  41.2800978  49.8712703 121.0168743  39.1361500
  49.7298195 120.1652684  39.2606008  50.1553266 121.0597404  38.3123706
  49.8920549 120.8968493  39.0329124  60.0251295 122.8535833  33.2805988
  59.7786010 122.7731584  34.1142777  60.3536418 122.0689301  33.0868516
  60.0372539 122.7262099  33.3753511  62.2577429 125.8615568  43.3215151
  62.2525468 124.9895385  43.3257578  62.9638423 126.0603737  42.8484607
  62.3622433 125.7619442  43.2522186  55.9848323 125.5892552  42.6928971
  56.1291698 126.1693760  42.0572081  56.3323971 125.9668849  43.3978826
  56.0575784 125.7313256  42.7027966  58.1568240 124.7882720  40.4754103
  57.4091554 124.9813735  40.0702381  58.3109765 123.9627940  40.2378224
  58.0690667 124.6947832  40.3799509  65.4152717 128.9197446  27.8309269
  65.0359526 128.1334584  27.8238558  64.7518962 129.4684303  27.6880913
  65.2611192 128.8842270  27.8090065  58.3970017 118.6833271  41.3649507
  58.8542631 119.4157245  41.4922299  58.4726346 118.2599736  42.1236762
  58.4760987 118.7290509  41.4950583  50.6403008 118.9299091  42.4538950
  50.1045198 118.3179449  42.7699717  50.7020773 119.5047227  43.1072617
  50.5698641 118.9246019  42.5974377  62.8697343 111.8623146  35.2343349
  62.9880911 112.3199610  34.5010652  62.6959519 111.0568407  34.9479567
  62.8616514 111.8116918  35.0844283  56.2752395 120.6735375  38.2091331
  55.4848470 120.4926835  38.5308666  56.6713018 119.8962328  38.1921625
  56.2169271 120.5322836  38.2543879  61.6596081 128.3077805  35.9350776
  60.9841083 128.0763037  36.4364163  61.6688457 127.6998988  35.3092881
  61.5614586 128.1836730  35.9166929  58.7890225 123.1495634  42.6914829
  58.7249366 124.0105591  42.5634966  58.9287413 122.8327627  41.8910381
  58.8005695 123.2295801  42.5543042  57.4709319 125.8427773  36.8331032
  57.0471568 126.0432272  36.0970051  57.2954174 124.9956621  36.9455332
  57.3820200 125.7476555  36.7404722  59.2970909 125.7137708  31.1352368
  59.8386454 125.2108090  31.5990989  59.6117468 125.6602903  30.3241853
  59.4235306 125.6317129  31.0836180  60.4460178 120.6074013  41.1874669
  60.6602148 119.9684927  40.6338023  59.8294077 121.0519837  40.7582530
  60.3865507 120.5784157  41.0425100  49.3326025 123.5214775  32.5819772
  49.7124990 123.9399320  31.9180039  48.7581390 124.1028231  32.8888615
  49.3037350 123.6692634  32.5296513  62.6099266 122.2163078  42.1257976
  61.7975948 121.9088969  42.2071148  63.0689201 121.7362078  42.6900688
  62.5579651 122.0999571  42.2212570  59.8374907 113.7173949  36.1762011
  58.9668465 113.6912670  36.1295321  60.0915248 113.5451141  35.3587857
  59.7468467 113.6884092  36.0482148  56.8092886 125.7741916  25.1135154
  57.0985411 126.5506798  25.3878729  56.8964685 125.2630647  25.8149654
  56.8647142 125.8133834  25.2577652  59.7052773 123.6223150  46.9086678
  60.1752405 124.2465266  47.2954552  59.7514654 122.9540125  47.4679893
  59.7820649 123.6157830  47.0486749  56.8624047 115.7280177  37.6335482
  56.3462536 115.0360369  37.7587061  56.3017976 116.3950954  37.5798080
  56.7030560 115.7243435  37.6441548  58.9316281 116.2673137  39.4628334
  58.5448034 116.2922169  40.2441864  58.4449218 115.7014816  39.0102851
  58.8028789 116.1868888  39.5116238  64.9066260 122.8335792  38.0868036
  64.4793868 122.7462141  37.3316136  64.2692313 122.9413568  38.6722881
  64.7495867 122.8368452  38.0613478  58.5973422 113.1540123  41.7538594
  59.2266540 113.6900423  41.4759665  58.7659285 113.0617482  42.6052160
  58.7151217 113.2201485  41.8387122  58.3987337 117.9411317  44.0265006
  59.2260767 117.6696466  44.0823620  58.4195183 118.7372159  44.3828824
  58.5240187 118.0191072  44.0880189  52.9756827 125.0875180  37.2135266
  52.1344834 124.9879054  37.4214160  53.1846835 125.8570660  37.5649587
  52.8821520 125.1867223  37.2962581  50.4532394 122.7094717  35.0420017
  50.0589092 122.7837729  34.2670127  49.8972511 123.0952663  35.5928379
  50.3135206 122.7776492  35.0087677  62.0897341 115.6876011  34.7223896
  62.2946934 115.6198319  35.5680893  61.7623765 116.4934832  34.6545073
  62.0712589 115.7961951  34.8383551  56.7873492 123.0156579  36.4632864
  56.4836629 122.4612568  37.0643272  56.0852913 123.1948789  35.9760898
  56.6389702 122.9601362  36.4802570  55.8439589 120.3257099  31.0277566
  56.1199323 119.6076012  30.6155133  56.4438258 120.9242019  30.8198672
  55.9732854 120.3077470  30.9358327  65.3431028 116.2407775  34.2026661
  64.7305342 116.7278177  34.5880393  65.4395203 115.5651266  34.7464313
  65.2668926 116.2126084  34.3405520  59.3450109 117.9970616  29.3024161
  59.7993856 118.1681177  30.0272005  59.8190155 117.3838727  28.9021937
  59.4818430 117.9321502  29.3497922  53.2626258 118.6420940  39.2994917
  53.7227739 118.7159870  40.0370041  53.3082364 119.4402194  38.9494738
  53.3376813 118.7715087  39.3567673  54.9109607 119.3087635  43.8666944
  54.5195173 118.6620982  44.3022722  55.0795470 119.8999070  44.4861199
  54.8780518 119.3001903  44.0229650  68.9856056 127.3124712  39.6304178
  69.0439180 127.7611361  40.3764154  68.3522524 127.7223525  39.1934258
  68.9007352 127.4398447  39.6756726  56.6863129 124.7013151  30.4069168
  57.4305174 125.0887427  30.6452118  56.8323826 123.8570576  30.5709656
  56.8173715 124.6343624  30.4663138  58.6042705 116.4963410  35.4401029
  57.7578750 116.6686217  35.3142379  58.6013837 115.6912753  35.7766858
  58.4789855 116.4024439  35.4712156  59.6741005 120.2738624  36.3063087
  59.2000960 119.7480386  36.8168398  60.0459141 119.7268097  35.7377949
  59.6590894 120.1154621  36.2978235  50.0514035 122.2710131  41.6746633
  50.9139648 122.1705840  41.5883963  49.7205818 121.6904840  41.1132205
  50.1299232 122.1701758  41.5792039  65.9377736 125.3341000  37.7169868
  65.6975959 124.4947415  37.7212294  66.4169743 125.4141166  38.4410641
  65.9729920 125.2222399  37.8244670  61.6024505 121.1675179  29.3688841
  61.0747524 121.2503923  28.6794550  62.0620213 121.9093050  29.3653486
  61.5926355 121.2895841  29.2663536  67.9382923 122.1142457  35.6699127
  67.6992693 122.0738291  34.8319912  68.1016824 122.9613609  35.7964848
  67.9273226 122.2334542  35.5652609  64.5428953 126.4992406  41.6004172
  65.2663152 126.0464933  41.4215192  64.2778915 126.7797072  40.8176500
  64.6110226 126.4743375  41.4582888  53.4115821 121.0952580  38.3357051
  52.7868892 121.1070972  37.7283004  53.0761416 121.5712755  38.9848292
  53.2701313 121.1671097  38.3413620  53.5957570 119.4377698  24.3929736
  53.2470374 120.0897424  24.8561286  53.1154016 119.4234811  23.6653608
  53.4727814 119.5320752  24.3540828  60.3247743 126.5976285  39.7499187
  59.7104736 126.0534335  40.0447823  60.8415027 126.0840521  39.2705003
  60.3103405 126.4412694  39.7223416  59.5644040 127.6680555  37.4843486
  59.1371648 127.0430273  37.0508921  59.5568984 127.3855476  38.3102493
  59.5003181 127.5333335  37.5423313  52.6806567 122.7045728  40.5531920
  52.8400054 121.9489052  40.9583642  52.4999460 123.2536667  41.2072658
  52.6771926 122.6739541  40.7094626  60.6226870 114.8706963  41.1082709
  60.1267431 115.0670637  40.4174276  61.3795932 115.2699631  40.9371511
  60.6613694 114.9584697  40.9802846  57.8929749 118.5449309  37.6986020
  57.9172237 118.0109421  37.0098800  58.1441223 118.0366618  38.3611610
  57.9339668 118.3910213  37.6950665  54.1731072 117.2720127  37.0791764
  54.2129443 117.7729334  37.7926472  53.3480736 117.3630521  36.8097687
  54.0570598 117.3601944  37.1442302  55.5945435 123.7880637  39.3765663
  54.7637365 123.9554455  39.1700911  55.5396952 123.4116588  40.1614549
  55.4634850 123.7570368  39.4614191  53.4029218 117.2789530  45.0122074
  54.0281922 116.7351663  45.2851506  52.9479698 116.7984448  44.4429864
  53.4277479 117.1279011  44.9683668  53.9681479 122.0636229  29.9055781
  54.1084440 122.5608693  30.6084422  54.4664012 121.3622523  30.0469995
  54.0622560 122.0338207  30.0307360  53.9981701 122.9303340  27.2348358
  54.6326781 123.5263765  27.1697820  54.0807312 122.6306797  28.0494228
  54.1038252 122.9744248  27.3451444  66.9764267 125.4618817  40.1034722
  67.5682107 126.1016068  40.1352920  67.4123262 124.7641854  40.3926789
  67.1282698 125.4537167  40.1515555  55.5760684 118.8617315  27.2093800
  55.8976525 118.3820398  26.5553062  55.8387628 119.6716961  27.0184611
  55.6626710 118.9107213  27.0849292  60.9719839 118.2489509  39.5717279
  61.3974911 117.7962036  38.9600805  60.3576832 117.6949580  39.8482066
  60.9448484 118.1003485  39.5222304  59.4114062 114.7204609  32.9807856
  58.7682380 114.5702255  33.5492994  59.0713469 114.4746954  32.2156960
  59.2659139 114.6616731  32.9510871  64.0013408 122.6764036  32.4037864
  63.3304598 123.2193738  32.2750930  64.6953159 123.1458891  32.1619559
  64.0042276 122.8262307  32.3493392  64.1641536 119.1319919  35.3128238
  64.5169146 118.7049642  35.9874036  63.3056337 119.0470763  35.4429314
  64.0890981 119.0564660  35.4323248  52.8625221 121.7627439  33.3711084
  52.1437210 122.1791572  33.6383948  53.2337583 122.3281678  32.8202722
  52.8117153 121.9076720  33.3293891  62.1624802 122.3955288  39.2613080
  62.1422729 122.2138583  40.1147859  62.2104002 123.2667306  39.2372664
  62.1659443 122.4971826  39.3836375  58.6371795 120.8025439  28.7084464
  58.0436635 121.1242435  28.1569031  58.6747073 119.9566534  28.5005570
  58.5546184 120.7249767  28.5967235  65.5965596 114.2538331  36.2412550
  65.0896461 113.5467471  36.1733728  66.3933030 113.9231520  36.3713627
  65.6392835 114.1011483  36.2511545  61.5129612 120.7604943  32.1386214
  61.2843305 120.7837645  31.2964572  61.7727688 119.9362410  32.2581224
  61.5175800 120.6421023  32.0311412  55.7948840 122.6139416  41.7411314
  55.2827743 122.0060599  42.0996345  55.6228336 123.3296009  42.2085290
  55.6938477 122.6302716  41.8627538  50.6414555 121.0576992  44.3913676
  50.4717145 121.7178367  43.8461883  50.1980505 121.2683553  45.1126165
  50.5513889 121.1862974  44.4175305  54.5674374 119.2981490  33.4340410
  55.0431741 119.6598570  32.7990591  54.0662974 119.9537957  33.7140552
  54.5639733 119.4475678  33.3817151  67.7985736 128.7703258  29.2253415
  68.1819342 129.5194614  29.4551512  67.0029849 129.0169077  28.9665404
  67.7379518 128.9172952  29.2210988  59.6717911 120.5363661  44.1813570
  60.2289341 120.3077471  43.5492035  59.3478976 121.2969327  43.9048782
  59.7064321 120.6147498  44.0470067  47.5416619 123.9623857  39.6502166
  46.9943339 123.2924503  39.7683034  48.3308998 123.5953705  39.7145633
  47.5768803 123.8088844  39.6770866  57.3901028 123.6231314  45.1465577
  58.1412355 123.9382991  45.4605131  57.5823604 123.4210485  44.3199499
  57.5292442 123.6398696  45.0708973  56.6101027 121.4422690  26.8013794
  56.9899992 121.4602319  26.0164908  55.8693624 121.8876678  26.6804641
  56.5569865 121.5104464  26.6677362  64.2386318 119.7504881  32.3889372
  64.2380544 119.5953537  33.2473649  64.0342498 120.5967868  32.3330758
  64.2086096 119.8525501  32.5077312  61.9627170 124.4302383  36.0425579
  62.4580835 123.7125378  36.0029599  61.1526946 124.1273180  35.9280066
  61.9171063 124.2800029  36.0199305  64.0278989 127.1806070  38.7302708
  64.4534060 126.6580492  38.1773133  63.6635909 127.7786907  38.2091331
  64.0365591 127.1916297  38.5711718  57.5327083 115.6667805  42.0161960
  57.6654989 114.8698798  42.3442936  57.9172236 116.1934208  42.5960236
  57.6083412 115.6267722  42.1505463  60.6059438 112.5898131  38.6143053
  59.8005402 112.4795861  38.9310892  60.4766174 112.6910587  37.7572919
  60.4679571 112.5881801  38.5351094  64.0625399 118.7543623  39.2082750
  63.4788388 119.2552829  38.7960318  64.3829693 118.2473179  38.5747074
  64.0238574 118.7535458  39.0541257  56.6020198 117.6684218  29.4841425
  57.4235893 117.8382531  29.2423120  56.1389849 117.8231479  28.7607723
  56.6551360 117.7165951  29.3413069  55.1915530 115.6626980  40.2639854
  55.7359943 115.3218107  40.8544196  55.2452466 116.5212441  40.4061138
  55.2804649 115.7382239  40.3721727  74.4255391 129.2714432  33.2876700
  74.1108832 129.9617911  33.7197122  73.9082332 129.2159215  32.5862200
  74.3019861 129.3649321  33.2473649  69.4591721 130.7537928  30.2577174
  70.1877881 130.5753883  29.8115330  69.5486614 131.5956007  30.4684352
  69.5798383 130.8521806  30.2230691  76.3977676 132.5578420  37.1541298
  77.0403584 132.6276525  37.7403214  76.6500696 131.8907643  36.6520840
  76.5299808 132.4704769  37.1668578  73.0162270 131.2722681  37.6229416
  73.3972782 130.5900852  38.0097290  72.2125555 130.9832283  37.4405081
  72.9538732 131.1289730  37.6533472  73.6518896 132.3145260  41.4349543
  74.3972488 132.1255071  41.0212968  73.2356201 132.8403498  40.8763399
  73.7003871 132.3647406  41.2914116  73.8429926 127.3808454  35.2343349
  73.9613495 127.8384917  34.5010652  73.6692102 126.5753715  34.9479567
  73.8349097 127.3302226  35.0844283  70.8107490 129.2359257  36.1762011
  69.9401048 129.2097978  36.1295321  71.0647831 129.0636449  35.3587857
  70.7201050 129.2069400  36.0482148  69.5706006 128.6725431  41.7538594
  70.1999124 129.2085731  41.4759665  69.7391869 128.5802789  42.6052160
  69.6883800 128.7386793  41.8387122  73.0629924 131.2061319  34.7223896
  73.2679518 131.1383627  35.5680893  72.7356348 132.0120140  34.6545073
  73.0445172 131.3147259  34.8383551  76.3163612 131.7593083  34.2026661
  75.7037926 132.2463485  34.5880393  76.4127787 131.0836574  34.7464313
  76.2401510 131.7311392  34.3405520  71.5959453 130.3892271  41.1082709
  71.1000015 130.5855945  40.4174276  72.3528515 130.7884939  40.9371511
  71.6346278 130.4770005  40.9802846  70.3846646 130.2389917  32.9807856
  69.7414963 130.0887563  33.5492994  70.0446052 129.9932262  32.2156960
  70.2391723 130.1802039  32.9510871  76.5698180 129.7723639  36.2412550
  76.0629044 129.0652779  36.1733728  77.3665613 129.4416828  36.3713627
  76.6125419 129.6196790  36.2511545  71.5792022 128.1083439  38.6143053
  70.7737986 127.9981169  38.9310892  71.4498758 128.2095895  37.7572919
  71.4412155 128.1067109  38.5351094   7.6552235  28.5302653  32.6137209
   8.3619002  28.0354684  32.7424143   7.8440171  28.9711735  31.8839867
   7.7880141  28.5221003  32.5246254   4.7944530  31.9530190  30.5051284
   4.8827875  31.7656330  31.3529494   5.2234242  31.3067619  30.1056131
   4.8706632  31.8293197  30.5723036   2.3614989  31.2361350  29.4868946
   1.7985824  30.8233959  30.0108608   3.1236013  31.1614255  29.9062090
   2.3909438  31.1638750  29.6261947   4.9064589  31.3839209  33.1695068
   5.6905005  31.4970056  33.5350810   4.7061183  30.5580346  33.3653754
   4.9930614  31.2785928  33.2529454   4.1235719  27.0409756  34.7081711
   3.3308700  27.3553267  34.8934331   4.2384646  27.2561224  33.8702496
   4.0231130  27.1193592  34.6120046  10.3739660  28.3138937  29.6551861
  10.1378297  27.4827002  29.5363922  11.0182889  28.2624544  30.2406706
  10.4334330  28.1836625  29.7237755   7.9975922  29.2691947  35.1819327
   8.8110787  28.9977096  35.3424460   7.8370888  28.9699487  34.3779523
   8.0945871  29.1846873  35.0864733   4.5340680  22.9674741  33.8426725
   5.0040311  23.5916858  34.2294599   4.5802560  22.2991717  34.4019939
   4.6108555  22.9609421  33.9826796   8.0097166  30.3298238  30.4542168
   8.6476887  29.8358433  30.1204624   7.3671258  30.2575638  29.8694395
   8.0091393  30.2457246  30.3184523   4.9359038  28.3294071  32.1201603
   4.8954892  27.6843748  31.5346759   5.7482356  28.2730689  32.4327015
   5.0502191  28.2253038  32.0798552   7.5322479  31.8493239  34.1735984
   7.6419444  31.0601800  34.5292731   7.8613376  31.7599175  33.3710322
   7.5974885  31.7199092  34.1078375  22.1191417  38.6925784  18.2523822
  22.0885422  39.5470421  18.4242092  22.7172766  38.3921077  18.8109966
  22.2028575  38.7742281  18.3598625  15.3191102  37.7801435  23.0076753
  14.4628998  37.9409934  23.0585870  15.3658756  36.9093499  23.0281814
  15.1990214  37.6752237  23.0182819   9.7032242  47.3164153  18.7713984
   8.9515141  46.9379692  18.5430029  10.1518254  47.3482587  18.0232795
   9.6581909  47.2649760  18.6271486  18.6284819  44.0487961  32.6137209
  19.3351586  43.5539992  32.7424143  18.8172754  44.4897043  31.8839867
  18.7612724  44.0406311  32.5246254  14.6961493  49.6903791  20.1410643
  15.0800872  50.2590690  19.6015418  14.6320634  48.9653302  19.6616459
  14.7434920  49.6679255  19.9904506  18.1642923  39.8393479  25.6508404
  18.7098883  40.5178566  25.7102374  18.1059800  39.6980940  24.7909986
  18.2358838  39.9185481  25.5320465  11.2816998  47.3282545  21.0376757
  11.3827361  46.5182899  21.3473885  10.6858743  47.2339492  20.4076435
  11.2089537  47.1947574  20.9902995  19.9407992  41.2678086  16.5242132
  19.8247518  42.0185772  16.9534270  20.7363879  41.0102040  16.7738219
  20.0412581  41.3412933  16.6246224  11.1217738  52.2460135  22.4391613
  11.7655193  52.6873299  22.8287771  11.4473993  51.4413561  22.3521872
  11.2649566  52.1925329  22.4837090  11.8238317  45.2572109  17.8111475
  12.1454159  45.7977317  17.2072783  12.4710414  44.6868881  17.9433764
  11.9664373  45.2531285  17.7418510   6.5041263  39.0640844  25.8056967
   6.3799960  39.6503290  26.4406786   7.1559547  38.5701040  26.1069242
   6.5814912  39.0779649  25.9442896  11.5299604  42.2402561  25.0844478
  12.1748606  41.7475004  24.7655427  11.7701381  42.3827348  25.9110557
  11.6610189  42.1880003  25.1594011  14.0685695  45.0857467  24.7351371
  14.3508938  44.2908873  24.5138127  14.7971856  45.5638055  24.7556432
  14.2175259  45.0392064  24.7054386  24.0503784  44.1916829  21.7087202
  23.2201487  44.4027473  21.8720618  24.0013036  43.3653884  21.4329485
  23.9210519  44.1006436  21.6924567   6.0399367  48.2288503  21.9385297
   5.5566945  48.9538992  21.9144880   6.8522685  48.5264633  22.0495454
   6.0890115  48.3790856  21.9512576  12.1113521  47.0220683  24.5435111
  11.5940463  46.6628098  23.9396419  12.8087912  46.4982858  24.5541177
  12.1379102  46.8918371  24.4565370  15.7677113  47.4715498  30.5051284
  15.8560459  47.2841638  31.3529494  16.1966826  46.8252927  30.1056131
  15.8439215  47.3478505  30.5723036  13.3347573  46.7546658  29.4868946
  12.7718408  46.3419267  30.0108608  14.0968596  46.6799563  29.9062090
  13.3642022  46.6824058  29.6261947   8.8943564  48.7444679  22.0905576
   9.5964144  48.2296668  22.1478333   8.8141047  49.0718830  22.8952452
   8.9867325  48.7158905  22.2178369  23.5457742  36.8387230  25.5037623
  22.7086163  36.9089417  25.7385217  23.5145973  36.8411725  24.6311925
  23.4176024  36.8497457  25.4097171   9.9422471  38.9820266  31.2185992
  10.1142975  38.8726160  32.0671273  10.4791828  39.6274671  30.9817184
  10.0467475  39.0612267  31.3091088   8.2194340  44.9351031  21.5991184
   9.0583239  45.1673963  21.6464946   8.2506109  44.0655342  21.5298220
   8.3476057  44.8407977  21.5955829   8.8447043  45.3551906  25.9004490
   9.3845268  45.2123037  26.5707862   8.1616989  45.7548657  26.2688516
   8.8239197  45.3931577  26.0538912  18.2687928  41.0342906  21.0949514
  19.0245443  41.4674421  21.1338423  18.3750252  40.3847676  21.6684150
  18.3958098  41.0020390  21.1847540  21.3068099  44.8616184  21.8451917
  20.8703331  44.8652926  22.6010889  20.9731014  45.5421683  21.4131495
  21.1930719  44.9628640  21.8932750  15.8797172  46.9024517  33.1695068
  16.6637589  47.0155364  33.5350810  15.6793767  46.0765654  33.3653754
  15.9663198  46.7971236  33.2529454   4.2484188  41.5752197  26.0538912
   3.9822603  40.7591313  26.2129902   4.2622752  41.6205352  25.1834427
   4.2108910  41.4609101  25.9492394  21.2265582  31.9030012  24.0881345
  21.8691490  31.9728116  24.6743261  21.4788602  31.2359234  23.5860887
  21.3587714  31.8156360  24.1008625   8.9982794  35.1130575  28.7005919
   8.3054591  34.6427555  28.9466651   9.6143122  34.8868879  29.2747626
   8.9867324  35.0097707  28.8215072  16.0367566  48.8134619  26.8161523
  15.2382812  48.5734119  27.0735392  16.4853577  48.8649012  27.5628571
  15.9842177  48.7857010  26.9646448  24.4412445  41.5797104  20.7371555
  25.1028879  41.0187772  20.6367463  23.8003857  41.0849134  21.0624246
  24.4441313  41.4233513  20.7703895   4.6577602  42.3610976  23.3350656
   4.4753175  42.3357862  22.4822948   5.3927270  42.8309914  23.3739565
   4.7391665  42.4272338  23.2148574  20.7277276  42.5962486  20.4783543
  20.9632865  42.7407685  19.6510394  20.8766839  43.3604894  20.8715057
  20.7843079  42.7301540  20.4147147   7.7223353  39.0795979  29.8432764
   8.4463326  39.0649010  30.3297659   7.8239490  39.7891334  29.3454733
   7.8441562  39.1820682  29.8411551  22.5567732  41.4364152  18.3153147
  22.8875950  41.9691792  17.7093242  23.1300821  41.4903040  18.9715098
  22.6901412  41.5233721  18.3230929  15.0968303  42.5595064  34.7081711
  14.3041283  42.8738575  34.8934331  15.2117230  42.7746532  33.8702496
  14.9963713  42.6378900  34.6120046  17.7699622  39.2829055  18.9976727
  17.8646476  40.0218349  19.4516353  17.1458465  38.8546530  19.4311292
  17.6908652  39.3290375  19.1284875  16.0252095  42.4615267  29.6467008
  16.5990957  41.8242511  29.8015572  15.9466899  42.4619350  28.7776666
  16.0985330  42.3680379  29.5413419  11.3815814  40.8938532  21.6988206
  11.1235058  40.0610267  21.6719505  11.4364297  41.1196145  20.8580706
  11.3515592  40.8036304  21.5708342  14.0223815  36.9199644  27.0445479
  13.6338248  36.4953862  26.3897670  13.3578513  37.1681794  27.5522505
  13.8670743  36.8938365  27.0233347  23.6647084  36.6774649  19.8193309
  23.4083649  35.8654590  19.6291192  24.5076398  36.6852216  19.5923496
  23.7513109  36.5586646  19.7578126  17.8450176  30.6174273  24.5569463
  18.2260688  29.9352444  24.9437337  17.0413461  30.3283875  24.3745127
  17.7826638  30.4741321  24.5873519  21.3472243  43.8324245  29.6551861
  21.1110881  43.0012310  29.5363922  21.9915472  43.7809852  30.2406706
  21.4066914  43.7021933  29.7237755  10.9970661  44.6219766  20.3694598
  11.6344608  44.3831514  20.9146391  11.4225733  44.8256925  19.6347758
  11.1546828  44.6170776  20.3411755   5.6883304  46.8608103  24.2528902
   5.7287449  47.1322954  23.4248681   6.2477828  47.3850011  24.6686690
   5.7766650  46.9783858  24.1920790  11.8042017  33.1228471  34.4232071
  11.4895458  33.8928034  34.1601634  11.4831949  32.5598727  33.8384298
  11.7100936  33.1538740  34.2973421  22.3708664  43.6168694  25.7180156
  22.0654481  44.3496750  26.0793471  21.6514880  43.2106623  25.4372942
  22.2196006  43.6650427  25.7293293  13.3792133  45.0992189  22.0488384
  13.4531142  44.9367361  22.9030234  14.1961640  45.2882378  21.8048866
  13.5108492  45.1028931  22.1386410  28.0710456  40.2561694  25.0448500
  28.0034956  40.2757653  24.1751087  28.0566118  41.0992022  25.2704171
  28.0589212  40.3835429  24.9500977  18.4806802  31.6596852  28.3689590
  19.2260395  31.4706662  27.9553015  18.0644107  32.1855090  27.8103446
  18.5291777  31.7098997  28.2254163  11.9196719  48.0626932  16.7801857
  12.2095017  47.6715913  16.0561084  12.6500200  48.2443637  17.2207133
  12.0703603  48.0320746  16.7384664  25.8569073  39.0306081  23.3195095
  26.4076995  38.3974150  23.5592187  25.8413189  39.5621473  24.0110599
  25.9354270  39.0155029  23.4573953  12.5091464  42.8644678  27.8654988
  12.0103158  43.5760446  27.9439876  13.3191688  43.1845344  27.8273150
  12.5547571  43.0171526  27.8711557   9.8602635  50.0394314  19.8462007
   9.6402930  49.7491669  20.6388674   9.6397157  49.3809269  19.3179920
   9.7950229  49.8994023  19.8850916   8.7719582  42.1267631  22.1117709
   8.4832830  41.5005102  22.6463436   9.6402930  42.0687918  22.1782389
   8.8579834  42.0255175  22.2008663  19.5597480  37.2702414  22.4299691
  19.2162245  36.5492749  22.7806940  19.6590522  37.0616265  21.5878049
  19.5239522  37.1326617  22.3571371  12.0270590  51.4123704  18.6292700
  12.6794648  50.8800147  18.8583726  11.3296199  51.0592357  19.0160574
  12.0201308  51.2813227  18.7204867  20.0210509  43.7328118  17.9723679
  20.5868541  44.3921328  17.8882222  19.3738412  44.0777816  18.4440081
  20.0089265  43.8810060  18.0296435  11.4358522  35.7225722  33.1617286
  10.6258298  36.0283502  33.0507129  11.9133209  36.4431305  33.2769870
  11.3862001  35.8740323  33.1624357  10.2950082  44.9371443  23.4100189
   9.7730835  45.0771735  24.0952054  10.6824102  44.1782107  23.6002307
  10.2753783  44.8456967  23.5401266  16.4917087  46.6766902  17.3960758
  16.2503763  45.9434763  16.9887823  16.6718420  47.2253759  16.7427091
  16.4824711  46.6489294  17.2390981  18.0788445  35.1893999  24.3059234
  17.2399546  35.2155278  24.0697497  18.1492812  35.8364734  24.8864580
  17.9656838  35.2890125  24.3568351   7.7702554  41.2588273  28.0316689
   8.2823651  41.5372526  27.3825448   7.4838897  41.9977567  28.3979502
   7.8037417  41.4090626  27.9906567  21.9545969  40.3961986  21.5920475
  21.8679943  40.5517412  22.4455254  21.4996449  41.0400061  21.2179880
  21.8749225  40.5137741  21.6627582  11.2886279  33.3514661  28.0917730
  11.0969477  33.3669796  28.9417154  12.1384875  33.5478335  28.0684385
  11.3862001  33.3829012  28.2141025  19.7219834  44.4256092  24.0032816
  19.5834193  45.1237138  24.5081559  18.9419832  44.2704749  23.6468998
  19.5863061  44.5056259  24.0259090  18.0597919  40.7252468  30.2555198
  18.0545957  39.8532284  30.2597624  18.7658913  40.9240637  29.7824654
  18.1642923  40.6256342  30.1862233  11.7868812  40.4529451  29.6269018
  11.9312188  41.0330660  28.9912128  12.1344461  40.8305748  30.3318873
  11.8596274  40.5950155  29.6368013  13.9588730  39.6519620  27.4094150
  13.2112044  39.8450634  27.0042428  14.1130255  38.8264839  27.1718271
  13.8711157  39.5584731  27.3139555  10.8596567  48.6432223  26.4930045
  11.0086131  48.0835139  25.8403449  11.6396569  48.7224225  26.8762564
  10.9970661  48.5717789  26.4526994  13.3849868  48.8146866  27.7714536
  13.3093539  48.1455677  28.3265324  13.3139727  49.5164654  28.2855202
  13.3630475  48.8191773  27.9291384  14.1990507  33.5470170  28.2989553
  14.6563121  34.2794145  28.4262346  14.2746835  33.1236636  29.0576809
  14.2781476  33.5927409  28.4290630   6.4423498  33.7935990  29.3878997
   5.9065687  33.1816348  29.7039764   6.5041262  34.3684126  30.0412664
   6.3719130  33.7882918  29.5314424  14.0420115  47.3347865  18.6038142
  14.8070006  47.0657509  18.2820806  13.9398205  46.8497875  19.3208204
  14.1401610  47.2237430  18.6617969  12.0772884  35.5372274  25.1431377
  11.2868959  35.3563735  25.4648713  12.4733507  34.7599227  25.1261672
  12.0189761  35.3959735  25.1883926  17.4616571  43.1714705  22.8690823
  16.7861573  42.9399937  23.3704210  17.4708947  42.5635888  22.2432928
  17.3635075  43.0473630  22.8506976  14.5910715  38.0132534  29.6254876
  14.5269856  38.8742490  29.4975013  14.7307902  37.6964527  28.8250428
  14.6026185  38.0932700  29.4883089  19.4633305  46.0279837  15.1001001
  19.5453143  46.8346823  14.7762452  19.9483048  46.0475796  15.8241775
  19.5470463  46.1500499  15.1587900  13.2729809  40.7064673  23.7671079
  12.8492058  40.9069172  23.0310098  13.0974664  39.8593521  23.8795379
  13.1840689  40.6113454  23.6744769  12.7741502  52.2215186  26.2292536
  13.2637432  51.5225975  26.0468201  12.2025734  51.9239056  26.8168594
  12.7626032  52.0741410  26.2893577  18.9708506  44.7877255  35.1819327
  19.7843371  44.5162404  35.3424460  18.8103472  44.4884795  34.3779523
  19.0678454  44.7032181  35.0864733  16.2480668  35.4710912  28.1214715
  16.4622637  34.8321827  27.5678069  15.6314567  35.9156736  27.6922577
  16.1885997  35.4421056  27.9765146  17.6585335  48.3929661  19.5668936
  17.2665127  48.0896376  18.8491802  17.8138408  49.2298751  19.3773890
  17.6238925  48.4713497  19.4325433  18.4119756  37.0799978  29.0598022
  17.5996437  36.7725868  29.1411195  18.8709690  36.5998978  29.6240735
  18.3600140  36.9636470  29.1552617  17.8225010  44.9579650  19.5074967
  17.4639665  45.1294292  20.2838999  17.3363721  45.4192855  18.9502965
  17.6983707  45.0518621  19.5400236  15.5073263  38.4860049  33.8426725
  15.9772894  39.1102165  34.2294599  15.5535143  37.8177025  34.4019939
  15.5841139  38.4794729  33.9826796  14.7336770  31.1310037  26.3968381
  14.3468523  31.1559068  27.1781911  14.2469707  30.5651715  25.9442898
  14.6049279  31.0505787  26.4456285  18.9829750  45.8483546  30.4542168
  19.6209470  45.3543741  30.1204624  18.3403841  45.7760946  29.8694395
  18.9823976  45.7642554  30.3184523  20.7086750  37.6972691  25.0208083
  20.2814358  37.6099040  24.2656183  20.0712803  37.8050467  25.6062927
  20.5516357  37.7005351  24.9953525  14.3993912  28.0177022  28.6878641
  15.0287030  28.5537322  28.4099711  14.5679775  27.9254381  29.5392207
  14.5171706  28.0838384  28.7727169  14.2007827  32.8048217  30.9605053
  15.0281256  32.5333366  31.0163667  14.2215673  33.6009058  31.3168871
  14.3260677  32.8827971  31.0220236  19.0384006  46.5403354  27.0947524
  19.8276384  46.1892419  27.2149606  19.2127604  47.3539742  26.8324158
  19.1804288  46.6089211  27.0735392   8.7777317  39.9512080  24.1475313
   7.9365323  39.8515954  24.3554207   8.9867325  40.7207560  24.4989634
   8.6842009  40.0504123  24.2302628  12.5893981  37.8793479  23.3972911
  12.2857119  37.3249467  23.9983318  11.8873402  38.0585689  22.9100945
  12.4410191  37.8238261  23.4142616  10.6512333  45.0943199  28.1045009
  10.5432687  45.1045262  28.9707067  10.8608114  45.9197980  27.9149962
  10.6662444  45.2184274  28.2049100   8.6686125  42.3455842  25.5666946
   8.0774058  42.9865340  25.5369961   9.4307148  42.7693459  25.5398246
   8.6934385  42.5031680  25.5582093   9.0646747  33.5057840  26.2334964
   9.5248229  33.5796769  26.9710088   9.1102854  34.3039094  25.8834785
   9.1397303  33.6351987  26.2907720  10.7130097  34.1724534  30.8006991
  10.3215662  33.5257882  31.2362769  10.8815960  34.7635970  31.4201246
  10.6801007  34.1638802  30.9569697  24.7876546  42.1761612  26.5644224
  24.8459670  42.6248260  27.3104201  24.1543014  42.5860424  26.1274304
  24.7027841  42.3035346  26.6096773  18.4275641  47.7965153  22.9998971
  18.2295329  48.2855968  22.3055182  17.8063352  48.0006395  23.5783104
  18.3063205  47.8981692  22.9822194  15.4761495  35.1375524  23.2403134
  15.0021449  34.6117286  23.7508445  15.8479631  34.5904996  22.6717996
  15.4611384  34.9791520  23.2318281   5.8534525  37.1347030  28.6086680
   6.7160138  37.0342739  28.5224010   5.5226308  36.5541740  28.0472252
   5.9319721  37.0338657  28.5132086  21.7398226  40.1977899  24.6509915
  21.4996448  39.3584314  24.6552341  22.2190233  40.2778066  25.3750688
  21.7750409  40.0859299  24.7584717  23.7403413  36.9779356  22.6039174
  23.5013183  36.9375191  21.7659958  23.9037314  37.8250508  22.7304895
  23.7293716  37.0971441  22.4992656  20.3449443  41.3629306  28.5344219
  21.0683642  40.9101832  28.3555239  20.0799405  41.6433971  27.7516547
  20.4130716  41.3380274  28.3922934   9.2136311  35.9589479  25.2697098
   8.5889381  35.9707871  24.6623051   8.8781906  36.4349654  25.9188338
   9.0721803  36.0307996  25.2753667   5.9261987  44.0189939  26.7100862
   5.3961911  43.3282378  26.7595837   6.1987080  44.0100125  25.8813571
   5.8886709  43.9157071  26.5948278  16.1268232  41.4613184  26.6839234
  15.5125225  40.9171234  26.9787869  16.6435517  40.9477420  26.2045050
  16.1123895  41.3049593  26.6563462  15.3664529  42.5317454  24.4183533
  14.9392137  41.9067173  23.9848968  15.3589474  42.2492376  25.2442540
  15.3023671  42.3970235  24.4763360   8.4827056  37.5682627  27.4871967
   8.6420543  36.8125951  27.8923689   8.3019950  38.1173567  28.1412704
   8.4792415  37.5376441  27.6434673  16.4247359  29.7343863  28.0422756
  15.9287921  29.9307537  27.3514323  17.1816421  30.1336531  27.8711558
  16.4634184  29.8221596  27.9142893  13.6950239  33.4086209  24.6326067
  13.7192726  32.8746321  23.9438847  13.9461713  32.9003517  25.2951657
  13.7360158  33.2547112  24.6290711  12.1581174  41.7017767  32.1152106
  11.3076805  41.8389481  32.2509750  12.3209302  40.9681545  32.5599807
  12.0565038  41.6131868  32.2007705  11.3965925  38.6517537  26.3105710
  10.5657854  38.8191355  26.1040958  11.3417442  38.2753487  27.0954595
  11.2655340  38.6207268  26.3954238   9.2049708  32.1426430  31.9462121
   9.8302411  31.5988562  32.2191553   8.7500188  31.6621347  31.3769911
   9.2297969  31.9915911  31.9023715  22.7784757  40.3255717  27.0374769
  23.3702597  40.9652967  27.0692967  23.2143751  39.6278753  27.3266836
  22.9303188  40.3174067  27.0855601  14.6078147  44.7473089  27.6632663
  14.1003238  45.3008936  28.1073293  14.3104793  44.8081379  26.8451437
  14.4883031  44.8379400  27.6081119  16.7740329  33.1126409  26.5057326
  17.1995400  32.6598935  25.8940852  16.1597322  32.5586479  26.7822113
  16.7468974  32.9640385  26.4562351  17.2185927  48.6636347  15.5936606
  16.5015237  48.4897209  15.1283843  17.8692664  48.4288919  15.0612092
  17.2087777  48.6032139  15.4465824  19.8033898  37.5400935  19.3377911
  19.1325088  38.0830637  19.2090977  20.4973648  38.0095791  19.0959606
  19.8062766  37.6899206  19.2833439  13.8520632  49.6797647  24.5689670
  13.6286286  48.9216476  24.9373696  13.3630475  49.7095668  23.8470109
  13.7464081  49.5719872  24.5166410  19.9662026  33.9956819  22.2468284
  20.3189636  33.5686542  22.9214083  19.1076827  33.9107662  22.3769361
  19.8911470  33.9201559  22.3663295  17.9645291  37.2592187  26.1953127
  17.9443219  37.0775483  27.0487906  18.0124492  38.1304206  26.1712710
  17.9679932  37.3608726  26.3176421  15.9091621  43.8479379  32.1201603
  15.8687476  43.2029056  31.5346759  16.7214939  43.7915997  32.4327015
  16.0234775  43.7438346  32.0798552  12.4999089  49.8998105  22.0226754
  12.0859487  49.2372236  21.6330596  13.1846463  50.0475964  21.5022448
  12.5397460  49.8238763  21.8883251  15.8664383  49.0588191  22.7750371
  15.4680666  49.1690461  22.0071191  15.2515602  49.2670257  23.3576931
  15.7163272  49.1061759  22.7481670  11.5969330  37.4776316  28.6751361
  11.0848233  36.8697499  29.0336392  11.4248826  38.1932908  29.1425337
  11.4958967  37.4939615  28.7967585   6.4435045  35.9213891  31.3253723
   6.2737635  36.5815266  30.7801929   6.0000994  36.1320452  32.0466212
   6.3534378  36.0499873  31.3515352  23.6006226  43.6340157  16.1593461
  23.9839831  44.3831513  16.3891558  22.8050339  43.8805977  15.9005450
  23.5400008  43.7809851  16.1551035  15.4738400  35.4000561  31.1153616
  16.0309830  35.1714370  30.4832082  15.1499465  36.1606226  30.8388829
  15.5084810  35.4784397  30.9810114   3.3437109  38.8260757  26.5842213
   2.7963829  38.1561402  26.7023081   4.1329487  38.4590605  26.6485680
   3.3789293  38.6725743  26.6110913  13.1921517  38.4868214  32.0805624
  13.9432844  38.8019891  32.3945178  13.3844094  38.2847385  31.2539545
  13.3312932  38.5035596  32.0049019  17.7647660  39.2939282  22.9765626
  18.2601325  38.5762277  22.9369646  16.9547435  38.9910080  22.8620113
  17.7191553  39.1436928  22.9539352  19.8299479  42.0442969  25.6642755
  20.2554550  41.5217391  25.1113180  19.4656398  42.6423807  25.1431378
  19.8386081  42.0553197  25.5051764   9.4653558  50.3407187  24.4240100
   9.7800117  51.1543575  24.4317882   9.8746972  49.9557406  25.0922259
   9.5721656  50.4035889  24.5244192  16.4178078  45.7577234  21.9943912
  16.8889256  46.4717496  22.1633897  16.7538256  45.1575984  22.5303782
  16.5373193  45.7748698  22.0976288  18.5055063  47.3678547  34.1735984
  18.6152028  46.5787108  34.5292731  18.8345959  47.2784483  33.3710322
  18.5707468  47.2384400  34.1078375  13.3347573  30.5304704  28.9502007
  13.4675479  29.7335698  29.2782982  13.7192726  31.0571107  29.5300283
  13.4103902  30.4904621  29.0845510  17.0552024  45.5495168  28.7571605
  16.5072970  44.9253052  28.4891670  17.5165053  45.7389440  28.0415684
  17.0419234  45.4854218  28.6122036  19.8645889  33.6180522  26.1422797
  19.2808877  34.1189729  25.7300364  20.1850183  33.1110079  25.5087120
  19.8259064  33.6172357  25.9881304  10.9936020  30.5263879  27.1979901
  11.5380433  30.1855006  27.7884242  11.0472955  31.3849341  27.3401185
  11.0825139  30.6019139  27.3061774   6.8066578  44.2880295  24.0718709
   7.4111436  44.2476130  23.4432529   6.5993891  45.1351447  24.1022764
   6.8655476  44.4068298  23.9834825  16.6210351  46.5546241  25.2880946
  17.4408724  46.4109207  25.5497241  16.3404428  47.1792439  25.8297384
  16.7007094  46.6256593  25.4068885   2.0417861  43.2714913  23.9417632
   1.9442139  42.4611184  24.2507688   2.8246730  43.2506706  23.5563900
   2.1433997  43.1482003  23.9304495  33.0924001  54.2111092  18.2523822
  33.0618005  55.0655729  18.4242092  33.6905350  53.9106385  18.8109966
  33.1761159  54.2927589  18.3598625  26.2923686  53.2986743  23.0076753
  25.4361581  53.4595242  23.0585870  26.3391340  52.4278807  23.0281814
  26.1722797  53.1937545  23.0182819  20.6764826  62.8349461  18.7713984
  19.9247725  62.4565000  18.5430029  21.1250837  62.8667895  18.0232795
  20.6314492  62.7835068  18.6271486  29.6017402  59.5673269  32.6137209
  30.3084170  59.0725300  32.7424143  29.7905338  60.0082350  31.8839867
  29.7345308  59.5591619  32.5246254  26.1289785  63.2574831  14.1999531
  25.7941154  63.9351752  13.7643754  26.6416656  62.8680142  13.6116403
  26.1555367  63.2999409  14.0486323  25.6694077  65.2089099  20.1410643
  26.0533456  65.7775998  19.6015418  25.6053218  64.4838610  19.6616459
  25.7167504  65.1864563  19.9904506  29.1375507  55.3578787  25.6508404
  29.6831467  56.0363874  25.7102374  29.0792383  55.2166248  24.7909986
  29.2091421  55.4370789  25.5320465  22.2549582  62.8467853  21.0376757
  22.3559945  62.0368207  21.3473885  21.6591327  62.7524800  20.4076435
  22.1822120  62.7132881  20.9902995  30.9140576  56.7863394  16.5242132
  30.7980101  57.5371080  16.9534270  31.7096462  56.5287348  16.7738219
  31.0145165  56.8598241  16.6246224  22.0950321  67.7645443  22.4391613
  22.7387777  68.2058607  22.8287771  22.4206577  66.9598869  22.3521872
  22.2382150  67.7110637  22.4837090  15.4514626  58.8688140  20.6629090
  15.2164810  58.0355792  20.5561359  15.5900267  59.1492806  19.8490291
  15.4370288  58.7871643  20.5271445  17.7504713  51.0373871  23.5613398
  17.1309745  50.4466518  23.3923413  17.6488577  51.6285306  22.9277721
  17.6442389  51.0377953  23.4418388  22.7970901  60.7757417  17.8111475
  23.1186742  61.3162625  17.2072783  23.4442998  60.2054189  17.9433764
  22.9396956  60.7716593  17.7418510  24.8472609  52.7773412  17.8945861
  25.5452774  52.9561540  18.3867325  25.1624942  52.2543752  17.2716251
  24.9967946  52.7267184  17.8747871  17.4773846  54.5826152  25.8056967
  17.3532543  55.1688598  26.4406786  18.1292131  54.0886348  26.1069242
  17.5547496  54.5964957  25.9442896  25.0360544  59.1643857  17.8825653
  25.4754180  58.5560958  18.3280426  24.8865207  58.7851231  17.1111118
  25.0782010  59.0182328  17.8344820  22.5032187  57.7587869  25.0844478
  23.1481190  57.2660312  24.7655427  22.7433965  57.9012656  25.9110557
  22.6342773  57.7065311  25.1594011  25.0418279  60.6042775  24.7351371
  25.3241522  59.8094181  24.5138127  25.7704439  61.0823362  24.7556432
  25.1907843  60.5577372  24.7054386  23.0199473  48.1465809  21.9767136
  22.6902803  48.5976953  21.3070835  22.3444474  48.0681972  22.5240142
  22.8709909  48.2016944  21.9590359  28.6369881  57.5171039  14.8356422
  28.5521176  58.3732005  14.9805991  29.1254264  57.2415363  15.5038581
  28.6958778  57.6028360  14.9558503  30.2275880  44.1351332  20.2216747
  29.9129321  44.8254810  20.6537169  29.7102822  44.0796114  19.5202247
  30.1040351  44.2286220  20.1813696  29.5688314  54.1355833  16.3354157
  29.0399786  54.3515466  16.9951463  30.0913334  54.8291971  16.2555126
  29.5676767  54.2698970  16.4209756  35.0236367  59.7102137  21.7087202
  34.1934070  59.9212781  21.8720618  34.9745619  58.8839192  21.4329485
  34.8943103  59.6191744  21.6924567  21.4587922  58.0319050  15.1361625
  20.8745137  58.5369081  15.5427489  21.0558017  57.8061436  14.3958217
  21.3127226  58.0727298  15.0866650  17.0131951  63.7473811  21.9385297
  16.5299529  64.4724300  21.9144880  17.8255269  64.0449941  22.0495454
  17.0622698  63.8976164  21.9512576  23.0846105  62.5405991  24.5435111
  22.5673046  62.1813406  23.9396419  23.7820496  62.0168166  24.5541177
  23.1111686  62.4103679  24.4565370  26.7409697  62.9900805  30.5051284
  26.8293043  62.8026946  31.3529494  27.1699409  62.3438235  30.1056131
  26.8171799  62.8663813  30.5723036  24.3080156  62.2731965  29.4868946
  23.7450991  61.8604575  30.0108608  25.0701180  62.1984871  29.9062090
  24.3374605  62.2009366  29.6261947  25.9165136  54.2784702  13.6130546
  26.1561140  54.4862685  12.8005889  26.2380977  53.4742210  13.7219490
  26.0002294  54.1898803  13.5091099  21.2255427  46.2078097  17.4590084
  21.9801395  46.5756414  17.2207134  21.0482961  46.5817652  18.2269263
  21.3109905  46.3176285  17.5374972  19.8676148  64.2629987  22.0905576
  20.5696727  63.7481976  22.1478333  19.7873631  64.5904138  22.8952452
  19.9599908  64.2344213  22.2178369  34.5190325  52.3572538  25.5037623
  33.6818747  52.4274725  25.7385217  34.4878556  52.3597033  24.6311925
  34.3908608  52.3682765  25.4097171  20.9155054  54.5005574  31.2185992
  21.0875558  54.3911468  32.0671273  21.4524412  55.1459979  30.9817184
  21.0200058  54.5797575  31.3091088  19.5812491  48.6148416  14.1568197
  19.3988065  48.8320297  13.3309189  20.4438104  48.7287429  14.2126811
  19.6817081  48.6638314  14.0422684  19.1926923  60.4536339  21.5991184
  20.0315823  60.6859271  21.6464946  19.2238693  59.5840650  21.5298220
  19.3208641  60.3593285  21.5955829  19.8179626  60.8737214  25.9004490
  20.3577851  60.7308345  26.5707862  19.1349573  61.2733965  26.2688516
  19.7971780  60.9116885  26.0538912  25.2612211  45.6174827  17.1917220
  25.9898371  45.4390782  16.7455377  25.3507103  46.4592907  17.4024399
  25.3818873  45.7158705  17.1570738  29.2420511  56.5528214  21.0949514
  29.9978026  56.9859729  21.1338423  29.3482836  55.9032984  21.6684150
  29.3690682  56.5205698  21.1847540  32.2800682  60.3801492  21.8451917
  31.8435914  60.3838234  22.6010889  31.9463598  61.0606991  21.4131495
  32.1663302  60.4813947  21.8932750  26.8529756  62.4209824  33.1695068
  27.6370173  62.5340672  33.5350810  26.6526351  61.5950962  33.3653754
  26.9395781  62.3156544  33.2529454  15.2216771  57.0937505  26.0538912
  14.9555187  56.2776621  26.2129902  15.2355336  57.1390660  25.1834427
  15.1841494  56.9794409  25.9492394  32.1998165  47.4215319  24.0881345
  32.8424074  47.4913424  24.6743261  32.4521186  46.7544542  23.5860887
  32.3320297  47.3341668  24.1008625  19.1274518  51.8922589  12.6690670
  18.4132696  51.6060769  13.0813102  19.6118487  52.2319215  13.3097057
  19.0933882  51.9004239  12.8246305  19.9715378  50.6315883  28.7005919
  19.2787175  50.1612863  28.9466651  20.5875705  50.4054187  29.2747626
  19.9599908  50.5283015  28.8215072  27.0100149  64.3319927  26.8161523
  26.2115395  64.0919427  27.0735392  27.4586161  64.3834319  27.5628571
  26.9574761  64.3042318  26.9646448  35.4145029  57.0982412  20.7371555
  36.0761463  56.5373080  20.6367463  34.7736441  56.6034442  21.0624246
  35.4173896  56.9418821  20.7703895  26.3021836  60.3952543  13.0452478
  26.7172985  60.0637567  12.3536974  25.4713766  60.1621445  12.9172615
  26.2409845  60.3123799  12.9243325  15.6310185  57.8796284  23.3350656
  15.4485758  57.8543170  22.4822948  16.3659854  58.3495222  23.3739565
  15.7124249  57.9457646  23.2148574  31.7009859  58.1147794  20.4783543
  31.9365448  58.2592993  19.6510394  31.8499423  58.8790202  20.8715057
  31.7575663  58.2486848  20.4147147  18.6955937  54.5981287  29.8432764
  19.4195909  54.5834317  30.3297659  18.7972073  55.3076642  29.3454733
  18.8174146  54.7005990  29.8411551  33.5300316  56.9549460  18.3153147
  33.8608533  57.4877100  17.7093242  34.1033404  57.0088348  18.9715098
  33.6633995  57.0419029  18.3230929  26.0700886  58.0780371  34.7081711
  25.2773867  58.3923883  34.8934331  26.1849813  58.2931840  33.8702496
  25.9696297  58.1564208  34.6120046  28.7432205  54.8014363  18.9976727
  28.8379060  55.5403657  19.4516353  28.1191049  54.3731838  19.4311292
  28.6641235  54.8475683  19.1284875  26.9984679  57.9800575  29.6467008
  27.5723541  57.3427819  29.8015572  26.9199483  57.9804658  28.7776666
  27.0717914  57.8865687  29.5413419  15.5981095  54.7589785  23.4849722
  16.1754598  54.6226235  24.1241968  14.8995157  54.3025569  23.7395307
  15.5802117  54.6712051  23.6172012  28.9955226  56.6463102  12.2313679
  28.9135389  56.7165290  13.0968666  29.6334947  57.2092846  12.0397420
  29.0775064  56.7402073  12.3303629  22.3548398  56.4123840  21.6988206
  22.0967642  55.5795575  21.6719505  22.4096880  56.6381453  20.8580706
  22.3248175  56.3221612  21.5708342  27.4349448  48.5152291  21.7992298
  26.7305774  48.0261477  21.9576217  27.4834422  48.5274765  20.9280743
  27.3379499  48.4441939  21.6931638  21.3283110  53.9661603  22.1853100
  20.7532701  54.1253771  22.8217061  20.9518786  53.3297012  21.7221551
  21.1885922  53.8959416  22.2107659  24.9956398  52.4384952  27.0445479
  24.6070831  52.0139170  26.3897670  24.3311097  52.6867102  27.5522505
  24.8403326  52.4123673  27.0233347  34.6379668  52.1959957  19.8193309
  34.3816232  51.3839898  19.6291192  35.4808982  52.2037524  19.5923496
  34.7245693  52.0771954  19.7578126  11.0739929  53.6101678  20.1997541
  11.1600180  53.2333546  20.9811071  11.7015726  53.2362123  19.7217499
  11.1796480  53.4987160  20.2443018  28.8182760  46.1359581  24.5569463
  29.1993272  45.4537752  24.9437337  28.0146044  45.8469183  24.3745127
  28.7559222  45.9926629  24.5873519  26.0995337  56.6683557  15.2422286
  26.9135975  56.9598449  15.1305057  26.0354478  56.0143419  14.6680579
  26.2098076  56.6148751  15.1411123  32.3204827  59.3509553  29.6551861
  32.0843464  58.5197618  29.5363922  32.9648056  59.2995160  30.2406706
  32.3799498  59.2207241  29.7237755  21.9703245  60.1405074  20.3694598
  22.6077192  59.9016822  20.9146391  22.3958316  60.3442233  19.6347758
  22.1279411  60.1356084  20.3411755  16.6615887  62.3793411  24.2528902
  16.7020033  62.6508262  23.4248681  17.2210411  62.9035319  24.6686690
  16.7499233  62.4969166  24.1920790  22.6106060  55.3607364  14.7069487
  22.9951213  55.1415071  15.4586032  22.3617680  56.1870309  14.8370564
  22.6308133  55.4505510  14.8370564  22.7774600  48.6413779  34.4232071
  22.4628041  49.4113342  34.1601634  22.4564533  48.0784035  33.8384298
  22.6833519  48.6724048  34.2973421  33.3441247  59.1354002  25.7180156
  33.0387065  59.8682058  26.0793471  32.6247463  58.7291931  25.4372942
  33.1928590  59.1835735  25.7293293  24.3524717  60.6177497  22.0488384
  24.4263725  60.4552669  22.9030234  25.1694223  60.8067686  21.8048866
  24.4841075  60.6214239  22.1386410  39.0443040  55.7747002  25.0448500
  38.9767540  55.7942961  24.1751087  39.0298702  56.6177329  25.2704171
  39.0321796  55.9020737  24.9500977  18.1130474  60.9635360  19.0782828
  17.2868591  61.2097097  18.9517106  18.1742465  60.8847440  19.9444886
  18.0004641  60.9880309  19.1871772  20.3306497  47.0304301  20.0378268
  19.4628923  47.1026900  20.1035877  20.6181702  47.8326380  20.2266243
  20.2446245  47.1598448  20.0753034  29.4539386  47.1782160  28.3689590
  30.1992978  46.9891970  27.9553015  29.0376691  47.7040398  27.8103446
  29.5024360  47.2284305  28.2254163  22.8929303  63.5812240  16.7801857
  23.1827601  63.1901221  16.0561084  23.6232783  63.7628945  17.2207133
  23.0436187  63.5506054  16.7384664  36.8301657  54.5491388  23.3195095
  37.3809578  53.9159457  23.5592187  36.8145772  55.0806781  24.0110599
  36.9086853  54.5340337  23.4573953  23.4824048  58.3829986  27.8654988
  22.9835741  59.0945753  27.9439876  24.2924272  58.7030652  27.8273150
  23.5280154  58.5356834  27.8711557  20.8335218  65.5579622  19.8462007
  20.6135514  65.2676977  20.6388674  20.6129740  64.8994577  19.3179920
  20.7682812  65.4179331  19.8850916  19.7452165  57.6452939  22.1117709
  19.4565414  57.0190410  22.6463436  20.6135513  57.5873226  22.1782389
  19.8312417  57.5440483  22.2008663  30.5330063  52.7887722  22.4299691
  30.1894829  52.0678057  22.7806940  30.6323106  52.5801573  21.5878049
  30.4972106  52.6511925  22.3571371  23.0003174  66.9309012  18.6292700
  23.6527232  66.3985454  18.8583726  22.3028783  66.5777664  19.0160574
  22.9933892  66.7998535  18.7204867  19.9484439  59.2848190  18.0360074
  20.7030407  59.6661229  18.2495536  19.3555051  59.7359333  18.4906770
  19.9721152  59.4077017  18.1342952  30.9943092  59.2513426  17.9723679
  31.5601125  59.9106636  17.8882222  30.3470996  59.5963124  18.4440081
  30.9821849  59.3995367  18.0296435  22.4091106  51.2411030  33.1617286
  21.5990882  51.5468810  33.0507129  22.8865792  51.9616612  33.2769870
  22.3594585  51.3925631  33.1624357  21.2682665  60.4556751  23.4100189
  20.7463419  60.5957043  24.0952054  21.6556686  59.6967415  23.6002307
  21.2486366  60.3642275  23.5401266  18.2573849  50.5062560  17.4795144
  17.9698645  50.1363830  16.7427091  18.9444318  50.9757415  17.2178849
  18.3162747  50.5209529  17.3310220  27.4649670  62.1952210  17.3960758
  27.2236346  61.4620071  16.9887823  27.6451003  62.7439067  16.7427091
  27.4557294  62.1674602  17.2390981  22.6948991  57.4860770  18.8081680
  22.4991774  58.0935505  18.2141983  22.9183337  56.7928714  18.3273354
  22.6983632  57.4738296  18.6497761  21.0927521  54.3715508  18.9262549
  21.8150173  54.5356666  18.4666355  20.6135514  55.0925173  18.8201888
  21.1291252  54.5013738  18.8428163  29.0521029  50.7079307  24.3059234
  28.2132129  50.7340586  24.0697497  29.1225396  51.3550042  24.8864580
  28.9389422  50.8075433  24.3568351  18.7435138  56.7773580  28.0316689
  19.2556235  57.0557834  27.3825448  18.4571480  57.5162875  28.3979502
  18.7770001  56.9275934  27.9906567  27.4990307  47.6064684  19.0386850
  28.2016660  47.4072432  18.5606808  27.2334496  46.8340626  19.3455693
  27.5636939  47.4627650  19.0132291  32.9278552  55.9147294  21.5920475
  32.8412527  56.0702720  22.4455254  32.4729032  56.5585369  21.2179880
  32.8481809  56.0323049  21.6627582  15.8302044  51.2843772  18.3280425
  15.9318180  52.0869934  18.6561400  16.6257931  51.0831108  18.0303506
  15.9629950  51.3729671  18.3315780  22.2618863  48.8699969  28.0917730
  22.0702060  48.8855104  28.9417154  23.1117459  49.0663643  28.0684385
  22.3594585  48.9014320  28.2141025  16.6465776  51.3990951  26.0701547
  16.5051268  50.5474891  26.1946055  16.9306339  51.4419611  25.2463753
  16.6673622  51.2790701  25.9669171  26.8004368  53.2358041  20.2146035
  26.5539083  53.1553792  21.0482824  27.1289492  52.4511509  20.0208562
  26.8125612  53.1084306  20.3093558  30.6952417  59.9441400  24.0032816
  30.5566777  60.6422446  24.5081559  29.9152415  59.7890057  23.6468998
  30.5595644  60.0241567  24.0259090  29.0330502  56.2437775  30.2555198
  29.0278541  55.3717592  30.2597624  29.7391496  56.4425945  29.7824654
  29.1375506  56.1441650  30.1862233  22.7601396  55.9714759  29.6269018
  22.9044771  56.5515967  28.9912128  23.1077044  56.3491056  30.3318873
  22.8328857  56.1135463  29.6368013  24.9321313  55.1704928  27.4094150
  24.1844627  55.3635942  27.0042428  25.0862838  54.3450147  27.1718271
  24.8443741  55.0770039  27.3139555  21.8329151  64.1617531  26.4930045
  21.9818714  63.6020447  25.8403449  22.6129153  64.2409533  26.8762564
  21.9703244  64.0903097  26.4526994  32.1905790  59.3019654  14.7649315
  31.8112599  58.5156792  14.7578605  31.5272036  59.8506511  14.6220960
  32.0364265  59.2664478  14.7430112  24.3582451  64.3332174  27.7714536
  24.2826122  63.6640985  28.3265324  24.2872310  65.0349962  28.2855202
  24.3363058  64.3377081  27.9291384  25.1723090  49.0655478  28.2989553
  25.6295704  49.7979453  28.4262346  25.2479419  48.6421944  29.0576809
  25.2514060  49.1112717  28.4290630  17.4156081  49.3121298  29.3878997
  16.8798271  48.7001656  29.7039764  17.4773846  49.8869434  30.0412664
  17.3451714  49.3068226  29.5314424  29.6450416  42.2445354  22.1683396
  29.7633984  42.7021817  21.4350699  29.4712592  41.4390615  21.8819614
  29.6369587  42.1939126  22.0184330  25.0152698  62.8533173  18.6038142
  25.7802589  62.5842817  18.2820806  24.9130788  62.3683183  19.3208204
  25.1134194  62.7422738  18.6617969  23.0505468  51.0557582  25.1431377
  22.2601543  50.8749042  25.4648713  23.4466091  50.2784535  25.1261672
  22.9922344  50.9145043  25.1883926  27.5371359  59.8845357  10.5838091
  28.3044344  59.9445482  10.1743943  27.0902668  59.3125798  10.0994409
  27.5844786  59.8081932  10.4515801  28.4349154  58.6900013  22.8690823
  27.7594156  58.4585245  23.3704210  28.4441530  58.0821195  22.2432928
  28.3367659  58.5658938  22.8506976  25.5643298  53.5317841  29.6254876
  25.5002440  54.3927798  29.4975013  25.7040486  53.2149835  28.8250428
  25.5758768  53.6118008  29.4883089  30.4365889  61.5465145  15.1001001
  30.5185726  62.3532131  14.7762452  30.9215631  61.5661104  15.8241775
  30.5203047  61.6685807  15.1587900  24.2462392  56.2249981  23.7671079
  23.8224641  56.4254480  23.0310098  24.0707247  55.3778829  23.8795379
  24.1573273  56.1298762  23.6744769  23.7474086  67.7400494  26.2292536
  24.2370016  67.0411283  26.0468201  23.1758318  67.4424364  26.8168594
  23.7358616  67.5926717  26.2893577  19.5344837  56.7202032  19.1999052
  19.6909456  56.6548835  20.0555044  19.8745430  57.4950585  18.9877731
  19.6078072  56.8251230  19.2953646  26.0723982  56.0959916  18.0692415
  26.6139527  55.5930297  18.5331035  26.3870541  56.0425111  17.2581900
  26.1988379  56.0139337  18.0176227  29.9441089  60.3062563  35.1819327
  30.7575954  60.0347712  35.3424460  29.7836056  60.0070103  34.3779523
  30.0411038  60.2217489  35.0864733  24.2410431  61.4877267  15.3532443
  24.3103252  60.6291806  15.4925443  25.0198887  61.7049148  15.0251468
  24.3663282  61.3930131  15.3249600  27.2213251  50.9896220  28.1214715
  27.4355221  50.3507135  27.5678069  26.6047150  51.4342044  27.6922577
  27.1618580  50.9606364  27.9765146  28.6317919  63.9114969  19.5668936
  28.2397711  63.6081684  18.8491802  28.7870991  64.7484059  19.3773890
  28.5971509  63.9898805  19.4325433  16.1079099  53.9036983  19.5159819
  16.4878064  54.3221528  18.8520086  15.5334463  54.4850438  19.8228662
  16.0790424  54.0514842  19.4636560  29.3852339  52.5985286  29.0598022
  28.5729021  52.2911176  29.1411195  29.8442274  52.1184286  29.6240735
  29.3332724  52.4821778  29.1552617  28.7957594  60.4764957  19.5074967
  28.4372249  60.6479600  20.2838999  28.3096305  60.9378163  18.9502965
  28.6716291  60.5703929  19.5400236  26.6127980  44.0996156  23.1102058
  25.7421538  44.0734877  23.0635368  26.8668321  43.9273348  22.2927904
  26.5221540  44.0706300  22.9822195  23.5845959  56.1564123  12.0475201
  23.8738484  56.9329005  12.3218775  23.6717758  55.6452854  12.7489700
  23.6400215  56.1956041  12.1917699  26.4805847  54.0045357  33.8426725
  26.9505478  54.6287473  34.2294599  26.5267727  53.3362332  34.4019939
  26.5573723  53.9980037  33.9826796  23.6377120  46.1102384  24.5675529
  23.1215609  45.4182576  24.6927108  23.0771049  46.7773161  24.5138127
  23.4783634  46.1065642  24.5781595  25.7069354  46.6495344  26.3968381
  25.3201107  46.6744376  27.1781911  25.2202291  46.0837023  25.9442898
  25.5781863  46.5691095  26.4456285  29.9562333  61.3668853  30.4542168
  30.5942054  60.8729049  30.1204624  29.3136425  61.2946254  29.8694395
  29.9556560  61.2827862  30.3184523  31.6819333  53.2157999  25.0208083
  31.2546941  53.1284348  24.2656183  31.0445386  53.3235775  25.6062927
  31.5248941  53.2190659  24.9953525  25.3726496  43.5362330  28.6878641
  26.0019613  44.0722630  28.4099711  25.5412358  43.4439689  29.5392207
  25.4904290  43.6023692  28.7727169  25.1740410  48.3233525  30.9605053
  26.0013840  48.0518674  31.0163667  25.1948256  49.1194366  31.3168871
  25.2993260  48.4013279  31.0220236  30.0116590  62.0588662  27.0947524
  30.8008968  61.7077726  27.2149606  30.1860188  62.8725050  26.8324158
  30.1536871  62.1274519  27.0735392  19.7509900  55.4697387  24.1475313
  18.9097907  55.3701262  24.3554207  19.9599908  56.2392868  24.4989634
  19.6574593  55.5689431  24.2302628  17.2285467  53.0916924  21.9760064
  16.8342165  53.1659936  21.2010174  16.6725584  53.4774871  22.5268426
  17.0888280  53.1598699  21.9427724  28.8650414  46.0698218  21.6563943
  29.0700007  46.0020526  22.5020940  28.5376838  46.8757040  21.5885120
  28.8465662  46.1784159  21.7723598  23.5626565  53.3978787  23.3972911
  23.2589703  52.8434775  23.9983318  22.8605986  53.5770997  22.9100945
  23.4142775  53.3423569  23.4142616  22.6192662  50.7079306  17.9617613
  22.8952397  49.9898219  17.5495180  23.2191332  51.3064226  17.7538719
  22.7485927  50.6899677  17.8698374  21.6244916  60.6128507  28.1045009
  21.5165271  60.6230569  28.9707067  21.8340698  61.4383288  27.9149962
  21.6395027  60.7369582  28.2049100  32.1184102  46.6229983  21.1366708
  31.5058415  47.1100385  21.5220440  32.2148277  45.9473474  21.6804359
  32.0421999  46.5948291  21.2745567  26.1203183  48.3792824  16.2364208
  26.5746929  48.5503384  16.9612052  26.5943228  47.7660934  15.8361983
  26.2571503  48.3143709  16.2837969  19.6418708  57.8641150  25.5666946
  19.0506641  58.5050648  25.5369961  20.4039732  58.2878767  25.5398246
  19.6666969  58.0216988  25.5582093  20.0379331  49.0243148  26.2334964
  20.4980812  49.0982077  26.9710088  20.0835438  49.8224402  25.8834785
  20.1129886  49.1537295  26.2907720  21.6862681  49.6909842  30.8006991
  21.2948246  49.0443190  31.2362769  21.8548543  50.2821278  31.4201246
  21.6533591  49.6824110  30.9569697  35.7609130  57.6946919  26.5644224
  35.8192253  58.1433568  27.3104201  35.1275597  58.1045732  26.1274304
  35.6760425  57.8220654  26.6096773  29.4008224  63.3150461  22.9998971
  29.2027913  63.8041276  22.3055182  28.7795935  63.5191703  23.5783104
  29.2795789  63.4167000  22.9822194  23.4616203  55.0835358  17.3409215
  24.2058248  55.4709634  17.5792165  23.6076899  54.2392784  17.5049703
  23.5926788  55.0165831  17.4003185  25.3795778  46.8785617  22.3741076
  24.5331823  47.0508425  22.2482426  25.3766911  46.0734961  22.7106905
  25.2542928  46.7846646  22.4052203  26.4494079  50.6560831  23.2403134
  25.9754033  50.1302594  23.7508445  26.8212214  50.1090304  22.6717996
  26.4343967  50.4976828  23.2318281  16.8267109  52.6532338  28.6086680
  17.6892722  52.5528047  28.5224010  16.4958892  52.0727047  28.0472252
  16.9052305  52.5523965  28.5132086  32.7130809  55.7163207  24.6509915
  32.4729032  54.8769622  24.6552341  33.1922816  55.7963374  25.3750688
  32.7482993  55.6044607  24.7584717  28.3777578  51.5497386  16.3028888
  27.8500597  51.6326130  15.6134597  28.8373286  52.2915258  16.2993533
  28.3679429  51.6718048  16.2003583  34.7135996  52.4964664  22.6039174
  34.4745766  52.4560499  21.7659958  34.8769897  53.3435816  22.7304895
  34.7026300  52.6156749  22.4992656  31.3182026  56.8814614  28.5344219
  32.0416225  56.4287140  28.3555239  31.0531989  57.1619279  27.7516547
  31.3863300  56.8565582  28.3922934  20.1868895  51.4774787  25.2697098
  19.5621965  51.4893179  24.6623051  19.8514490  51.9534962  25.9188338
  20.0454386  51.5493304  25.2753667  16.8994570  59.5375247  26.7100862
  16.3694495  58.8467686  26.7595837  17.1719664  59.5285433  25.8813571
  16.8619293  59.4342379  26.5948278  27.9314661  60.1200950  15.4338545
  28.6548860  60.5859063  15.2903118  27.4915252  60.1874559  14.6836142
  27.9730353  60.1984786  15.3023326  27.1000816  56.9798492  26.6839234
  26.4857809  56.4356542  26.9787869  27.6168101  56.4662728  26.2045050
  27.0856478  56.8234901  26.6563462  26.3397113  58.0502762  24.4183533
  25.9124721  57.4252481  23.9848968  26.3322057  57.7677684  25.2442540
  26.2756254  57.9155543  24.4763360  19.4559640  53.0867935  27.4871967
  19.6153127  52.3311259  27.8923689  19.2752534  53.6358875  28.1412704
  19.4524999  53.0561749  27.6434673  27.3979943  45.2529171  28.0422756
  26.9020504  45.4492845  27.3514323  28.1549005  45.6521839  27.8711558
  27.4366768  45.3406904  27.9142893  24.6682823  48.9271516  24.6326067
  24.6925310  48.3931629  23.9438847  24.9194296  48.4188825  25.2951657
  24.7092741  48.7732420  24.6290711  12.1790412  56.2103011  24.0669211
  12.0733862  56.1649856  23.2021295  11.4290632  56.5556792  24.3483496
  12.0526015  56.2543920  23.9806540  20.9484145  47.6542335  24.0131811
  20.9882516  48.1551541  24.7266518  20.1233810  47.7452728  23.7437734
  20.8323671  47.7424151  24.0782349  23.1313758  57.2203075  32.1152106
  22.2809388  57.3574789  32.2509750  23.2941885  56.4866853  32.5599807
  23.0297621  57.1317176  32.2007705  22.3698508  54.1702845  26.3105710
  21.5390438  54.3376663  26.1040958  22.3150025  53.7938795  27.0954595
  22.2387923  54.1392576  26.3954238  20.1782291  47.6611737  31.9462121
  20.8034995  47.1173870  32.2191553  19.7232771  47.1806655  31.3769911
  20.2030552  47.5101219  31.9023715  20.7434552  52.4458436  16.8395828
  20.8837513  52.9430900  17.5424469  21.2417085  51.7444730  16.9810041
  20.8375633  52.4160415  16.9647407  20.7734774  53.3125547  14.1688405
  21.4079854  53.9085972  14.1037866  20.8560385  53.0129005  14.9834275
  20.8791325  53.3566455  14.2791491  33.7517340  55.8441024  27.0374769
  34.3435180  56.4838275  27.0692967  34.1876335  55.1464061  27.3266836
  33.9035771  55.8359375  27.0855601  22.3513757  49.2439523  14.1433847
  22.6729598  48.7642605  13.4893109  22.6140701  50.0539169  13.9524658
  22.4379783  49.2929420  14.0189339  25.5810730  60.2658397  27.6632663
  25.0735821  60.8194244  28.1073293  25.2837376  60.3266687  26.8451437
  25.4615615  60.3564708  27.6081119  27.7472912  48.6311716  26.5057326
  28.1727984  48.1784243  25.8940852  27.1329905  48.0771787  26.7822113
  27.7201558  48.4825693  26.4562351  17.2787762  55.5093388  17.4377951
  17.7879992  56.1057895  17.8189256  17.7522035  55.2419362  16.7554370
  17.4231138  55.5579203  17.3932473  28.1918510  64.1821655  15.5936606
  27.4747820  64.0082517  15.1283843  28.8425248  63.9474227  15.0612092
  28.1820361  64.1217447  15.4465824  26.1867135  45.1026816  19.9147903
  25.5435453  44.9524463  20.4833041  25.8466542  44.8569162  19.1497007
  26.0412212  45.0438939  19.8850918  30.7766482  53.0586243  19.3377911
  30.1057671  53.6015945  19.2090977  31.4706232  53.5281098  19.0959606
  30.7795349  53.2084514  19.2833439  24.8253215  65.1982955  24.5689670
  24.6018870  64.4401784  24.9373696  24.3363059  65.2280976  23.8470109
  24.7196664  65.0905180  24.5166410  30.9394609  49.5142127  22.2468284
  31.2922219  49.0871850  22.9214083  30.0809411  49.4292970  22.3769361
  30.8644054  49.4386867  22.3663295  19.6378294  52.1449646  20.3051131
  18.9190283  52.5613779  20.5723995  20.0090656  52.7103885  19.7542769
  19.5870226  52.2898928  20.2633938  28.9377875  52.7777495  26.1953127
  28.9175802  52.5960790  27.0487906  28.9857076  53.6489514  26.1712710
  28.9412516  52.8794034  26.3176421  26.8824205  59.3664687  32.1201603
  26.8420060  58.7214364  31.5346759  27.6947523  59.3101305  32.4327015
  26.9967358  59.2623654  32.0798552  23.4731672  65.4183413  22.0226754
  23.0592071  64.7557543  21.6330596  24.1579047  65.5661272  21.5022448
  23.5130044  65.3424071  21.8883251  26.8396966  64.5773498  22.7750371
  26.4413250  64.6875769  22.0071191  26.2248186  64.7855565  23.3576931
  26.6895856  64.6247067  22.7481670  25.4124868  51.1847646  15.6424510
  24.8189708  51.5064643  15.0909077  25.4500146  50.3388742  15.4345617
  25.3299258  51.1071975  15.5307282  32.3718669  44.6360539  23.1752597
  31.8649534  43.9289678  23.1073774  33.1686103  44.3053727  23.3053674
  32.4145908  44.4833690  23.1851592  28.2882685  51.1427151  19.0726261
  28.0596378  51.1659852  18.2304619  28.5480761  50.3184618  19.1921271
  28.2928873  51.0243231  18.9651458  22.5701913  52.9961624  28.6751361
  22.0580817  52.3882807  29.0336392  22.3981410  53.7118216  29.1425337
  22.4691550  53.0124923  28.7967585  17.4167628  51.4399199  31.3253723
  17.2470218  52.1000574  30.7801929  16.9733578  51.6505760  32.0466212
  17.3266962  51.5685181  31.3515352  21.3427448  49.6803697  20.3680456
  21.8184814  50.0420777  19.7330637  20.8416047  50.3360165  20.6480599
  21.3392807  49.8297886  20.3157197  34.5738809  59.1525465  16.1593461
  34.9572415  59.9016821  16.3891558  33.7782922  59.3991285  15.9005450
  34.5132591  59.2995159  16.1551035  26.4470984  50.9185869  31.1153616
  27.0042414  50.6899678  30.4832082  26.1232049  51.6791534  30.8388829
  26.4817394  50.9969705  30.9810114  14.3169693  54.3446065  26.5842213
  13.7696412  53.6746710  26.7023081  15.1062071  53.9775913  26.6485680
  14.3521876  54.1911051  26.6110913  24.1654101  54.0053522  32.0805624
  24.9165428  54.3205199  32.3945178  24.3576678  53.8032693  31.2539545
  24.3045515  54.0220904  32.0049019  23.3854101  51.8244897  13.7353840
  23.7653066  51.8424526  12.9504955  22.6446697  52.2698886  13.6144688
  23.3322938  51.8926672  13.6017408  31.0139391  50.1327088  19.3229419
  31.0133618  49.9775745  20.1813695  30.8095571  50.9790075  19.2670805
  30.9839169  50.2347709  19.4417358  13.0756662  53.5566873  23.7388236
  12.8978423  53.1043482  24.4643151  12.7875684  54.3593034  23.9226713
  13.0069615  53.6089430  23.8731738  28.7380243  54.8124590  22.9765626
  29.2333909  54.0947585  22.9369646  27.9280019  54.5095388  22.8620113
  28.6924137  54.6622236  22.9539352  24.1838855  58.6622403  15.1262630
  23.3750177  58.3389077  15.0795940  24.6913764  57.9555625  15.0590879
  24.1388522  58.5103720  15.1092925  14.8129132  56.0894596  20.8509995
  13.9474651  56.0780287  20.7392766  14.9127948  55.9024819  21.6981134
  14.7003299  56.0600658  20.9598939  30.8032062  57.5628277  25.6642755
  31.2287134  57.0402699  25.1113180  30.4388982  58.1609115  25.1431378
  30.8118665  57.5738504  25.5051764  20.4386142  65.8592495  24.4240100
  20.7532701  66.6728883  24.4317882  20.8479555  65.4742714  25.0922259
  20.5454240  65.9221197  24.5244192  27.3910662  61.2762542  21.9943912
  27.8621840  61.9902804  22.1633897  27.7270840  60.6761292  22.5303782
  27.5105777  61.2934006  22.0976288  29.4787646  62.8863855  34.1735984
  29.5884612  62.0972416  34.5292731  29.8078543  62.7969791  33.3710322
  29.5440052  62.7569708  34.1078375  24.3080157  46.0490012  28.9502007
  24.4408062  45.2521006  29.2782982  24.6925309  46.5756415  29.5300283
  24.3836485  46.0089929  29.0845510  28.0284608  61.0680476  28.7571605
  27.4805554  60.4438359  28.4891670  28.4897637  61.2574748  28.0415684
  28.0151817  61.0039526  28.6122036  27.3812512  42.9720338  25.5483100
  26.5758475  42.8618068  25.8650938  27.2519247  43.0732794  24.6912966
  27.2432645  42.9704008  25.4691141  30.8378472  49.1365830  26.1422797
  30.2541461  49.6375037  25.7300364  31.1582766  48.6295386  25.5087120
  30.7991648  49.1357665  25.9881304  23.3773271  48.0506425  16.4181472
  24.1988966  48.2204738  16.1763167  22.9142922  48.2053686  15.6947769
  23.4304434  48.0988158  16.2753116  21.9668603  46.0449187  27.1979901
  22.5113016  45.7040314  27.7884242  22.0205539  46.9034649  27.3401185
  22.0557723  46.1204447  27.3061774  17.7799162  59.8065603  24.0718709
  18.3844019  59.7661438  23.4432529  17.5726475  60.6536755  24.1022764
  17.8388059  59.9253606  23.9834825  27.5942934  62.0731549  25.2880946
  28.4141308  61.9294515  25.5497241  27.3137012  62.6977747  25.8297384
  27.6739678  62.1441901  25.4068885  13.0150444  58.7900221  23.9417632
  12.9174722  57.9796492  24.2507688  13.7979314  58.7692014  23.5563900
  13.1166581  58.6667311  23.9304495  44.0656585  69.7296400  18.2523822
  44.0350589  70.5841037  18.4242092  44.6637933  69.4291693  18.8109966
  44.1493742  69.8112897  18.3598625  37.2656269  68.8172051  23.0076753
  36.4094165  68.9780549  23.0585870  37.3123923  67.9464115  23.0281814
  37.1455381  68.7122853  23.0182819  31.6497409  78.3534769  18.7713984
  30.8980309  77.9750307  18.5430029  32.0983421  78.3853203  18.0232795
  31.6047076  78.3020376  18.6271486  40.5749986  75.0858577  32.6137209
  41.2816753  74.5910608  32.7424143  40.7637921  75.5267658  31.8839867
  40.7077892  75.0776927  32.5246254  37.1022369  78.7760139  14.1999531
  36.7673737  79.4537060  13.7643754  37.6149239  78.3865450  13.6116403
  37.1287950  78.8184717  14.0486323  36.6426660  80.7274407  20.1410643
  37.0266040  81.2961306  19.6015418  36.5785802  80.0023918  19.6616459
  36.6900088  80.7049871  19.9904506  40.1108090  70.8764095  25.6508404
  40.6564050  71.5549182  25.7102374  40.0524967  70.7351556  24.7909986
  40.1824005  70.9556097  25.5320465  33.2282165  78.3653161  21.0376757
  33.3292528  77.5553515  21.3473885  32.6323911  78.2710108  20.4076435
  33.1554704  78.2318189  20.9902995  41.8873159  72.3048702  16.5242132
  41.7712685  73.0556388  16.9534270  42.6829046  72.0472656  16.7738219
  41.9877749  72.3783549  16.6246224  33.0682905  83.2830750  22.4391613
  33.7120360  83.7243914  22.8287771  33.3939160  82.4784177  22.3521872
  33.2114734  83.2295945  22.4837090  26.4247210  74.3873448  20.6629090
  26.1897394  73.5541100  20.5561359  26.5632850  74.6678114  19.8490291
  26.4102872  74.3056951  20.5271445  28.7237297  66.5559178  23.5613398
  28.1042329  65.9651826  23.3923413  28.6221161  67.1470614  22.9277721
  28.6174973  66.5563261  23.4418388  33.7703485  76.2942725  17.8111475
  34.0919326  76.8347933  17.2072783  34.4175581  75.7239497  17.9433764
  33.9129540  76.2901900  17.7418510  35.8205193  68.2958720  17.8945861
  36.5185357  68.4746848  18.3867325  36.1357525  67.7729060  17.2716251
  35.9700530  68.2452492  17.8747871  28.4506430  70.1011460  25.8056967
  28.3265127  70.6873906  26.4406786  29.1024715  69.6071656  26.1069242
  28.5280079  70.1150265  25.9442896  36.0093128  74.6829165  17.8825653
  36.4486764  74.0746266  18.3280426  35.8597791  74.3036539  17.1111118
  36.0514594  74.5367636  17.8344820  33.4764771  73.2773177  25.0844478
  34.1213774  72.7845620  24.7655427  33.7166548  73.4197964  25.9110557
  33.6075356  73.2250619  25.1594011  36.0150862  76.1228083  24.7351371
  36.2974105  75.3279489  24.5138127  36.7437023  76.6008670  24.7556432
  36.1640426  76.0762680  24.7054386  33.9932056  63.6651117  21.9767136
  33.6635386  64.1162260  21.3070835  33.3177058  63.5867280  22.5240142
  33.8442493  63.7202252  21.9590359  39.6102465  73.0356347  14.8356422
  39.5253760  73.8917313  14.9805991  40.0986848  72.7600671  15.5038581
  39.6691362  73.1213668  14.9558503  41.2008464  59.6536640  20.2216747
  40.8861905  60.3440118  20.6537169  40.6835406  59.5981422  19.5202247
  41.0772934  59.7471528  20.1813696  40.5420898  69.6541141  16.3354157
  40.0132369  69.8700774  16.9951463  41.0645918  70.3477279  16.2555126
  40.5409351  69.7884278  16.4209756  45.9968951  75.2287445  21.7087202
  45.1666654  75.4398089  21.8720618  45.9478203  74.4024500  21.4329485
  45.8675686  75.1377051  21.6924567  32.4320506  73.5504357  15.1361625
  31.8477721  74.0554389  15.5427489  32.0290601  73.3246744  14.3958217
  32.2859809  73.5912606  15.0866650  27.9864534  79.2659119  21.9385297
  27.5032113  79.9909608  21.9144880  28.7987853  79.5635249  22.0495454
  28.0355282  79.4161472  21.9512576  34.0578688  78.0591299  24.5435111
  33.5405630  77.6998714  23.9396419  34.7553080  77.5353474  24.5541177
  34.0844269  77.9288987  24.4565370  37.7142280  78.5086113  30.5051284
  37.8025626  78.3212254  31.3529494  38.1431993  77.8623543  30.1056131
  37.7904383  78.3849121  30.5723036  35.2812740  77.7917273  29.4868946
  34.7183575  77.3789883  30.0108608  36.0433764  77.7170179  29.9062090
  35.3107189  77.7194674  29.6261947  36.8897720  69.7970010  13.6130546
  37.1293724  70.0047993  12.8005889  37.2113561  68.9927518  13.7219490
  36.9734878  69.7084111  13.5091099  32.1988010  61.7263405  17.4590084
  32.9533978  62.0941722  17.2207134  32.0215545  62.1002960  18.2269263
  32.2842489  61.8361593  17.5374972  30.8408732  79.7815295  22.0905576
  31.5429311  79.2667284  22.1478333  30.7606215  80.1089446  22.8952452
  30.9332492  79.7529521  22.2178369  45.4922909  67.8757846  25.5037623
  44.6551330  67.9460033  25.7385217  45.4611140  67.8782341  24.6311925
  45.3641191  67.8868073  25.4097171  31.8887638  70.0190881  31.2185992
  32.0608142  69.9096776  32.0671273  32.4256996  70.6645287  30.9817184
  31.9932642  70.0982883  31.3091088  30.5545075  64.1333724  14.1568197
  30.3720648  64.3505605  13.3309189  31.4170688  64.2472737  14.2126811
  30.6549664  64.1823622  14.0422684  30.1659507  75.9721647  21.5991184
  31.0048406  76.2044579  21.6464946  30.1971276  75.1025958  21.5298220
  30.2941225  75.8778593  21.5955829  30.7912210  76.3922522  25.9004490
  31.3310435  76.2493653  26.5707862  30.1082156  76.7919273  26.2688516
  30.7704364  76.4302193  26.0538912  36.2344794  61.1360135  17.1917220
  36.9630955  60.9576090  16.7455377  36.3239687  61.9778215  17.4024399
  36.3551456  61.2344013  17.1570738  40.2153095  72.0713522  21.0949514
  40.9710610  72.5045037  21.1338423  40.3215419  71.4218292  21.6684150
  40.3423265  72.0391006  21.1847540  43.2533266  75.8986800  21.8451917
  42.8168498  75.9023542  22.6010889  42.9196181  76.5792299  21.4131495
  43.1395886  75.9999255  21.8932750  37.8262340  77.9395132  33.1695068
  38.6102756  78.0525980  33.5350810  37.6258934  77.1136270  33.3653754
  37.9128365  77.8341852  33.2529454  26.1949355  72.6122813  26.0538912
  25.9287770  71.7961929  26.2129902  26.2087919  72.6575968  25.1834427
  26.1574077  72.4979717  25.9492394  43.1730749  62.9400627  24.0881345
  43.8156657  63.0098732  24.6743261  43.4253770  62.2729850  23.5860887
  43.3052881  62.8526976  24.1008625  30.1007102  67.4107897  12.6690670
  29.3865279  67.1246076  13.0813102  30.5851071  67.7504523  13.3097057
  30.0666465  67.4189547  12.8246305  30.9447961  66.1501191  28.7005919
  30.2519758  65.6798171  28.9466651  31.5608289  65.9239495  29.2747626
  30.9332491  66.0468323  28.8215072  37.9832733  79.8505234  26.8161523
  37.1847979  79.6104735  27.0735392  38.4318744  79.9019627  27.5628571
  37.9307344  79.8227626  26.9646448  46.3877612  72.6167719  20.7371555
  47.0494046  72.0558388  20.6367463  45.7469024  72.1219750  21.0624246
  46.3906480  72.4604129  20.7703895  37.2754420  75.9137851  13.0452478
  37.6905568  75.5822875  12.3536974  36.4446350  75.6806753  12.9172615
  37.2142429  75.8309107  12.9243325  26.6042769  73.3981592  23.3350656
  26.4218342  73.3728478  22.4822948  27.3392438  73.8680530  23.3739565
  26.6856833  73.4642954  23.2148574  42.6742443  73.6333102  20.4783543
  42.9098032  73.7778301  19.6510394  42.8232007  74.3975510  20.8715057
  42.7308246  73.7672156  20.4147147  29.6688520  70.1166595  29.8432764
  30.3928493  70.1019625  30.3297659  29.7704657  70.8261950  29.3454733
  29.7906729  70.2191298  29.8411551  44.5032900  72.4734768  18.3153147
  44.8341117  73.0062408  17.7093242  45.0765988  72.5273656  18.9715098
  44.6366579  72.5604337  18.3230929  37.0433470  73.5965679  34.7081711
  36.2506451  73.9109191  34.8934331  37.1582397  73.8117148  33.8702496
  36.9428880  73.6749516  34.6120046  39.7164789  70.3199671  18.9976727
  39.8111643  71.0588965  19.4516353  39.0923632  69.8917146  19.4311292
  39.6373819  70.3660991  19.1284875  37.9717263  73.4985883  29.6467008
  38.5456124  72.8613127  29.8015572  37.8932066  73.4989966  28.7776666
  38.0450497  73.4050995  29.5413419  26.5713679  70.2775093  23.4849722
  27.1487182  70.1411543  24.1241968  25.8727741  69.8210877  23.7395307
  26.5534700  70.1897359  23.6172012  39.9687810  72.1648410  12.2313679
  39.8867973  72.2350597  13.0968666  40.6067531  72.7278154  12.0397420
  40.0507647  72.2587381  12.3303629  33.3280981  71.9309148  21.6988206
  33.0700225  71.0980883  21.6719505  33.3829464  72.1566761  20.8580706
  33.2980759  71.8406920  21.5708342  38.4082031  64.0337599  21.7992298
  37.7038358  63.5446784  21.9576217  38.4567006  64.0460073  20.9280743
  38.3112083  63.9627247  21.6931638  32.3015693  69.4846911  22.1853100
  31.7265285  69.6439079  22.8217061  31.9251370  68.8482320  21.7221551
  32.1618506  69.4144724  22.2107659  35.9688982  67.9570260  27.0445479
  35.5803415  67.5324478  26.3897670  35.3043680  68.2052410  27.5522505
  35.8135910  67.9308981  27.0233347  45.6112251  67.7145265  19.8193309
  45.3548816  66.9025206  19.6291192  46.4541565  67.7222832  19.5923496
  45.6978277  67.5957262  19.7578126  22.0472512  69.1286985  20.1997541
  22.1332764  68.7518854  20.9811071  22.6748310  68.7547431  19.7217499
  22.1529063  69.0172468  20.2443018  39.7915344  61.6544889  24.5569463
  40.1725855  60.9723060  24.9437337  38.9878628  61.3654491  24.3745127
  39.7291805  61.5111937  24.5873519  37.0727920  72.1868865  15.2422286
  37.8868559  72.4783757  15.1305057  37.0087062  71.5328727  14.6680579
  37.1830659  72.1334059  15.1411123  43.2937410  74.8694861  29.6551861
  43.0576048  74.0382926  29.5363922  43.9380639  74.8180468  30.2406706
  43.3532081  74.7392549  29.7237755  32.9435829  75.6590382  20.3694598
  33.5809775  75.4202130  20.9146391  33.3690900  75.8627541  19.6347758
  33.1011995  75.6541392  20.3411755  27.6348471  77.8978719  24.2528902
  27.6752616  78.1693570  23.4248681  28.1942995  78.4220627  24.6686690
  27.7231817  78.0154474  24.1920790  33.5838644  70.8792672  14.7069487
  33.9683796  70.6600379  15.4586032  33.3350264  71.7055617  14.8370564
  33.6040716  70.9690818  14.8370564  33.7507184  64.1599087  34.4232071
  33.4360625  64.9298650  34.1601634  33.4297117  63.5969343  33.8384298
  33.6566103  64.1909356  34.2973421  44.3173831  74.6539309  25.7180156
  44.0119648  75.3867366  26.0793471  43.5980047  74.2477239  25.4372942
  44.1661173  74.7021042  25.7293293  35.3257300  76.1362805  22.0488384
  35.3996309  75.9737977  22.9030234  36.1426807  76.3252994  21.8048866
  35.4573659  76.1399547  22.1386410  50.0175623  71.2932310  25.0448500
  49.9500123  71.3128269  24.1751087  50.0031286  72.1362637  25.2704171
  50.0054380  71.4206045  24.9500977  29.0863057  76.4820668  19.0782828
  28.2601175  76.7282405  18.9517106  29.1475048  76.4032748  19.9444886
  28.9737224  76.5065616  19.1871772  31.3039081  62.5489609  20.0378268
  30.4361506  62.6212208  20.1035877  31.5914285  63.3511687  20.2266243
  31.2178829  62.6783756  20.0753034  40.4271970  62.6967468  28.3689590
  41.1725562  62.5077278  27.9553015  40.0109274  63.2225706  27.8103446
  40.4756944  62.7469613  28.2254163  33.8661886  79.0997548  16.7801857
  34.1560185  78.7086529  16.0561084  34.5965367  79.2814253  17.2207133
  34.0168770  79.0691362  16.7384664  47.8034241  70.0676696  23.3195095
  48.3542162  69.4344765  23.5592187  47.7878356  70.5992089  24.0110599
  47.8819437  70.0525645  23.4573953  34.4556631  73.9015294  27.8654988
  33.9568325  74.6131061  27.9439876  35.2656856  74.2215960  27.8273150
  34.5012738  74.0542142  27.8711557  31.8067802  81.0764930  19.8462007
  31.5868097  80.7862285  20.6388674  31.5862324  80.4179885  19.3179920
  31.7415396  80.9364639  19.8850916  30.7184749  73.1638247  22.1117709
  30.4297998  72.5375718  22.6463436  31.5868097  73.1058534  22.1782389
  30.8045001  73.0625791  22.2008663  41.5062647  68.3073030  22.4299691
  41.1627413  67.5863365  22.7806940  41.6055689  68.0986881  21.5878049
  41.4704690  68.1697233  22.3571371  33.9735757  82.4494320  18.6292700
  34.6259816  81.9170762  18.8583726  33.2761366  82.0962972  19.0160574
  33.9666475  82.3183843  18.7204867  30.9217022  74.8033498  18.0360074
  31.6762990  75.1846537  18.2495536  30.3287635  75.2544641  18.4906770
  30.9453736  74.9262325  18.1342952  41.9675676  74.7698734  17.9723679
  42.5333708  75.4291944  17.8882222  41.3203579  75.1148432  18.4440081
  41.9554432  74.9180675  18.0296435  33.3823689  66.7596338  33.1617286
  32.5723465  67.0654118  33.0507129  33.8598376  67.4801920  33.2769870
  33.3327168  66.9110939  33.1624357  32.2415249  75.9742059  23.4100189
  31.7196002  76.1142351  24.0952054  32.6289269  75.2152723  23.6002307
  32.2218950  75.8827583  23.5401266  29.2306433  66.0247868  17.4795144
  28.9431229  65.6549138  16.7427091  29.9176901  66.4942723  17.2178849
  29.2895330  66.0394837  17.3310220  38.4382254  77.7137518  17.3960758
  38.1968930  76.9805379  16.9887823  38.6183587  78.2624375  16.7427091
  38.4289878  77.6859909  17.2390981  33.6681575  73.0046078  18.8081680
  33.4724357  73.6120813  18.2141983  33.8915920  72.3114022  18.3273354
  33.6716216  72.9923604  18.6497761  32.0660105  69.8900816  18.9262549
  32.7882756  70.0541974  18.4666355  31.5868097  70.6110481  18.8201888
  32.1023835  70.0199046  18.8428163  40.0253612  66.2264615  24.3059234
  39.1864713  66.2525894  24.0697497  40.0957979  66.8735350  24.8864580
  39.9122006  66.3260741  24.3568351  29.7167721  72.2958888  28.0316689
  30.2288818  72.5743142  27.3825448  29.4304064  73.0348182  28.3979502
  29.7502584  72.4461242  27.9906567  38.4722890  63.1249992  19.0386850
  39.1749243  62.9257740  18.5606808  38.2067079  62.3525934  19.3455693
  38.5369523  62.9812958  19.0132291  43.9011136  71.4332602  21.5920475
  43.8145111  71.5888028  22.4455254  43.4461616  72.0770677  21.2179880
  43.8214393  71.5508357  21.6627582  26.8034628  66.8029080  18.3280425
  26.9050764  67.6055242  18.6561400  27.5990514  66.6016416  18.0303506
  26.9362533  66.8914979  18.3315780  33.2351447  64.3885277  28.0917730
  33.0434644  64.4040411  28.9417154  34.0850043  64.5848951  28.0684385
  33.3327169  64.4199628  28.2141025  27.6198360  66.9176258  26.0701547
  27.4783851  66.0660199  26.1946055  27.9038923  66.9604919  25.2463753
  27.6406206  66.7976008  25.9669171  37.7736952  68.7543349  20.2146035
  37.5271666  68.6739100  21.0482824  38.1022075  67.9696817  20.0208562
  37.7858196  68.6269614  20.3093558  41.6685001  75.4626708  24.0032816
  41.5299360  76.1607754  24.5081559  40.8884999  75.3075364  23.6468998
  41.5328228  75.5426875  24.0259090  40.0063086  71.7623083  30.2555198
  40.0011124  70.8902900  30.2597624  40.7124080  71.9611253  29.7824654
  40.1108090  71.6626958  30.1862233  33.7333979  71.4900067  29.6269018
  33.8777355  72.0701275  28.9912128  34.0809628  71.8676364  30.3318873
  33.8061441  71.6320771  29.6368013  35.9053897  70.6890236  27.4094150
  35.1577211  70.8821250  27.0042428  36.0595422  69.8635455  27.1718271
  35.8176324  70.5955347  27.3139555  32.8061734  79.6802839  26.4930045
  32.9551298  79.1205755  25.8403449  33.5861736  79.7594841  26.8762564
  32.9435828  79.6088405  26.4526994  43.1638374  74.8204962  14.7649315
  42.7845182  74.0342100  14.7578605  42.5004619  75.3691819  14.6220960
  43.0096848  74.7849786  14.7430112  35.3315035  79.8517482  27.7714536
  35.2558706  79.1826293  28.3265324  35.2604894  80.5535270  28.2855202
  35.3095642  79.8562389  27.9291384  36.1455674  64.5840786  28.2989553
  36.6028288  65.3164761  28.4262346  36.2212002  64.1607252  29.0576809
  36.2246644  64.6298024  28.4290630  28.3888665  64.8306606  29.3878997
  27.8530854  64.2186964  29.7039764  28.4506430  65.4054742  30.0412664
  28.3184298  64.8253534  29.5314424  40.6183000  57.7630662  22.1683396
  40.7366568  58.2207125  21.4350699  40.4445175  56.9575923  21.8819614
  40.6102171  57.7124434  22.0184330  35.9885282  78.3718481  18.6038142
  36.7535173  78.1028125  18.2820806  35.8863372  77.8868491  19.3208204
  36.0866777  78.2608045  18.6617969  34.0238052  66.5742890  25.1431377
  33.2334126  66.3934350  25.4648713  34.4198674  65.7969843  25.1261672
  33.9654928  66.4330351  25.1883926  38.5103942  75.4030665  10.5838091
  39.2776928  75.4630790  10.1743943  38.0635251  74.8311106  10.0994409
  38.5577370  75.3267240  10.4515801  39.4081738  74.2085320  22.8690823
  38.7326740  73.9770553  23.3704210  39.4174114  73.6006503  22.2432928
  39.3100242  74.0844246  22.8506976  36.5375882  69.0503149  29.6254876
  36.4735023  69.9113106  29.4975013  36.6773070  68.7335143  28.8250428
  36.5491352  69.1303316  29.4883089  41.4098472  77.0650453  15.1001001
  41.4918310  77.8717439  14.7762452  41.8948215  77.0846412  15.8241775
  41.4935630  77.1871115  15.1587900  35.2194976  71.7435289  23.7671079
  34.7957225  71.9439788  23.0310098  35.0439831  70.8964137  23.8795379
  35.1305856  71.6484070  23.6744769  34.7206669  83.2585802  26.2292536
  35.2102600  82.5596591  26.0468201  34.1490902  82.9609672  26.8168594
  34.7091199  83.1112025  26.2893577  30.5077421  72.2387340  19.1999052
  30.6642040  72.1734143  20.0555044  30.8478014  73.0135893  18.9877731
  30.5810656  72.3436538  19.2953646  37.0456565  71.6145224  18.0692415
  37.5872111  71.1115605  18.5331035  37.3603124  71.5610418  17.2581900
  37.1720962  71.5324645  18.0176227  40.9173673  75.8247871  35.1819327
  41.7308538  75.5533020  35.3424460  40.7568639  75.5255411  34.3779523
  41.0143621  75.7402797  35.0864733  35.2143015  77.0062575  15.3532443
  35.2835835  76.1477114  15.4925443  35.9931470  77.2234456  15.0251468
  35.3395865  76.9115439  15.3249600  38.1945835  66.5081528  28.1214715
  38.4087804  65.8692442  27.5678069  37.5779734  66.9527352  27.6922577
  38.1351164  66.4791672  27.9765146  39.6050503  79.4300277  19.5668936
  39.2130294  79.1266992  18.8491802  39.7603575  80.2669367  19.3773890
  39.5704093  79.5084113  19.4325433  27.0811682  69.4222291  19.5159819
  27.4610647  69.8406836  18.8520086  26.5067047  70.0035746  19.8228662
  27.0523007  69.5700149  19.4636560  40.3584923  68.1170593  29.0598022
  39.5461604  67.8096484  29.1411195  40.8174857  67.6369594  29.6240735
  40.3065308  68.0007086  29.1552617  39.7690177  75.9950265  19.5074967
  39.4104832  76.1664908  20.2838999  39.2828888  76.4563471  18.9502965
  39.6448874  76.0889236  19.5400236  37.5860563  59.6181464  23.1102058
  36.7154121  59.5920185  23.0635368  37.8400905  59.4458656  22.2927904
  37.4954123  59.5891608  22.9822195  34.5578543  71.6749431  12.0475201
  34.8471068  72.4514313  12.3218775  34.6450342  71.1638162  12.7489700
  34.6132799  71.7141349  12.1917699  37.4538430  69.5230665  33.8426725
  37.9238061  70.1472781  34.2294599  37.5000310  68.8547640  34.4019939
  37.5306306  69.5165345  33.9826796  34.6109704  61.6287692  24.5675529
  34.0948192  60.9367884  24.6927108  34.0503633  62.2958469  24.5138127
  34.4516217  61.6250950  24.5781595  36.6801937  62.1680652  26.3968381
  36.2933690  62.1929684  27.1781911  36.1934875  61.6022331  25.9442898
  36.5514446  62.0876403  26.4456285  40.9294917  76.8854161  30.4542168
  41.5674637  76.3914357  30.1204624  40.2869008  76.8131562  29.8694395
  40.9289143  76.8013170  30.3184523  42.6551917  68.7343307  25.0208083
  42.2279525  68.6469656  24.2656183  42.0177970  68.8421083  25.6062927
  42.4981524  68.7375967  24.9953525  36.3459079  59.0547638  28.6878641
  36.9752197  59.5907938  28.4099711  36.5144942  58.9624997  29.5392207
  36.4636874  59.1209000  28.7727169  36.1472994  63.8418833  30.9605053
  36.9746423  63.5703981  31.0163667  36.1680840  64.6379674  31.3168871
  36.2725844  63.9198587  31.0220236  40.9849173  77.5773970  27.0947524
  41.7741552  77.2263034  27.2149606  41.1592771  78.3910358  26.8324158
  41.1269455  77.6459827  27.0735392  30.7242484  70.9882695  24.1475313
  29.8830490  70.8886570  24.3554207  30.9332492  71.7578176  24.4989634
  30.6307176  71.0874739  24.2302628  28.2018051  68.6102232  21.9760064
  27.8074748  68.6845244  21.2010174  27.6458168  68.9960179  22.5268426
  28.0620863  68.6784007  21.9427724  39.8382998  61.5883526  21.6563943
  40.0432591  61.5205834  22.5020940  39.5109422  62.3942348  21.5885120
  39.8198245  61.6969467  21.7723598  34.5359149  68.9164095  23.3972911
  34.2322286  68.3620083  23.9983318  33.8338569  69.0956305  22.9100945
  34.3875358  68.8608877  23.4142616  33.5925246  66.2264614  17.9617613
  33.8684980  65.5083527  17.5495180  34.1923915  66.8249534  17.7538719
  33.7218510  66.2084985  17.8698374  32.5977500  76.1313815  28.1045009
  32.4897855  76.1415877  28.9707067  32.8073281  76.9568596  27.9149962
  32.6127611  76.2554890  28.2049100  43.0916685  62.1415291  21.1366708
  42.4790999  62.6285693  21.5220440  43.1880860  61.4658781  21.6804359
  43.0154583  62.1133599  21.2745567  37.0935766  63.8978132  16.2364208
  37.5479513  64.0688692  16.9612052  37.5675812  63.2846242  15.8361983
  37.2304086  63.8329017  16.2837969  30.6151292  73.3826458  25.5666946
  30.0239225  74.0235956  25.5369961  31.3772315  73.8064075  25.5398246
  30.6399552  73.5402296  25.5582093  31.0111914  64.5428455  26.2334964
  31.4713396  64.6167385  26.9710088  31.0568021  65.3409709  25.8834785
  31.0862470  64.6722603  26.2907720  32.6595264  65.2095150  30.8006991
  32.2680829  64.5628497  31.2362769  32.8281127  65.8006586  31.4201246
  32.6266175  65.2009418  30.9569697  46.7341713  73.2132227  26.5644224
  46.7924837  73.6618876  27.3104201  46.1008181  73.6231040  26.1274304
  46.6493008  73.3405962  26.6096773  40.3740808  78.8335769  22.9998971
  40.1760497  79.3226584  22.3055182  39.7528519  79.0377011  23.5783104
  40.2528372  78.9352308  22.9822194  34.4348786  70.6020666  17.3409215
  35.1790831  70.9894942  17.5792165  34.5809482  69.7578091  17.5049703
  34.5659371  70.5351139  17.4003185  36.3528362  62.3970925  22.3741076
  35.5064407  62.5693733  22.2482426  36.3499494  61.5920269  22.7106905
  36.2275512  62.3031954  22.4052203  37.4226662  66.1746139  23.2403134
  36.9486616  65.6487901  23.7508445  37.7944798  65.6275612  22.6717996
  37.4076551  66.0162136  23.2318281  27.7999692  68.1717646  28.6086680
  28.6625305  68.0713355  28.5224010  27.4691475  67.5912355  28.0472252
  27.8784889  68.0709273  28.5132086  43.6863393  71.2348515  24.6509915
  43.4461616  70.3954930  24.6552341  44.1655400  71.3148682  25.3750688
  43.7215576  71.1229915  24.7584717  39.3510162  67.0682694  16.3028888
  38.8233180  67.1511438  15.6134597  39.8105870  67.8100565  16.2993533
  39.3412012  67.1903356  16.2003583  45.6868580  68.0149972  22.6039174
  45.4478350  67.9745806  21.7659958  45.8502481  68.8621124  22.7304895
  45.6758883  68.1342057  22.4992656  42.2914610  72.3999922  28.5344219
  43.0148809  71.9472448  28.3555239  42.0264572  72.6804587  27.7516547
  42.3595883  72.3750890  28.3922934  31.1601478  66.9960095  25.2697098
  30.5354548  67.0078487  24.6623051  30.8247073  67.4720270  25.9188338
  31.0186970  67.0678612  25.2753667  31.3443227  65.3385214  11.3269783
  30.9956031  65.9904939  11.7901333  30.8639673  65.3242327  10.5993654
  31.2213471  65.4328267  11.2880874  27.8727154  75.0560555  26.7100862
  27.3427078  74.3652994  26.7595837  28.1452247  75.0470741  25.8813571
  27.8351876  74.9527687  26.5948278  38.9047244  75.6386258  15.4338545
  39.6281443  76.1044371  15.2903118  38.4647835  75.7059867  14.6836142
  38.9462936  75.7170094  15.3023326  38.0733399  72.4983800  26.6839234
  37.4590392  71.9541850  26.9787869  38.5900684  71.9848036  26.2045050
  38.0589062  72.3420209  26.6563462  37.3129697  73.5688070  24.4183533
  36.8857305  72.9437788  23.9848968  37.3054641  73.2862992  25.2442540
  37.2488838  73.4340850  24.4763360  30.4292224  68.6053243  27.4871967
  30.5885710  67.8496567  27.8923689  30.2485117  69.1544182  28.1412704
  30.4257583  68.5747057  27.6434673  38.3712527  60.7714478  28.0422756
  37.8753088  60.9678153  27.3514323  39.1281589  61.1707147  27.8711558
  38.4099351  60.8592212  27.9142893  35.6415406  64.4456824  24.6326067
  35.6657893  63.9116937  23.9438847  35.8926880  63.9374133  25.2951657
  35.6825325  64.2917728  24.6290711  23.1522996  71.7288319  24.0669211
  23.0466445  71.6835164  23.2021295  22.4023216  72.0742100  24.3483496
  23.0258599  71.7729228  23.9806540  31.9216728  63.1727643  24.0131811
  31.9615100  63.6736849  24.7266518  31.0966393  63.2638036  23.7437734
  31.8056254  63.2609459  24.0782349  34.1046341  72.7388383  32.1152106
  33.2541972  72.8760097  32.2509750  34.2674469  72.0052161  32.5599807
  34.0030205  72.6502484  32.2007705  33.3431092  69.6888152  26.3105710
  32.5123021  69.8561970  26.1040958  33.2882609  69.3124103  27.0954595
  33.2120507  69.6577884  26.3954238  31.1514875  63.1797045  31.9462121
  31.7767578  62.6359178  32.2191553  30.6965355  62.6991963  31.3769911
  31.1763136  63.0286527  31.9023715  31.7167136  67.9643744  16.8395828
  31.8570097  68.4616208  17.5424469  32.2149668  67.2630038  16.9810041
  31.8108217  67.9345723  16.9647407  31.7467358  68.8310855  14.1688405
  32.3812437  69.4271280  14.1037866  31.8292969  68.5314313  14.9834275
  31.8523909  68.8751763  14.2791491  44.7249924  71.3626332  27.0374769
  45.3167764  72.0023583  27.0692967  45.1608918  70.6649369  27.3266836
  44.8768355  71.3544683  27.0855601  33.3246341  64.7624830  14.1433847
  33.6462182  64.2827913  13.4893109  33.5873285  65.5724476  13.9524658
  33.4112366  64.8114728  14.0189339  36.5543314  75.7843705  27.6632663
  36.0468405  76.3379552  28.1073293  36.2569960  75.8451995  26.8451437
  36.4348199  75.8750016  27.6081119  38.7205496  64.1497024  26.5057326
  39.1460567  63.6969551  25.8940852  38.1062489  63.5957095  26.7822113
  38.6934141  64.0011001  26.4562351  28.2520346  71.0278696  17.4377951
  28.7612575  71.6243203  17.8189256  28.7254618  70.7604669  16.7554370
  28.3963722  71.0764511  17.3932473  39.1651094  79.7006962  15.5936606
  38.4480404  79.5267825  15.1283843  39.8157832  79.4659535  15.0612092
  39.1552944  79.6402755  15.4465824  37.1599719  60.6212124  19.9147903
  36.5168037  60.4709771  20.4833041  36.8199126  60.3754469  19.1497007
  37.0144796  60.5624247  19.8850918  41.7499065  68.5771551  19.3377911
  41.0790255  69.1201253  19.2090977  42.4438815  69.0466406  19.0959606
  41.7527933  68.7269822  19.2833439  35.7985799  80.7168263  24.5689670
  35.5751453  79.9587092  24.9373696  35.3095642  80.7466284  23.8470109
  35.6929248  80.6090488  24.5166410  41.9127193  65.0327435  22.2468284
  42.2654803  64.6057158  22.9214083  41.0541994  64.9478278  22.3769361
  41.8376637  64.9572175  22.3663295  30.6110878  67.6634954  20.3051131
  29.8922867  68.0799087  20.5723995  30.9823240  68.2289193  19.7542769
  30.5602809  67.8084236  20.2633938  39.9110458  68.2962803  26.1953127
  39.8908386  68.1146098  27.0487906  39.9589659  69.1674822  26.1712710
  39.9145099  68.3979342  26.3176421  37.8556788  74.8849995  32.1201603
  37.8152643  74.2399672  31.5346759  38.6680107  74.8286613  32.4327015
  37.9699942  74.7808962  32.0798552  34.4464256  80.9368721  22.0226754
  34.0324654  80.2742851  21.6330596  35.1311630  81.0846580  21.5022448
  34.4862628  80.8609379  21.8883251  37.8129550  80.0958806  22.7750371
  37.4145833  80.2061077  22.0071191  37.1980770  80.3040873  23.3576931
  37.6628439  80.1432374  22.7481670  36.3857452  66.7032954  15.6424510
  35.7922291  67.0249951  15.0909077  36.4232730  65.8574050  15.4345617
  36.3031841  66.6257282  15.5307282  43.3451253  60.1545846  23.1752597
  42.8382117  59.4474986  23.1073774  44.1418686  59.8239035  23.3053674
  43.3878492  60.0018998  23.1851592  39.2615269  66.6612459  19.0726261
  39.0328962  66.6845160  18.2304619  39.5213345  65.8369926  19.1921271
  39.2661457  66.5428539  18.9651458  33.5434497  68.5146932  28.6751361
  33.0313400  67.9068115  29.0336392  33.3713993  69.2303524  29.1425337
  33.4424134  68.5310231  28.7967585  28.3900212  66.9584507  31.3253723
  28.2202802  67.6185882  30.7801929  27.9466162  67.1691068  32.0466212
  28.2999545  67.0870489  31.3515352  32.3160031  65.1989005  20.3680456
  32.7917397  65.5606085  19.7330637  31.8148631  65.8545473  20.6480599
  32.3125390  65.3483194  20.3157197  45.5471393  74.6710773  16.1593461
  45.9304998  75.4202129  16.3891558  44.7515506  74.9176593  15.9005450
  45.4865175  74.8180467  16.1551035  37.4203567  66.4371176  31.1153616
  37.9774998  66.2084986  30.4832082  37.0964632  67.1976842  30.8388829
  37.4549978  66.5155013  30.9810114  25.2902276  69.8631373  26.5842213
  24.7428996  69.1932018  26.7023081  26.0794654  69.4961221  26.6485680
  25.3254460  69.7096359  26.6110913  35.1386685  69.5238830  32.0805624
  35.8898012  69.8390507  32.3945178  35.3309261  69.3218001  31.2539545
  35.2778099  69.5406212  32.0049019  34.3586684  67.3430205  13.7353840
  34.7385649  67.3609834  12.9504955  33.6179280  67.7884194  13.6144688
  34.3055522  67.4111979  13.6017408  41.9871975  65.6512396  19.3229419
  41.9866201  65.4961053  20.1813695  41.7828155  66.4975383  19.2670805
  41.9571753  65.7533017  19.4417358  24.0489246  69.0752180  23.7388236
  23.8711007  68.6228789  24.4643151  23.7608268  69.8778342  23.9226713
  23.9802199  69.1274738  23.8731738  39.7112827  70.3309898  22.9765626
  40.2066492  69.6132893  22.9369646  38.9012603  70.0280696  22.8620113
  39.6656720  70.1807544  22.9539352  35.1571438  74.1807711  15.1262630
  34.3482761  73.8574385  15.0795940  35.6646347  73.4740933  15.0590879
  35.1121105  74.0289027  15.1092925  25.7861716  71.6079904  20.8509995
  24.9207235  71.5965595  20.7392766  25.8860531  71.4210127  21.6981134
  25.6735883  71.5785965  20.9598939  41.7764646  73.0813585  25.6642755
  42.2019717  72.5588007  25.1113180  41.4121566  73.6794423  25.1431378
  41.7851248  73.0923812  25.5051764  31.4118725  81.3777803  24.4240100
  31.7265284  82.1914191  24.4317882  31.8212139  80.9928022  25.0922259
  31.5186823  81.4406505  24.5244192  38.3643245  76.7947850  21.9943912
  38.8354423  77.5088112  22.1633897  38.7003424  76.1946600  22.5303782
  38.4838360  76.8119314  22.0976288  40.4520230  78.4049163  34.1735984
  40.5617195  77.6157724  34.5292731  40.7811126  78.3155099  33.3710322
  40.5172636  78.2755016  34.1078375  35.2812740  61.5675320  28.9502007
  35.4140646  60.7706314  29.2782982  35.6657893  62.0941723  29.5300283
  35.3569069  61.5275237  29.0845510  39.0017191  76.5865784  28.7571605
  38.4538137  75.9623667  28.4891670  39.4630220  76.7760056  28.0415684
  38.9884401  76.5224834  28.6122036  38.3545095  58.4905646  25.5483100
  37.5491059  58.3803376  25.8650938  38.2251831  58.5918102  24.6912966
  38.2165228  58.4889316  25.4691141  41.8111056  64.6551138  26.1422797
  41.2274045  65.1560345  25.7300364  42.1315350  64.1480694  25.5087120
  41.7724231  64.6542973  25.9881304  34.3505855  63.5691733  16.4181472
  35.1721549  63.7390046  16.1763167  33.8875506  63.7238994  15.6947769
  34.4037017  63.6173466  16.2753116  32.9401187  61.5634495  27.1979901
  33.4845600  61.2225622  27.7884242  32.9938123  62.4219957  27.3401185
  33.0290306  61.6389755  27.3061774  28.7531746  75.3250911  24.0718709
  29.3576603  75.2846745  23.4432529  28.5459058  76.1722063  24.1022764
  28.8120643  75.4438914  23.9834825  38.5675518  77.5916856  25.2880946
  39.3873892  77.4479822  25.5497241  38.2869595  78.2163055  25.8297384
  38.6472261  77.6627208  25.4068885  23.9883028  74.3085529  23.9417632
  23.8907306  73.4981800  24.2507688  24.7711898  74.2877322  23.5563900
  24.0899164  74.1852619  23.9304495  55.0389168  85.2481708  18.2523822
  55.0083172  86.1026345  18.4242092  55.6370517  84.9477001  18.8109966
  55.1226326  85.3298205  18.3598625  48.2388853  84.3357359  23.0076753
  47.3826748  84.4965857  23.0585870  48.2856507  83.4649423  23.0281814
  48.1187964  84.2308161  23.0182819  42.6229993  93.8720077  18.7713984
  41.8712892  93.4935615  18.5430029  43.0716004  93.9038511  18.0232795
  42.5779660  93.8205684  18.6271486  51.5482570  90.6043885  32.6137209
  52.2549337  90.1095916  32.7424143  51.7370505  91.0452966  31.8839867
  51.6810475  90.5962235  32.5246254  48.0754953  94.2945447  14.1999531
  47.7406321  94.9722368  13.7643754  48.5881823  93.9050758  13.6116403
  48.1020534  94.3370025  14.0486323  47.6159244  96.2459715  20.1410643
  47.9998623  96.8146614  19.6015418  47.5518385  95.5209226  19.6616459
  47.6632671  96.2235179  19.9904506  51.0840674  86.3949403  25.6508404
  51.6296634  87.0734490  25.7102374  51.0257550  86.2536864  24.7909986
  51.1556588  86.4741405  25.5320465  44.2014749  93.8838469  21.0376757
  44.3025112  93.0738823  21.3473885  43.6056494  93.7895416  20.4076435
  44.1287288  93.7503497  20.9902995  52.8605743  87.8234010  16.5242132
  52.7445269  88.5741696  16.9534270  53.6561629  87.5657963  16.7738219
  52.9610332  87.8968857  16.6246224  44.0415488  98.8016058  22.4391613
  44.6852944  99.2429222  22.8287771  44.3671744  97.9969485  22.3521872
  44.1847317  98.7481253  22.4837090  37.3979793  89.9058756  20.6629090
  37.1629978  89.0726408  20.5561359  37.5365434  90.1863421  19.8490291
  37.3835456  89.8242259  20.5271445  39.6969881  82.0744486  23.5613398
  39.0774912  81.4837134  23.3923413  39.5953744  82.6655922  22.9277721
  39.5907556  82.0748569  23.4418388  44.7436068  91.8128033  17.8111475
  45.0651909  92.3533241  17.2072783  45.3908165  91.2424805  17.9433764
  44.8862123  91.8087208  17.7418510  46.7937776  83.8144028  17.8945861
  47.4917941  83.9932156  18.3867325  47.1090109  83.2914368  17.2716251
  46.9433113  83.7637800  17.8747871  39.4239014  85.6196768  25.8056967
  39.2997710  86.2059214  26.4406786  40.0757298  85.1256964  26.1069242
  39.5012663  85.6335573  25.9442896  46.9825712  90.2014473  17.8825653
  47.4219347  89.5931574  18.3280426  46.8330374  89.8221847  17.1111118
  47.0247177  90.0552944  17.8344820  44.4497355  88.7958485  25.0844478
  45.0946357  88.3030928  24.7655427  44.6899132  88.9383272  25.9110557
  44.5807940  88.7435927  25.1594011  46.9883446  91.6413391  24.7351371
  47.2706689  90.8464797  24.5138127  47.7169606  92.1193978  24.7556432
  47.1373010  91.5947988  24.7054386  44.9664640  79.1836425  21.9767136
  44.6367970  79.6347568  21.3070835  44.2909642  79.1052588  22.5240142
  44.8175076  79.2387560  21.9590359  50.5835048  88.5541654  14.8356422
  50.4986343  89.4102621  14.9805991  51.0719431  88.2785979  15.5038581
  50.6423945  88.6398976  14.9558503  52.1741048  75.1721948  20.2216747
  51.8594489  75.8625426  20.6537169  51.6567989  75.1166730  19.5202247
  52.0505518  75.2656836  20.1813696  51.5153481  85.1726449  16.3354157
  50.9864953  85.3886082  16.9951463  52.0378501  85.8662587  16.2555126
  51.5141934  85.3069586  16.4209756  56.9701534  90.7472753  21.7087202
  56.1399237  90.9583397  21.8720618  56.9210787  89.9209808  21.4329485
  56.8408270  90.6562359  21.6924567  43.4053089  89.0689665  15.1361625
  42.8210304  89.5739697  15.5427489  43.0023184  88.8432052  14.3958217
  43.2592393  89.1097914  15.0866650  38.9597118  94.7844427  21.9385297
  38.4764696  95.5094916  21.9144880  39.7720436  95.0820557  22.0495454
  39.0087866  94.9346780  21.9512576  45.0311272  93.5776607  24.5435111
  44.5138214  93.2184022  23.9396419  45.7285663  93.0538782  24.5541177
  45.0576853  93.4474295  24.4565370  48.6874864  94.0271421  30.5051284
  48.7758210  93.8397562  31.3529494  49.1164576  93.3808851  30.1056131
  48.7636966  93.9034429  30.5723036  46.2545324  93.3102581  29.4868946
  45.6916158  92.8975191  30.0108608  47.0166347  93.2355487  29.9062090
  46.2839772  93.2379982  29.6261947  47.8630304  85.3155318  13.6130546
  48.1026307  85.5233301  12.8005889  48.1846145  84.5112826  13.7219490
  47.9467462  85.2269419  13.5091099  43.1720594  77.2448713  17.4590084
  43.9266562  77.6127030  17.2207134  42.9948128  77.6188268  18.2269263
  43.2575072  77.3546901  17.5374972  41.8141315  95.3000602  22.0905576
  42.5161894  94.7852592  22.1478333  41.7338798  95.6274754  22.8952452
  41.9065076  95.2714829  22.2178369  56.4655493  83.3943154  25.5037623
  55.6283914  83.4645341  25.7385217  56.4343724  83.3967649  24.6311925
  56.3373775  83.4053381  25.4097171  42.8620222  85.5376189  31.2185992
  43.0340725  85.4282084  32.0671273  43.3989579  86.1830595  30.9817184
  42.9665226  85.6168191  31.3091088  41.5277659  79.6519032  14.1568197
  41.3453232  79.8690913  13.3309189  42.3903272  79.7658045  14.2126811
  41.6282248  79.7008930  14.0422684  41.1392091  91.4906954  21.5991184
  41.9780990  91.7229887  21.6464946  41.1703860  90.6211266  21.5298220
  41.2673808  91.3963901  21.5955829  41.7644794  91.9107830  25.9004490
  42.3043018  91.7678961  26.5707862  41.0814740  92.3104580  26.2688516
  41.7436947  91.9487501  26.0538912  47.2077378  76.6545443  17.1917220
  47.9363538  76.4761398  16.7455377  47.2972271  77.4963523  17.4024399
  47.3284040  76.7529321  17.1570738  51.1885678  87.5898830  21.0949514
  51.9443193  88.0230345  21.1338423  51.2948003  86.9403600  21.6684150
  51.3155849  87.5576314  21.1847540  54.2265850  91.4172108  21.8451917
  53.7901081  91.4208850  22.6010889  53.8928765  92.0977607  21.4131495
  54.1128469  91.5184563  21.8932750  48.7994923  93.4580440  33.1695068
  49.5835340  93.5711288  33.5350810  48.5991518  92.6321577  33.3653754
  48.8860949  93.3527160  33.2529454  37.1681939  88.1308120  26.0538912
  36.9020354  87.3147237  26.2129902  37.1820503  88.1761276  25.1834427
  37.1306661  88.0165025  25.9492394  54.1463332  78.4585935  24.0881345
  54.7889241  78.5284040  24.6743261  54.3986353  77.7915158  23.5860887
  54.2785465  78.3712284  24.1008625  41.0739686  82.9293205  12.6690670
  40.3597863  82.6431384  13.0813102  41.5583654  83.2689831  13.3097057
  41.0399049  82.9374855  12.8246305  41.9180545  81.6686499  28.7005919
  41.2252342  81.1983478  28.9466651  42.5340872  81.4424803  29.2747626
  41.9065075  81.5653631  28.8215072  48.9565316  95.3690542  26.8161523
  48.1580562  95.1290042  27.0735392  49.4051328  95.4204935  27.5628571
  48.9039928  95.3412934  26.9646448  57.3610196  88.1353027  20.7371555
  58.0226630  87.5743696  20.6367463  56.7201608  87.6405058  21.0624246
  57.3639063  87.9789436  20.7703895  48.2487003  91.4323159  13.0452478
  48.6638152  91.1008183  12.3536974  47.4178933  91.1992061  12.9172615
  48.1875012  91.3494415  12.9243325  37.5775352  88.9166900  23.3350656
  37.3950925  88.8913786  22.4822948  38.3125021  89.3865838  23.3739565
  37.6589416  88.9828262  23.2148574  53.6475026  89.1518410  20.4783543
  53.8830616  89.2963609  19.6510394  53.7964590  89.9160818  20.8715057
  53.7040830  89.2857464  20.4147147  40.6421104  85.6351903  29.8432764
  41.3661076  85.6204933  30.3297659  40.7437240  86.3447258  29.3454733
  40.7639313  85.7376606  29.8411551  55.4765483  87.9920076  18.3153147
  55.8073700  88.5247716  17.7093242  56.0498571  88.0458964  18.9715098
  55.6099162  88.0789645  18.3230929  48.0166053  89.1150987  34.7081711
  47.2239034  89.4294499  34.8934331  48.1314980  89.3302456  33.8702496
  47.9161464  89.1934824  34.6120046  50.6897372  85.8384978  18.9976727
  50.7844227  86.5774273  19.4516353  50.0656216  85.4102454  19.4311292
  50.6106402  85.8846299  19.1284875  48.9449846  89.0171191  29.6467008
  49.5188708  88.3798435  29.8015572  48.8664650  89.0175273  28.7776666
  49.0183081  88.9236302  29.5413419  37.5446263  85.7960401  23.4849722
  38.1219765  85.6596851  24.1241968  36.8460324  85.3396185  23.7395307
  37.5267284  85.7082667  23.6172012  50.9420394  87.6833718  12.2313679
  50.8600556  87.7535905  13.0968666  51.5800114  88.2463462  12.0397420
  51.0240231  87.7772689  12.3303629  44.3013565  87.4494456  21.6988206
  44.0432809  86.6166191  21.6719505  44.3562048  87.6752069  20.8580706
  44.2713343  87.3592227  21.5708342  49.3814615  79.5522907  21.7992298
  48.6770942  79.0632092  21.9576217  49.4299589  79.5645381  20.9280743
  49.2844666  79.4812555  21.6931638  43.2748277  85.0032219  22.1853100
  42.6997868  85.1624387  22.8217061  42.8983953  84.3667628  21.7221551
  43.1351089  84.9330032  22.2107659  46.9421566  83.4755568  27.0445479
  46.5535998  83.0509786  26.3897670  46.2776264  83.7237718  27.5522505
  46.7868493  83.4494289  27.0233347  56.5844835  83.2330573  19.8193309
  56.3281400  82.4210514  19.6291192  57.4274149  83.2408140  19.5923496
  56.6710860  83.1142570  19.7578126  33.0205096  84.6472293  20.1997541
  33.1065348  84.2704162  20.9811071  33.6480893  84.2732739  19.7217499
  33.1261647  84.5357776  20.2443018  50.7647927  77.1730197  24.5569463
  51.1458439  76.4908368  24.9437337  49.9611211  76.8839799  24.3745127
  50.7024389  77.0297245  24.5873519  48.0460504  87.7054173  15.2422286
  48.8601143  87.9969065  15.1305057  47.9819645  87.0514035  14.6680579
  48.1563243  87.6519367  15.1411123  54.2669994  90.3880169  29.6551861
  54.0308631  89.5568233  29.5363922  54.9113223  90.3365776  30.2406706
  54.3264665  90.2577857  29.7237755  43.9168412  91.1775690  20.3694598
  44.5542359  90.9387438  20.9146391  44.3423484  91.3812849  19.6347758
  44.0744578  91.1726700  20.3411755  38.6081054  93.4164026  24.2528902
  38.6485200  93.6878878  23.4248681  39.1675579  93.9405935  24.6686690
  38.6964400  93.5339782  24.1920790  44.5571227  86.3977980  14.7069487
  44.9416380  86.1785686  15.4586032  44.3082847  87.2240925  14.8370564
  44.5773300  86.4876126  14.8370564  44.7239768  79.6784395  34.4232071
  44.4093209  80.4483958  34.1601634  44.4029700  79.1154651  33.8384298
  44.6298687  79.7094664  34.2973421  55.2906415  90.1724617  25.7180156
  54.9852232  90.9052674  26.0793471  54.5712630  89.7662547  25.4372942
  55.1393757  90.2206350  25.7293293  46.2989884  91.6548113  22.0488384
  46.3728892  91.4923284  22.9030234  47.1159390  91.8438302  21.8048866
  46.4306243  91.6584855  22.1386410  60.9908207  86.8117618  25.0448500
  60.9232707  86.8313577  24.1751087  60.9763869  87.6547945  25.2704171
  60.9786963  86.9391353  24.9500977  40.0595641  92.0005975  19.0782828
  39.2333758  92.2467713  18.9517106  40.1207632  91.9218056  19.9444886
  39.9469808  92.0250924  19.1871772  42.2771664  78.0674916  20.0378268
  41.4094090  78.1397516  20.1035877  42.5646869  78.8696995  20.2266243
  42.1911413  78.1969064  20.0753034  51.4004553  78.2152776  28.3689590
  52.1458145  78.0262586  27.9553015  50.9841858  78.7411014  27.8103446
  51.4489527  78.2654921  28.2254163  44.8394470  94.6182856  16.7801857
  45.1292768  94.2271837  16.0561084  45.5697951  94.7999561  17.2207133
  44.9901354  94.5876669  16.7384664  58.7766824  85.5862004  23.3195095
  59.3274746  84.9530073  23.5592187  58.7610939  86.1177397  24.0110599
  58.8552020  85.5710952  23.4573953  45.4289215  89.4200602  27.8654988
  44.9300909  90.1316369  27.9439876  46.2389439  89.7401268  27.8273150
  45.4745322  89.5727450  27.8711557  42.7800385  96.5950238  19.8462007
  42.5600681  96.3047593  20.6388674  42.5594907  95.9365193  19.3179920
  42.7147980  96.4549946  19.8850916  41.6917333  88.6823555  22.1117709
  41.4030581  88.0561026  22.6463436  42.5600681  88.6243842  22.1782389
  41.7777584  88.5811099  22.2008663  52.4795230  83.8258338  22.4299691
  52.1359996  83.1048673  22.7806940  52.5788273  83.6172189  21.5878049
  52.4437273  83.6882541  22.3571371  44.9468341  97.9679628  18.6292700
  45.5992399  97.4356070  18.8583726  44.2493950  97.6148280  19.0160574
  44.9399059  97.8369151  18.7204867  41.8949606  90.3218806  18.0360074
  42.6495574  90.7031845  18.2495536  41.3020219  90.7729949  18.4906770
  41.9186319  90.4447633  18.1342952  52.9408259  90.2884042  17.9723679
  53.5066292  90.9477252  17.8882222  52.2936163  90.6333740  18.4440081
  52.9287016  90.4365983  18.0296435  44.3556273  82.2781646  33.1617286
  43.5456049  82.5839426  33.0507129  44.8330960  82.9987228  33.2769870
  44.3059752  82.4296247  33.1624357  43.2147833  91.4927367  23.4100189
  42.6928586  91.6327659  24.0952054  43.6021853  90.7338031  23.6002307
  43.1951533  91.4012891  23.5401266  40.2039017  81.5433176  17.4795144
  39.9163812  81.1734446  16.7427091  40.8909485  82.0128031  17.2178849
  40.2627914  81.5580145  17.3310220  49.4114837  93.2322826  17.3960758
  49.1701513  92.4990687  16.9887823  49.5916170  93.7809683  16.7427091
  49.4022461  93.2045217  17.2390981  44.6414158  88.5231386  18.8081680
  44.4456941  89.1306121  18.2141983  44.8648504  87.8299330  18.3273354
  44.6448799  88.5108912  18.6497761  43.0392688  85.4086124  18.9262549
  43.7615340  85.5727282  18.4666355  42.5600681  86.1295789  18.8201888
  43.0756419  85.5384354  18.8428163  50.9986196  81.7449923  24.3059234
  50.1597296  81.7711202  24.0697497  51.0690563  82.3920658  24.8864580
  50.8854589  81.8446049  24.3568351  40.6900305  87.8144196  28.0316689
  41.2021402  88.0928450  27.3825448  40.4036647  88.5533490  28.3979502
  40.7235168  87.9646550  27.9906567  49.4455474  78.6435300  19.0386850
  50.1481827  78.4443048  18.5606808  49.1799663  77.8711242  19.3455693
  49.5102106  78.4998266  19.0132291  54.8743720  86.9517910  21.5920475
  54.7877694  87.1073336  22.4455254  54.4194199  87.5955985  21.2179880
  54.7946976  87.0693665  21.6627582  37.7767211  82.3214388  18.3280425
  37.8783348  83.1240550  18.6561400  38.5723098  82.1201724  18.0303506
  37.9095117  82.4100287  18.3315780  44.2084030  79.9070585  28.0917730
  44.0167227  79.9225719  28.9417154  45.0582626  80.1034259  28.0684385
  44.3059752  79.9384936  28.2141025  38.5930943  82.4361566  26.0701547
  38.4516435  81.5845507  26.1946055  38.8771507  82.4790227  25.2463753
  38.6138789  82.3161316  25.9669171  48.7469536  84.2728657  20.2146035
  48.5004250  84.1924408  21.0482824  49.0754659  83.4882124  20.0208562
  48.7590779  84.1454922  20.3093558  52.6417584  90.9812016  24.0032816
  52.5031944  91.6793062  24.5081559  51.8617582  90.8260672  23.6468998
  52.5060811  91.0612183  24.0259090  50.9795670  87.2808391  30.2555198
  50.9743708  86.4088208  30.2597624  51.6856663  87.4796560  29.7824654
  51.0840674  87.1812265  30.1862233  44.7066563  87.0085375  29.6269018
  44.8509939  87.5886583  28.9912128  45.0542211  87.3861672  30.3318873
  44.7794024  87.1506079  29.6368013  46.8786480  86.2075544  27.4094150
  46.1309794  86.4006558  27.0042428  47.0328005  85.3820763  27.1718271
  46.7908908  86.1140655  27.3139555  43.7794318  95.1988147  26.4930045
  43.9283882  94.6391063  25.8403449  44.5594320  95.2780149  26.8762564
  43.9168412  95.1273712  26.4526994  54.1370957  90.3390270  14.7649315
  53.7577766  89.5527408  14.7578605  53.4737203  90.8877127  14.6220960
  53.9829432  90.3035094  14.7430112  46.3047619  95.3702790  27.7714536
  46.2291290  94.7011600  28.3265324  46.2337478  96.0720578  28.2855202
  46.2828225  95.3747697  27.9291384  47.1188257  80.1026094  28.2989553
  47.5760871  80.8350069  28.4262346  47.1944586  79.6792560  29.0576809
  47.1979227  80.1483332  28.4290630  39.3621248  80.3491914  29.3878997
  38.8263438  79.7372272  29.7039764  39.4239013  80.9240050  30.0412664
  39.2916881  80.3438842  29.5314424  51.5915583  73.2815969  22.1683396
  51.7099151  73.7392433  21.4350699  51.4177759  72.4761231  21.8819614
  51.5834754  73.2309742  22.0184330  46.9617865  93.8903789  18.6038142
  47.7267757  93.6213433  18.2820806  46.8595955  93.4053799  19.3208204
  47.0599361  93.7793353  18.6617969  44.9970635  82.0928198  25.1431377
  44.2066710  81.9119658  25.4648713  45.3931258  81.3155151  25.1261672
  44.9387511  81.9515659  25.1883926  49.4836526  90.9215973  10.5838091
  50.2509511  90.9816098  10.1743943  49.0367835  90.3496414  10.0994409
  49.5309953  90.8452548  10.4515801  50.3814321  89.7270628  22.8690823
  49.7059323  89.4955861  23.3704210  50.3906698  89.1191811  22.2432928
  50.2832826  89.6029554  22.8506976  47.5108465  84.5688457  29.6254876
  47.4467607  85.4298414  29.4975013  47.6505653  84.2520451  28.8250428
  47.5223936  84.6488624  29.4883089  52.3831056  92.5835761  15.1001001
  52.4650893  93.3902747  14.7762452  52.8680798  92.6031720  15.8241775
  52.4668214  92.7056423  15.1587900  46.1927559  87.2620597  23.7671079
  45.7689808  87.4625096  23.0310098  46.0172415  86.4149445  23.8795379
  46.1038440  87.1669378  23.6744769  45.6939253  98.7771110  26.2292536
  46.1835183  98.0781899  26.0468201  45.1223485  98.4794980  26.8168594
  45.6823783  98.6297333  26.2893577  41.4810004  87.7572648  19.1999052
  41.6374623  87.6919451  20.0555044  41.8210597  88.5321201  18.9877731
  41.5543239  87.8621846  19.2953646  48.0189149  87.1330532  18.0692415
  48.5604694  86.6300913  18.5331035  48.3335708  87.0795726  17.2581900
  48.1453546  87.0509953  18.0176227  51.8906256  91.3433179  35.1819327
  52.7041122  91.0718328  35.3424460  51.7301223  91.0440719  34.3779523
  51.9876205  91.2588105  35.0864733  46.1875599  92.5247883  15.3532443
  46.2568419  91.6662422  15.4925443  46.9664054  92.7419764  15.0251468
  46.3128449  92.4300747  15.3249600  49.1678418  82.0266836  28.1214715
  49.3820388  81.3877750  27.5678069  48.5512318  82.4712660  27.6922577
  49.1083748  81.9976980  27.9765146  50.5783086  94.9485585  19.5668936
  50.1862878  94.6452300  18.8491802  50.7336158  95.7854674  19.3773890
  50.5436676  95.0269421  19.4325433  38.0544266  84.9407599  19.5159819
  38.4343231  85.3592144  18.8520086  37.4799631  85.5221054  19.8228662
  38.0255591  85.0885457  19.4636560  51.3317506  83.6355901  29.0598022
  50.5194188  83.3281792  29.1411195  51.7907441  83.1554902  29.6240735
  51.2797891  83.5192394  29.1552617  50.7422761  91.5135573  19.5074967
  50.3837416  91.6850216  20.2838999  50.2561472  91.9748779  18.9502965
  50.6181458  91.6074544  19.5400236  48.5593147  75.1366772  23.1102058
  47.6886705  75.1105493  23.0635368  48.8133488  74.9643964  22.2927904
  48.4686707  75.1076916  22.9822195  45.5311126  87.1934739  12.0475201
  45.8203651  87.9699621  12.3218775  45.6182925  86.6823470  12.7489700
  45.5865383  87.2326657  12.1917699  48.4271014  85.0415973  33.8426725
  48.8970645  85.6658089  34.2294599  48.4732894  84.3732948  34.4019939
  48.5038890  85.0350653  33.9826796  45.5842287  77.1473000  24.5675529
  45.0680776  76.4553192  24.6927108  45.0236216  77.8143777  24.5138127
  45.4248801  77.1436258  24.5781595  47.6534521  77.6865960  26.3968381
  47.2666274  77.7114992  27.1781911  47.1667458  77.1207639  25.9442898
  47.5247030  77.6061711  26.4456285  51.9027500  92.4039469  30.4542168
  52.5407221  91.9099665  30.1204624  51.2601592  92.3316870  29.8694395
  51.9021727  92.3198478  30.3184523  53.6284500  84.2528615  25.0208083
  53.2012109  84.1654964  24.2656183  52.9910553  84.3606391  25.6062927
  53.4714108  84.2561275  24.9953525  47.3191663  74.5732946  28.6878641
  47.9484781  75.1093246  28.4099711  47.4877525  74.4810305  29.5392207
  47.4369457  74.6394308  28.7727169  47.1205578  79.3604141  30.9605053
  47.9479007  79.0889289  31.0163667  47.1413424  80.1564982  31.3168871
  47.2458428  79.4383895  31.0220236  51.9581757  93.0959278  27.0947524
  52.7474135  92.7448342  27.2149606  52.1325355  93.9095666  26.8324158
  52.1002039  93.1645135  27.0735392  41.6975067  86.5068003  24.1475313
  40.8563074  86.4071878  24.3554207  41.9065075  87.2763484  24.4989634
  41.6039760  86.6060047  24.2302628  39.1750634  84.1287540  21.9760064
  38.7807332  84.2030552  21.2010174  38.6190751  84.5145487  22.5268426
  39.0353447  84.1969315  21.9427724  50.8115581  77.1068834  21.6563943
  51.0165174  77.0391142  22.5020940  50.4842005  77.9127656  21.5885120
  50.7930829  77.2154775  21.7723598  45.5091732  84.4349403  23.3972911
  45.2054870  83.8805391  23.9983318  44.8071153  84.6141612  22.9100945
  45.3607942  84.3794185  23.4142616  44.5657829  81.7449922  17.9617613
  44.8417564  81.0268835  17.5495180  45.1656499  82.3434842  17.7538719
  44.6951094  81.7270293  17.8698374  43.5710083  91.6499123  28.1045009
  43.4630438  91.6601185  28.9707067  43.7805865  92.4753904  27.9149962
  43.5860194  91.7740198  28.2049100  54.0649269  77.6600599  21.1366708
  53.4523582  78.1471001  21.5220440  54.1613444  76.9844089  21.6804359
  53.9887166  77.6318907  21.2745567  48.0668350  79.4163440  16.2364208
  48.5212096  79.5874000  16.9612052  48.5408396  78.8031550  15.8361983
  48.2036670  79.3514325  16.2837969  41.5883875  88.9011766  25.5666946
  40.9971808  89.5421264  25.5369961  42.3504899  89.3249383  25.5398246
  41.6132136  89.0587604  25.5582093  41.9844498  80.0613763  26.2334964
  42.4445980  80.1352693  26.9710088  42.0300605  80.8595017  25.8834785
  42.0595053  80.1907910  26.2907720  43.6327848  80.7280458  30.8006991
  43.2413413  80.0813805  31.2362769  43.8013711  81.3191894  31.4201246
  43.5998758  80.7194726  30.9569697  57.7074297  88.7317535  26.5644224
  57.7657421  89.1804184  27.3104201  57.0740764  89.1416348  26.1274304
  57.6225592  88.8591270  26.6096773  51.3473391  94.3521077  22.9998971
  51.1493080  94.8411892  22.3055182  50.7261103  94.5562319  23.5783104
  51.2260956  94.4537615  22.9822194  45.4081370  86.1205974  17.3409215
  46.1523415  86.5080250  17.5792165  45.5542066  85.2763399  17.5049703
  45.5391955  86.0536447  17.4003185  47.3260945  77.9156233  22.3741076
  46.4796990  78.0879041  22.2482426  47.3232078  77.1105577  22.7106905
  47.2008095  77.8217262  22.4052203  48.3959246  81.6931447  23.2403134
  47.9219200  81.1673209  23.7508445  48.7677381  81.1460920  22.6717996
  48.3809135  81.5347444  23.2318281  38.7732276  83.6902954  28.6086680
  39.6357889  83.5898663  28.5224010  38.4424059  83.1097663  28.0472252
  38.8517472  83.5894581  28.5132086  54.6595976  86.7533823  24.6509915
  54.4194199  85.9140238  24.6552341  55.1387983  86.8333990  25.3750688
  54.6948160  86.6415223  24.7584717  50.3242745  82.5868002  16.3028888
  49.7965764  82.6696746  15.6134597  50.7838453  83.3285873  16.2993533
  50.3144596  82.7088664  16.2003583  56.6601163  83.5335280  22.6039174
  56.4210933  83.4931114  21.7659958  56.8235065  84.3806432  22.7304895
  56.6491467  83.6527365  22.4992656  53.2647193  87.9185229  28.5344219
  53.9881392  87.4657756  28.3555239  52.9997156  88.1989895  27.7516547
  53.3328467  87.8936198  28.3922934  42.1334062  82.5145403  25.2697098
  41.5087132  82.5263795  24.6623051  41.7979657  82.9905578  25.9188338
  41.9919554  82.5863920  25.2753667  42.3175810  80.8570522  11.3269783
  41.9688615  81.5090247  11.7901333  41.8372256  80.8427635  10.5993654
  42.1946054  80.9513575  11.2880874  38.8459737  90.5745863  26.7100862
  38.3159662  89.8838302  26.7595837  39.1184831  90.5656048  25.8813571
  38.8084460  90.4712995  26.5948278  49.8779828  91.1571566  15.4338545
  50.6014027  91.6229678  15.2903118  49.4380419  91.2245175  14.6836142
  49.9195520  91.2355402  15.3023326  49.0465983  88.0169108  26.6839234
  48.4322976  87.4727158  26.9787869  49.5633268  87.5033344  26.2045050
  49.0321645  87.8605517  26.6563462  48.2862280  89.0873378  24.4183533
  47.8589888  88.4623096  23.9848968  48.2787224  88.8048300  25.2442540
  48.2221421  88.9526158  24.4763360  41.4024807  84.1238551  27.4871967
  41.5618294  83.3681875  27.8923689  41.2217701  84.6729490  28.1412704
  41.3990166  84.0932365  27.6434673  49.3445110  76.2899786  28.0422756
  48.8485671  76.4863461  27.3514323  50.1014172  76.6892455  27.8711558
  49.3831935  76.3777520  27.9142893  46.6147990  79.9642132  24.6326067
  46.6390477  79.4302245  23.9438847  46.8659463  79.4559441  25.2951657
  46.6557908  79.8103036  24.6290711  34.1255580  87.2473627  24.0669211
  34.0199029  87.2020472  23.2021295  33.3755800  87.5927408  24.3483496
  33.9991183  87.2914535  23.9806540  42.8949312  78.6912951  24.0131811
  42.9347684  79.1922157  24.7266518  42.0698977  78.7823344  23.7437734
  42.7788838  78.7794767  24.0782349  45.0778925  88.2573691  32.1152106
  44.2274555  88.3945405  32.2509750  45.2407053  87.5237469  32.5599807
  44.9762788  88.1687792  32.2007705  44.3163675  85.2073460  26.3105710
  43.4855605  85.3747278  26.1040958  44.2615193  84.8309411  27.0954595
  44.1853090  85.1763192  26.3954238  42.1247459  78.6982353  31.9462121
  42.7500162  78.1544486  32.2191553  41.6697939  78.2177271  31.3769911
  42.1495719  78.5471835  31.9023715  42.6899719  83.4829052  16.8395828
  42.8302680  83.9801516  17.5424469  43.1882252  82.7815346  16.9810041
  42.7840800  83.4531031  16.9647407  42.7199942  84.3496163  14.1688405
  43.3545021  84.9456588  14.1037866  42.8025552  84.0499621  14.9834275
  42.8256493  84.3937071  14.2791491  55.6982507  86.8811640  27.0374769
  56.2900348  87.5208891  27.0692967  56.1341502  86.1834677  27.3266836
  55.8500939  86.8729991  27.0855601  44.2978924  80.2810138  14.1433847
  44.6194766  79.8013221  13.4893109  44.5605868  81.0909784  13.9524658
  44.3844950  80.3300036  14.0189339  47.5275897  91.3029013  27.6632663
  47.0200988  91.8564860  28.1073293  47.2302543  91.3637303  26.8451437
  47.4080782  91.3935324  27.6081119  49.6938079  79.6682332  26.5057326
  50.1193151  79.2154859  25.8940852  49.0795073  79.1142403  26.7822113
  49.6666725  79.5196309  26.4562351  39.2252929  86.5464004  17.4377951
  39.7345159  87.1428511  17.8189256  39.6987202  86.2789977  16.7554370
  39.3696305  86.5949819  17.3932473  50.1383678  95.2192270  15.5936606
  49.4212987  95.0453133  15.1283843  50.7890415  94.9844843  15.0612092
  50.1285528  95.1588063  15.4465824  48.1332302  76.1397432  19.9147903
  47.4900620  75.9895078  20.4833041  47.7931709  75.8939777  19.1497007
  47.9877380  76.0809555  19.8850918  52.7231649  84.0956859  19.3377911
  52.0522839  84.6386561  19.2090977  53.4171399  84.5651714  19.0959606
  52.7260516  84.2455130  19.2833439  46.7718383  96.2353571  24.5689670
  46.5484037  95.4772400  24.9373696  46.2828226  96.2651592  23.8470109
  46.6661832  96.1275795  24.5166410  52.8859776  80.5512743  22.2468284
  53.2387386  80.1242466  22.9214083  52.0274578  80.4663586  22.3769361
  52.8109221  80.4757483  22.3663295  41.5843461  83.1820262  20.3051131
  40.8655450  83.5984395  20.5723995  41.9555824  83.7474501  19.7542769
  41.5335393  83.3269544  20.2633938  50.8843042  83.8148111  26.1953127
  50.8640969  83.6331406  27.0487906  50.9322243  84.6860130  26.1712710
  50.8877683  83.9164649  26.3176421  48.8289372  90.4035303  32.1201603
  48.7885227  89.7584980  31.5346759  49.6412690  90.3471921  32.4327015
  48.9432525  90.2994270  32.0798552  45.4196839  96.4554029  22.0226754
  45.0057238  95.7928159  21.6330596  46.1044214  96.6031888  21.5022448
  45.4595211  96.3794687  21.8883251  48.7862134  95.6144114  22.7750371
  48.3878417  95.7246385  22.0071191  48.1713353  95.8226181  23.3576931
  48.6361023  95.6617682  22.7481670  47.3590036  82.2218262  15.6424510
  46.7654875  82.5435259  15.0909077  47.3965313  81.3759358  15.4345617
  47.2764425  82.1442590  15.5307282  54.3183836  75.6731154  23.1752597
  53.8114701  74.9660294  23.1073774  55.1151270  75.3424343  23.3053674
  54.3611076  75.5204306  23.1851592  50.2347852  82.1797767  19.0726261
  50.0061545  82.2030468  18.2304619  50.4945928  81.3555234  19.1921271
  50.2394040  82.0613847  18.9651458  44.5167081  84.0332240  28.6751361
  44.0045984  83.4253423  29.0336392  44.3446577  84.7488832  29.1425337
  44.4156718  84.0495539  28.7967585  39.3632795  82.4769815  31.3253723
  39.1935386  83.1371190  30.7801929  38.9198745  82.6876376  32.0466212
  39.2732129  82.6055797  31.3515352  43.2892615  80.7174313  20.3680456
  43.7649981  81.0791393  19.7330637  42.7881214  81.3730781  20.6480599
  43.2857974  80.8668502  20.3157197  56.5203976  90.1896081  16.1593461
  56.9037582  90.9387437  16.3891558  55.7248090  90.4361901  15.9005450
  56.4597758  90.3365775  16.1551035  48.3936151  81.9556484  31.1153616
  48.9507581  81.7270294  30.4832082  48.0697216  82.7162150  30.8388829
  48.4282561  82.0340321  30.9810114  36.2634860  85.3816681  26.5842213
  35.7161579  84.7117326  26.7023081  37.0527238  85.0146528  26.6485680
  36.2987043  85.2281667  26.6110913  46.1119268  85.0424138  32.0805624
  46.8630595  85.3575814  32.3945178  46.3041845  84.8403309  31.2539545
  46.2510682  85.0591519  32.0049019  45.3319268  82.8615513  13.7353840
  45.7118233  82.8795142  12.9504955  44.5911864  83.3069502  13.6144688
  45.2788106  82.9297287  13.6017408  52.9604558  81.1697704  19.3229419
  52.9598785  81.0146361  20.1813695  52.7560738  82.0160691  19.2670805
  52.9304336  81.2718325  19.4417358  35.0221829  84.5937488  23.7388236
  34.8443590  84.1414097  24.4643151  34.7340851  85.3963650  23.9226713
  34.9534782  84.6460046  23.8731738  50.6845410  85.8495206  22.9765626
  51.1799076  85.1318201  22.9369646  49.8745186  85.5466003  22.8620113
  50.6389304  85.6992852  22.9539352  46.1304022  89.6993019  15.1262630
  45.3215345  89.3759693  15.0795940  46.6378931  88.9926241  15.0590879
  46.0853689  89.5474335  15.1092925  36.7594299  87.1265212  20.8509995
  35.8939819  87.1150903  20.7392766  36.8593115  86.9395435  21.6981134
  36.6468466  87.0971273  20.9598939  52.7497229  88.5998893  25.6642755
  53.1752301  88.0773315  25.1113180  52.3854149  89.1979731  25.1431378
  52.7583832  88.6109120  25.5051764  42.3851309  96.8963111  24.4240100
  42.6997868  97.7099499  24.4317882  42.7944722  96.5113329  25.0922259
  42.4919407  96.9591813  24.5244192  49.3375829  92.3133158  21.9943912
  49.8087007  93.0273420  22.1633897  49.6736007  91.7131908  22.5303782
  49.4570944  92.3304622  22.0976288  51.4252813  93.9234471  34.1735984
  51.5349779  93.1343031  34.5292731  51.7543710  93.8340407  33.3710322
  51.4905219  93.7940324  34.1078375  46.2545324  77.0860628  28.9502007
  46.3873229  76.2891622  29.2782982  46.6390476  77.6127031  29.5300283
  46.3301653  77.0460545  29.0845510  49.9749775  92.1051092  28.7571605
  49.4270721  91.4808975  28.4891670  50.4362804  92.2945364  28.0415684
  49.9616984  92.0410142  28.6122036  49.3277679  74.0090954  25.5483100
  48.5223643  73.8988684  25.8650938  49.1984414  74.1103410  24.6912966
  49.1897812  74.0074624  25.4691141  52.7843639  80.1736446  26.1422797
  52.2006628  80.6745653  25.7300364  53.1047933  79.6666002  25.5087120
  52.7456815  80.1728281  25.9881304  45.3238439  79.0877041  16.4181472
  46.1454133  79.2575354  16.1763167  44.8608089  79.2424302  15.6947769
  45.3769601  79.1358774  16.2753116  43.9133770  77.0819803  27.1979901
  44.4578183  76.7410930  27.7884242  43.9670706  77.9405265  27.3401185
  44.0022890  77.1575063  27.3061774  39.7264329  90.8436219  24.0718709
  40.3309187  90.8032053  23.4432529  39.5191642  91.6907371  24.1022764
  39.7853226  90.9624222  23.9834825  49.5408101  93.1102164  25.2880946
  50.3606475  92.9665130  25.5497241  49.2602179  93.7348363  25.8297384
  49.6204845  93.1812516  25.4068885  34.9615611  89.8270837  23.9417632
  34.8639890  89.0167108  24.2507688  35.7444481  89.8062630  23.5563900
  35.0631748  89.7037927  23.9304495  66.0121752 100.7667016  18.2523822
  65.9815756 101.6211653  18.4242092  66.6103100 100.4662309  18.8109966
  66.0958910 100.8483513  18.3598625  59.2121437  99.8542667  23.0076753
  58.3559332 100.0151165  23.0585870  59.2589090  98.9834731  23.0281814
  59.0920548  99.7493469  23.0182819  53.5962576 109.3905385  18.7713984
  52.8445476 109.0120923  18.5430029  54.0448588 109.4223819  18.0232795
  53.5512243 109.3390992  18.6271486  62.5215153 106.1229193  32.6137209
  63.2281920 105.6281223  32.7424143  62.7103089 106.5638274  31.8839867
  62.6543059 106.1147543  32.5246254  59.0487536 109.8130754  14.1999531
  58.7138905 110.4907676  13.7643754  59.5614407 109.4236066  13.6116403
  59.0753117 109.8555333  14.0486323  58.5891827 111.7645023  20.1410643
  58.9731207 112.3331922  19.6015418  58.5250969 111.0394533  19.6616459
  58.6365255 111.7420487  19.9904506  62.0573258 101.9134711  25.6508404
  62.6029218 102.5919798  25.7102374  61.9990134 101.7722172  24.7909986
  62.1289172 101.9926713  25.5320465  55.1747332 109.4023777  21.0376757
  55.2757695 108.5924131  21.3473885  54.5789078 109.3080724  20.4076435
  55.1019871 109.2688805  20.9902995  63.8338326 103.3419318  16.5242132
  63.7177852 104.0927004  16.9534270  64.6294213 103.0843271  16.7738219
  63.9342916 103.4154165  16.6246224  55.0148072 114.3201366  22.4391613
  55.6585528 114.7614530  22.8287771  55.3404328 113.5154792  22.3521872
  55.1579901 114.2666561  22.4837090  48.3712377 105.4244064  20.6629090
  48.1362561 104.5911716  20.5561359  48.5098017 105.7048729  19.8490291
  48.3568039 105.3427567  20.5271445  50.6702464  97.5929794  23.5613398
  50.0507496  97.0022442  23.3923413  50.5686328  98.1841230  22.9277721
  50.5640140  97.5933877  23.4418388  55.7168652 107.3313341  17.8111475
  56.0384493 107.8718548  17.2072783  56.3640748 106.7610113  17.9433764
  55.8594707 107.3272516  17.7418510  57.7670360  99.3329336  17.8945861
  58.4650525  99.5117464  18.3867325  58.0822692  98.8099675  17.2716251
  57.9165697  99.2823108  17.8747871  50.3971597 101.1382076  25.8056967
  50.2730294 101.7244522  26.4406786  51.0489882 100.6442272  26.1069242
  50.4745247 101.1520880  25.9442896  57.9558295 105.7199781  17.8825653
  58.3951931 105.1116882  18.3280426  57.8062958 105.3407154  17.1111118
  57.9979761 105.5738252  17.8344820  55.4229938 104.3143793  25.0844478
  56.0678941 103.8216236  24.7655427  55.6631715 104.4568580  25.9110557
  55.5540523 104.2621235  25.1594011  57.9616030 107.1598699  24.7351371
  58.2439272 106.3650105  24.5138127  58.6902190 107.6379286  24.7556432
  58.1105593 107.1133296  24.7054386  55.9397223  94.7021733  21.9767136
  55.6100553  95.1532876  21.3070835  55.2642225  94.6237896  22.5240142
  55.7907660  94.7572868  21.9590359  61.5567632 104.0726962  14.8356422
  61.4718927 104.9287929  14.9805991  62.0452015 103.7971286  15.5038581
  61.6156529 104.1584284  14.9558503  63.1473631  90.6907256  20.2216747
  62.8327072  91.3810734  20.6537169  62.6300573  90.6352038  19.5202247
  63.0238102  90.7842144  20.1813696  62.4886065 100.6911757  16.3354157
  61.9597536 100.9071390  16.9951463  63.0111085 101.3847895  16.2555126
  62.4874518 100.8254893  16.4209756  67.9434118 106.2658061  21.7087202
  67.1131821 106.4768705  21.8720618  67.8943370 105.4395116  21.4329485
  67.8140853 106.1747667  21.6924567  54.3785673 104.5874973  15.1361625
  53.7942888 105.0925005  15.5427489  53.9755768 104.3617360  14.3958217
  54.2324977 104.6283222  15.0866650  49.9329701 110.3029734  21.9385297
  49.4497280 111.0280224  21.9144880  50.7453020 110.6005865  22.0495454
  49.9820449 110.4532088  21.9512576  56.0043855 109.0961915  24.5435111
  55.4870797 108.7369330  23.9396419  56.7018247 108.5724090  24.5541177
  56.0309437 108.9659603  24.4565370  59.6607447 109.5456729  30.5051284
  59.7490793 109.3582870  31.3529494  60.0897160 108.8994159  30.1056131
  59.7369550 109.4219737  30.5723036  57.2277907 108.8287889  29.4868946
  56.6648742 108.4160499  30.0108608  57.9898931 108.7540795  29.9062090
  57.2572356 108.7565290  29.6261947  58.8362887 100.8340625  13.6130546
  59.0758891 101.0418609  12.8005889  59.1578728 100.0298134  13.7219490
  58.9200045 100.7454727  13.5091099  54.1453177  92.7634021  17.4590084
  54.8999146  93.1312338  17.2207134  53.9680712  93.1373576  18.2269263
  54.2307656  92.8732209  17.5374972  52.7873899 110.8185910  22.0905576
  53.4894478 110.3037899  22.1478333  52.7071382 111.1460062  22.8952452
  52.8797659 110.7900137  22.2178369  67.4388076  98.9128462  25.5037623
  66.6016497  98.9830649  25.7385217  67.4076307  98.9152957  24.6311925
  67.3106359  98.9238689  25.4097171  53.8352805 101.0561497  31.2185992
  54.0073309 100.9467392  32.0671273  54.3722163 101.7015903  30.9817184
  53.9397809 101.1353499  31.3091088  52.5010242  95.1704340  14.1568197
  52.3185815  95.3876221  13.3309189  53.3635855  95.2843353  14.2126811
  52.6014832  95.2194238  14.0422684  52.1124674 107.0092262  21.5991184
  52.9513574 107.2415195  21.6464946  52.1436443 106.1396574  21.5298220
  52.2406392 106.9149209  21.5955829  52.7377377 107.4293138  25.9004490
  53.2775602 107.2864269  26.5707862  52.0547323 107.8289888  26.2688516
  52.7169531 107.4672808  26.0538912  58.1809961  92.1730751  17.1917220
  58.9096122  91.9946706  16.7455377  58.2704854  93.0148831  17.4024399
  58.3016623  92.2714629  17.1570738  62.1618262 103.1084138  21.0949514
  62.9175777 103.5415653  21.1338423  62.2680586 102.4588908  21.6684150
  62.2888433 103.0761622  21.1847540  65.1998433 106.9357415  21.8451917
  64.7633665 106.9394158  22.6010889  64.8661349 107.6162914  21.4131495
  65.0861053 107.0369871  21.8932750  59.7727507 108.9765748  33.1695068
  60.5567923 109.0896596  33.5350810  59.5724101 108.1506885  33.3653754
  59.8593532 108.8712468  33.2529454  48.1414522 103.6493428  26.0538912
  47.8752937 102.8332545  26.2129902  48.1553086 103.6946584  25.1834427
  48.1039244 103.5350333  25.9492394  65.1195916  93.9771243  24.0881345
  65.7621824  94.0469348  24.6743261  65.3718937  93.3100466  23.5860887
  65.2518048  93.8897592  24.1008625  52.0472269  98.4478513  12.6690670
  51.3330446  98.1616692  13.0813102  52.5316238  98.7875139  13.3097057
  52.0131632  98.4560162  12.8246305  52.8913129  97.1871807  28.7005919
  52.1984925  96.7168786  28.9466651  53.5073456  96.9610111  29.2747626
  52.8797658  97.0838938  28.8215072  59.9297900 110.8875850  26.8161523
  59.1313146 110.6475350  27.0735392  60.3783912 110.9390243  27.5628571
  59.8772511 110.8598241  26.9646448  68.3342779 103.6538335  20.7371555
  68.9959213 103.0929004  20.6367463  67.6934191 103.1590366  21.0624246
  68.3371647 103.4974744  20.7703895  59.2219587 106.9508467  13.0452478
  59.6370736 106.6193491  12.3536974  58.3911517 106.7177369  12.9172615
  59.1607596 106.8679723  12.9243325  48.5507936 104.4352208  23.3350656
  48.3683509 104.4099094  22.4822948  49.2857605 104.9051146  23.3739565
  48.6322000 104.5013570  23.2148574  64.6207610 104.6703718  20.4783543
  64.8563199 104.8148917  19.6510394  64.7697174 105.4346126  20.8715057
  64.6773413 104.8042772  20.4147147  51.6153688 101.1537211  29.8432764
  52.3393660 101.1390241  30.3297659  51.7169824 101.8632566  29.3454733
  51.7371897 101.2561914  29.8411551  66.4498067 103.5105384  18.3153147
  66.7806284 104.0433024  17.7093242  67.0231155 103.5644271  18.9715098
  66.5831746 103.5974953  18.3230929  58.9898637 104.6336295  34.7081711
  58.1971618 104.9479807  34.8934331  59.1047564 104.8487764  33.8702496
  58.8894047 104.7120132  34.6120046  61.6629956 101.3570286  18.9976727
  61.7576810 102.0959580  19.4516353  61.0388799 100.9287762  19.4311292
  61.5838986 101.4031607  19.1284875  59.9182430 104.5356499  29.6467008
  60.4921291 103.8983743  29.8015572  59.8397233 104.5360581  28.7776666
  59.9915665 104.4421610  29.5413419  48.5178846 101.3145708  23.4849722
  49.0952349 101.1782159  24.1241968  47.8192908 100.8581493  23.7395307
  48.4999868 101.2267975  23.6172012  61.9152977 103.2019026  12.2313679
  61.8333140 103.2721213  13.0968666  62.5532698 103.7648770  12.0397420
  61.9972815 103.2957997  12.3303629  55.2746148 102.9679764  21.6988206
  55.0165393 102.1351499  21.6719505  55.3294631 103.1937377  20.8580706
  55.2445926 102.8777535  21.5708342  60.3547199  95.0708215  21.7992298
  59.6503525  94.5817400  21.9576217  60.4032173  95.0830689  20.9280743
  60.2577250  94.9997863  21.6931638  54.2480861 100.5217527  22.1853100
  53.6730452 100.6809695  22.8217061  53.8716537  99.8852936  21.7221551
  54.1083673 100.4515340  22.2107659  57.9154149  98.9940876  27.0445479
  57.5268582  98.5695094  26.3897670  57.2508847  99.2423026  27.5522505
  57.7601077  98.9679597  27.0233347  67.5577418  98.7515881  19.8193309
  67.3013983  97.9395822  19.6291192  68.4006732  98.7593448  19.5923496
  67.6443444  98.6327878  19.7578126  43.9937679 100.1657601  20.1997541
  44.0797931  99.7889470  20.9811071  44.6213477  99.7918047  19.7217499
  44.0994230 100.0543084  20.2443018  61.7380511  92.6915505  24.5569463
  62.1191022  92.0093676  24.9437337  60.9343795  92.4025107  24.3745127
  61.6756972  92.5482553  24.5873519  59.0193087 103.2239480  15.2422286
  59.8333726 103.5154373  15.1305057  58.9552229 102.5699343  14.6680579
  59.1295826 103.1704675  15.1411123  65.2402578 105.9065477  29.6551861
  65.0041215 105.0753541  29.5363922  65.8845806 105.8551084  30.2406706
  65.2997248 105.7763165  29.7237755  54.8900996 106.6960998  20.3694598
  55.5274943 106.4572745  20.9146391  55.3156067 106.8998157  19.6347758
  55.0477162 106.6912008  20.3411755  49.5813638 108.9349334  24.2528902
  49.6217783 109.2064185  23.4248681  50.1408162 109.4591242  24.6686690
  49.6696984 109.0525089  24.1920790  55.5303811 101.9163288  14.7069487
  55.9148963 101.6970994  15.4586032  55.2815431 102.7426233  14.8370564
  55.5505883 102.0061434  14.8370564  55.6972351  95.1969703  34.4232071
  55.3825792  95.9669266  34.1601634  55.3762284  94.6339959  33.8384298
  55.6031270  95.2279972  34.2973421  66.2638998 105.6909925  25.7180156
  65.9584815 106.4237982  26.0793471  65.5445214 105.2847855  25.4372942
  66.1126340 105.7391658  25.7293293  57.2722468 107.1733421  22.0488384
  57.3461476 107.0108592  22.9030234  58.0891974 107.3623610  21.8048866
  57.4038826 107.1770163  22.1386410  71.9640790 102.3302926  25.0448500
  71.8965291 102.3498885  24.1751087  71.9496453 103.1733253  25.2704171
  71.9519547 102.4576661  24.9500977  51.0328224 107.5191283  19.0782828
  50.2066342 107.7653021  18.9517106  51.0940216 107.4403364  19.9444886
  50.9202391 107.5436232  19.1871772  53.2504248  93.5860224  20.0378268
  52.3826674  93.6582824  20.1035877  53.5379452  94.3882303  20.2266243
  53.1643996  93.7154371  20.0753034  62.3737137  93.7338084  28.3689590
  63.1190729  93.5447894  27.9553015  61.9574441  94.2596322  27.8103446
  62.4222111  93.7840229  28.2254163  55.8127053 110.1368164  16.7801857
  56.1025352 109.7457145  16.0561084  56.5430534 110.3184869  17.2207133
  55.9633938 110.1061977  16.7384664  69.7499408 101.1047312  23.3195095
  70.3007329 100.4715381  23.5592187  69.7343523 101.6362705  24.0110599
  69.8284604 101.0896260  23.4573953  56.4021799 104.9385910  27.8654988
  55.9033492 105.6501677  27.9439876  57.2122023 105.2586576  27.8273150
  56.4477905 105.0912758  27.8711557  53.7532969 112.1135546  19.8462007
  53.5333264 111.8232901  20.6388674  53.5327491 111.4550501  19.3179920
  53.6880563 111.9735254  19.8850916  52.6649916 104.2008863  22.1117709
  52.3763165 103.5746334  22.6463436  53.5333264 104.1429150  22.1782389
  52.7510168 104.0996407  22.2008663  63.4527814  99.3443646  22.4299691
  63.1092580  98.6233981  22.7806940  63.5520856  99.1357497  21.5878049
  63.4169857  99.2067849  22.3571371  55.9200925 113.4864936  18.6292700
  56.5724983 112.9541378  18.8583726  55.2226533 113.1333588  19.0160574
  55.9131643 113.3554459  18.7204867  52.8682189 105.8404114  18.0360074
  53.6228157 106.2217153  18.2495536  52.2752802 106.2915257  18.4906770
  52.8918903 105.9632941  18.1342952  63.9140843 105.8069350  17.9723679
  64.4798876 106.4662560  17.8882222  63.2668746 106.1519048  18.4440081
  63.9019599 105.9551291  18.0296435  55.3288857  97.7966954  33.1617286
  54.5188632  98.1024734  33.0507129  55.8063543  98.5172536  33.2769870
  55.2792335  97.9481555  33.1624357  54.1880416 107.0112675  23.4100189
  53.6661170 107.1512967  24.0952054  54.5754436 106.2523339  23.6002307
  54.1684117 106.9198199  23.5401266  51.1771600  97.0618484  17.4795144
  50.8896396  96.6919754  16.7427091  51.8642068  97.5313339  17.2178849
  51.2360497  97.0765453  17.3310220  60.3847421 108.7508134  17.3960758
  60.1434097 108.0175995  16.9887823  60.5648754 109.2994991  16.7427091
  60.3755045 108.7230525  17.2390981  55.6146742 104.0416694  18.8081680
  55.4189524 104.6491428  18.2141983  55.8381087 103.3484638  18.3273354
  55.6181383 104.0294219  18.6497761  54.0125272 100.9271432  18.9262549
  54.7347924 101.0912590  18.4666355  53.5333264 101.6481097  18.8201888
  54.0489002 101.0569661  18.8428163  61.9718779  97.2635231  24.3059234
  61.1329880  97.2896510  24.0697497  62.0423147  97.9105966  24.8864580
  61.8587173  97.3631356  24.3568351  51.6632888 103.3329504  28.0316689
  52.1753985 103.6113758  27.3825448  51.3769231 104.0718798  28.3979502
  51.6967752 103.4831858  27.9906567  60.4188058  94.1620608  19.0386850
  61.1214410  93.9628356  18.5606808  60.1532246  93.3896550  19.3455693
  60.4834690  94.0183574  19.0132291  65.8476303 102.4703217  21.5920475
  65.7610278 102.6258643  22.4455254  65.3926783 103.1141293  21.2179880
  65.7679560 102.5878973  21.6627582  48.7499795  97.8399696  18.3280425
  48.8515931  98.6425858  18.6561400  49.5455681  97.6387032  18.0303506
  48.8827700  97.9285595  18.3315780  55.1816614  95.4255893  28.0917730
  54.9899811  95.4411027  28.9417154  56.0315210  95.6219567  28.0684385
  55.2792336  95.4570244  28.2141025  49.5663527  97.9546874  26.0701547
  49.4249019  97.1030815  26.1946055  49.8504090  97.9975535  25.2463753
  49.5871373  97.8346624  25.9669171  59.7202119  99.7913965  20.2146035
  59.4736833  99.7109715  21.0482824  60.0487242  99.0067432  20.0208562
  59.7323363  99.6640230  20.3093558  63.6150168 106.4997324  24.0032816
  63.4764527 107.1978370  24.5081559  62.8350166 106.3445980  23.6468998
  63.4793395 106.5797491  24.0259090  61.9528253 102.7993699  30.2555198
  61.9476292 101.9273516  30.2597624  62.6589247 102.9981868  29.7824654
  62.0573257 102.6997573  30.1862233  55.6799146 102.5270683  29.6269018
  55.8242522 103.1071891  28.9912128  56.0274795 102.9046980  30.3318873
  55.7526608 102.6691387  29.6368013  57.8519064 101.7260851  27.4094150
  57.1042378 101.9191866  27.0042428  58.0060589 100.9006071  27.1718271
  57.7641491 101.6325963  27.3139555  54.7526901 110.7173455  26.4930045
  54.9016465 110.1576371  25.8403449  55.5326904 110.7965457  26.8762564
  54.8900995 110.6459020  26.4526994  65.1103541 105.8575578  14.7649315
  64.7310350 105.0712716  14.7578605  64.4469786 106.4062435  14.6220960
  64.9562016 105.8220402  14.7430112  57.2780202 110.8888098  27.7714536
  57.2023873 110.2196908  28.3265324  57.2070061 111.5905886  28.2855202
  57.2560809 110.8933005  27.9291384  58.0920841  95.6211402  28.2989553
  58.5493455  96.3535377  28.4262346  58.1677170  95.1977867  29.0576809
  58.1711811  95.6668640  28.4290630  50.3353832  95.8677222  29.3878997
  49.7996022  95.2557580  29.7039764  50.3971597  96.4425358  30.0412664
  50.2649465  95.8624150  29.5314424  62.5648167  88.8001277  22.1683396
  62.6831735  89.2577741  21.4350699  62.3910342  87.9946539  21.8819614
  62.5567338  88.7495050  22.0184330  57.9350449 109.4089097  18.6038142
  58.7000340 109.1398740  18.2820806  57.8328539 108.9239107  19.3208204
  58.0331944 109.2978661  18.6617969  55.9703219  97.6113506  25.1431377
  55.1799294  97.4304966  25.4648713  56.3663842  96.8340459  25.1261672
  55.9120095  97.4700967  25.1883926  61.3546905 105.2455936  22.8690823
  60.6791907 105.0141169  23.3704210  61.3639281 104.6377119  22.2432928
  61.2565410 105.1214862  22.8506976  58.4841049 100.0873765  29.6254876
  58.4200190 100.9483722  29.4975013  58.6238237  99.7705758  28.8250428
  58.4956519 100.1673932  29.4883089  63.3563640 108.1021069  15.1001001
  63.4383477 108.9088055  14.7762452  63.8413382 108.1217028  15.8241775
  63.4400798 108.2241731  15.1587900  57.1660143 102.7805905  23.7671079
  56.7422392 102.9810404  23.0310098  56.9904998 101.9334753  23.8795379
  57.0771024 102.6854686  23.6744769  56.6671836 114.2956418  26.2292536
  57.1567767 113.5967207  26.0468201  56.0956069 113.9980288  26.8168594
  56.6556366 114.1482641  26.2893577  52.4542588 103.2757956  19.1999052
  52.6107207 103.2104759  20.0555044  52.7943181 104.0506509  18.9877731
  52.5275823 103.3807154  19.2953646  58.9921733 102.6515840  18.0692415
  59.5337278 102.1486221  18.5331035  59.3068292 102.5981034  17.2581900
  59.1186130 102.5695261  18.0176227  62.8638840 106.8618487  35.1819327
  63.6773705 106.5903636  35.3424460  62.7033806 106.5626027  34.3779523
  62.9608788 106.7773413  35.0864733  57.1608182 108.0433191  15.3532443
  57.2301003 107.1847730  15.4925443  57.9396637 108.2605072  15.0251468
  57.2861032 107.9486055  15.3249600  60.1411002  97.5452144  28.1214715
  60.3552971  96.9063058  27.5678069  59.5244901  97.9897968  27.6922577
  60.0816331  97.5162288  27.9765146  61.5515670 110.4670892  19.5668936
  61.1595462 110.1637608  18.8491802  61.7068742 111.3039982  19.3773890
  61.5169260 110.5454729  19.4325433  49.0276849 100.4592907  19.5159819
  49.4075814 100.8777451  18.8520086  48.4532214 101.0406362  19.8228662
  48.9988174 100.6070765  19.4636560  62.3050090  99.1541209  29.0598022
  61.4926772  98.8467100  29.1411195  62.7640025  98.6740209  29.6240735
  62.2530475  99.0377702  29.1552617  61.7155345 107.0320881  19.5074967
  61.3569999 107.2035524  20.2838999  61.2294055 107.4934087  18.9502965
  61.5914041 107.1259852  19.5400236  59.5325731  90.6552080  23.1102058
  58.6619288  90.6290801  23.0635368  59.7866072  90.4829272  22.2927904
  59.4419291  90.6262224  22.9822195  56.5043710 102.7120047  12.0475201
  56.7936235 103.4884929  12.3218775  56.5915509 102.2008778  12.7489700
  56.5597966 102.7511965  12.1917699  59.4003597 100.5601281  33.8426725
  59.8703229 101.1843397  34.2294599  59.4465478  99.8918256  34.4019939
  59.4771473 100.5535961  33.9826796  56.5574871  92.6658308  24.5675529
  56.0413360  91.9738500  24.6927108  55.9968800  93.3329085  24.5138127
  56.3981384  92.6621566  24.5781595  58.6267105  93.2051268  26.3968381
  58.2398858  93.2300300  27.1781911  58.1400042  92.6392947  25.9442898
  58.4979613  93.1247019  26.4456285  62.8760084 107.9224777  30.4542168
  63.5139804 107.4284973  30.1204624  62.2334176 107.8502178  29.8694395
  62.8754310 107.8383786  30.3184523  64.6017084  99.7713923  25.0208083
  64.1744692  99.6840272  24.2656183  63.9643137  99.8791699  25.6062927
  64.4446691  99.7746583  24.9953525  58.2924246  90.0918254  28.6878641
  58.9217364  90.6278554  28.4099711  58.4610109  89.9995613  29.5392207
  58.4102041  90.1579616  28.7727169  58.0938161  94.8789448  30.9605053
  58.9211590  94.6074597  31.0163667  58.1146007  95.6750290  31.3168871
  58.2191011  94.9569203  31.0220236  62.9314341 108.6144586  27.0947524
  63.7206719 108.2633650  27.2149606  63.1057938 109.4280974  26.8324158
  63.0734622 108.6830443  27.0735392  52.6707651 102.0253311  24.1475313
  51.8295658 101.9257185  24.3554207  52.8797659 102.7948792  24.4989634
  52.5772344 102.1245355  24.2302628  50.1483218  99.6472848  21.9760064
  49.7539916  99.7215860  21.2010174  49.5923335 100.0330795  22.5268426
  50.0086030  99.7154623  21.9427724  61.7848165  92.6254142  21.6563943
  61.9897758  92.5576450  22.5020940  61.4574589  93.4312963  21.5885120
  61.7663413  92.7340083  21.7723598  56.4824316  99.9534710  23.3972911
  56.1787453  99.3990699  23.9983318  55.7803737 100.1326920  22.9100945
  56.3340526  99.8979493  23.4142616  55.5390413  97.2635230  17.9617613
  55.8150147  96.5454143  17.5495180  56.1389082  97.8620150  17.7538719
  55.6683678  97.2455601  17.8698374  54.5442667 107.1684431  28.1045009
  54.4363022 107.1786493  28.9707067  54.7538448 107.9939212  27.9149962
  54.5592778 107.2925506  28.2049100  65.0381852  93.1785907  21.1366708
  64.4256166  93.6656309  21.5220440  65.1346027  92.5029397  21.6804359
  64.9619750  93.1504215  21.2745567  59.0400933  94.9348748  16.2364208
  59.4944680  95.1059308  16.9612052  59.5140979  94.3216858  15.8361983
  59.1769254  94.8699633  16.2837969  52.5616459 104.4197074  25.5666946
  51.9704392 105.0606572  25.5369961  53.3237482 104.8434691  25.5398246
  52.5864719 104.5772912  25.5582093  52.9577082  95.5799071  26.2334964
  53.4178563  95.6538001  26.9710088  53.0033188  96.3780325  25.8834785
  53.0327637  95.7093218  26.2907720  54.6060431  96.2465766  30.8006991
  54.2145996  95.5999113  31.2362769  54.7746294  96.8377201  31.4201246
  54.5731342  96.2380034  30.9569697  68.6806880 104.2502843  26.5644224
  68.7390004 104.6989492  27.3104201  68.0473348 104.6601656  26.1274304
  68.5958175 104.3776578  26.6096773  62.3205975 109.8706385  22.9998971
  62.1225664 110.3597200  22.3055182  61.6993686 110.0747627  23.5783104
  62.1993539 109.9722923  22.9822194  56.3813953 101.6391282  17.3409215
  57.1255998 102.0265558  17.5792165  56.5274650 100.7948707  17.5049703
  56.5124539 101.5721755  17.4003185  58.2993529  93.4341541  22.3741076
  57.4529574  93.6064349  22.2482426  58.2964661  92.6290885  22.7106905
  58.1740679  93.3402570  22.4052203  59.3691829  97.2116755  23.2403134
  58.8951784  96.6858517  23.7508445  59.7409965  96.6646228  22.6717996
  59.3541718  97.0532752  23.2318281  49.7464859  99.2088262  28.6086680
  50.6090472  99.1083971  28.5224010  49.4156642  98.6282971  28.0472252
  49.8250056  99.1079889  28.5132086  65.6328560 102.2719131  24.6509915
  65.3926783 101.4325546  24.6552341  66.1120567 102.3519298  25.3750688
  65.6680744 102.1600531  24.7584717  61.2975329  98.1053310  16.3028888
  60.7698348  98.1882054  15.6134597  61.7571037  98.8471181  16.2993533
  61.2877179  98.2273972  16.2003583  67.6333747  99.0520588  22.6039174
  67.3943517  99.0116422  21.7659958  67.7967648  99.8991740  22.7304895
  67.6224050  99.1712673  22.4992656  64.2379777 103.4370537  28.5344219
  64.9613976 102.9843064  28.3555239  63.9729739 103.7175203  27.7516547
  64.3061050 103.4121506  28.3922934  53.1066645  98.0330711  25.2697098
  52.4819716  98.0449103  24.6623051  52.7712240  98.5090886  25.9188338
  52.9652137  98.1049228  25.2753667  53.2908394  96.3755829  11.3269783
  52.9421198  97.0275555  11.7901333  52.8104840  96.3612943  10.5993654
  53.1678638  96.4698883  11.2880874  49.8192321 106.0931171  26.7100862
  49.2892245 105.4023610  26.7595837  50.0917414 106.0841356  25.8813571
  49.7817043 105.9898303  26.5948278  60.8512411 106.6756873  15.4338545
  61.5746610 107.1414986  15.2903118  60.4113002 106.7430483  14.6836142
  60.8928104 106.7540710  15.3023326  60.0198566 103.5354416  26.6839234
  59.4055560 102.9912466  26.9787869  60.5365851 103.0218652  26.2045050
  60.0054229 103.3790825  26.6563462  59.2594864 104.6058686  24.4183533
  58.8322472 103.9808404  23.9848968  59.2519808 104.3233608  25.2442540
  59.1954005 104.4711466  24.4763360  52.3757391  99.6423859  27.4871967
  52.5350877  98.8867183  27.8923689  52.1950284 100.1914798  28.1412704
  52.3722750  99.6117673  27.6434673  60.3177694  91.8085094  28.0422756
  59.8218255  92.0048769  27.3514323  61.0746756  92.2077763  27.8711558
  60.3564518  91.8962828  27.9142893  57.5880573  95.4827440  24.6326067
  57.6123061  94.9487553  23.9438847  57.8392047  94.9744749  25.2951657
  57.6290492  95.3288344  24.6290711  45.0988163 102.7658935  24.0669211
  44.9931612 102.7205780  23.2021295  44.3488383 103.1112716  24.3483496
  44.9723766 102.8099843  23.9806540  53.8681896  94.2098259  24.0131811
  53.9080267  94.7107465  24.7266518  53.0431560  94.3008652  23.7437734
  53.7521422  94.2980075  24.0782349  56.0511508 103.7758998  32.1152106
  55.2007139 103.9130713  32.2509750  56.2139636 103.0422777  32.5599807
  55.9495372 103.6873100  32.2007705  55.2896259 100.7258768  26.3105710
  54.4588189 100.8932586  26.1040958  55.2347776 100.3494719  27.0954595
  55.1585674 100.6948500  26.3954238  53.0980042  94.2167661  31.9462121
  53.7232746  93.6729794  32.2191553  52.6430522  93.7362579  31.3769911
  53.1228303  94.0657143  31.9023715  53.6632303  99.0014360  16.8395828
  53.8035264  99.4986824  17.5424469  54.1614836  98.3000654  16.9810041
  53.7573384  98.9716339  16.9647407  53.6932525  99.8681471  14.1688405
  54.3277605 100.4641896  14.1037866  53.7758136  99.5684929  14.9834275
  53.7989076  99.9122379  14.2791491  66.6715091 102.3996948  27.0374769
  67.2632931 103.0394199  27.0692967  67.1074085 101.7019985  27.3266836
  66.8233522 102.3915299  27.0855601  55.2711508  95.7995446  14.1433847
  55.5927349  95.3198529  13.4893109  55.5338452  96.6095092  13.9524658
  55.3577533  95.8485344  14.0189339  58.5008481 106.8214321  27.6632663
  57.9933572 107.3750167  28.1073293  58.2035127 106.8822611  26.8451437
  58.3813366 106.9120632  27.6081119  60.6670663  95.1867640  26.5057326
  61.0925735  94.7340167  25.8940852  60.0527656  94.6327711  26.7822113
  60.6399308  95.0381616  26.4562351  50.1985513 102.0649312  17.4377951
  50.7077742 102.6613819  17.8189256  50.6719785 101.7975285  16.7554370
  50.3428889 102.1135127  17.3932473  61.1116261 110.7377578  15.5936606
  60.3945571 110.5638441  15.1283843  61.7622999 110.5030151  15.0612092
  61.1018112 110.6773371  15.4465824  59.1064886  91.6582740  19.9147903
  58.4633204  91.5080386  20.4833041  58.7664293  91.4125085  19.1497007
  58.9609963  91.5994863  19.8850918  63.6964232  99.6142167  19.3377911
  63.0255422 100.1571869  19.2090977  64.3903983 100.0837022  19.0959606
  63.6993100  99.7640438  19.2833439  57.7450966 111.7538879  24.5689670
  57.5216621 110.9957708  24.9373696  57.2560809 111.7836900  23.8470109
  57.6394415 111.6461103  24.5166410  63.8592360  96.0698051  22.2468284
  64.2119970  95.6427773  22.9214083  63.0007161  95.9848894  22.3769361
  63.7841804  95.9942791  22.3663295  52.5576045  98.7005570  20.3051131
  51.8388034  99.1169703  20.5723995  52.9288407  99.2659809  19.7542769
  52.5067977  98.8454852  20.2633938  61.8575626  99.3333419  26.1953127
  61.8373553  99.1516714  27.0487906  61.9054826 100.2045438  26.1712710
  61.8610267  99.4349957  26.3176421  59.8021955 105.9220611  32.1201603
  59.7617810 105.2770288  31.5346759  60.6145274 105.8657228  32.4327015
  59.9165109 105.8179578  32.0798552  56.3929423 111.9739337  22.0226754
  55.9789822 111.3113467  21.6330596  57.0776797 112.1217196  21.5022448
  56.4327795 111.8979995  21.8883251  59.7594717 111.1329422  22.7750371
  59.3611000 111.2431693  22.0071191  59.1445937 111.3411489  23.3576931
  59.6093606 111.1802990  22.7481670  58.3322619  97.7403570  15.6424510
  57.7387458  98.0620567  15.0909077  58.3697897  96.8944666  15.4345617
  58.2497008  97.6627898  15.5307282  65.2916420  91.1916462  23.1752597
  64.7847285  90.4845602  23.1073774  66.0883854  90.8609651  23.3053674
  65.3343659  91.0389614  23.1851592  61.2080436  97.6983075  19.0726261
  60.9794129  97.7215776  18.2304619  61.4678512  96.8740542  19.1921271
  61.2126624  97.5799155  18.9651458  55.4899664  99.5517548  28.6751361
  54.9778567  98.9438731  29.0336392  55.3179160 100.2674140  29.1425337
  55.3889301  99.5680847  28.7967585  50.3365379  97.9955123  31.3253723
  50.1667969  98.6556498  30.7801929  49.8931329  98.2061684  32.0466212
  50.2464712  98.1241105  31.3515352  54.2625198  96.2359621  20.3680456
  54.7382565  96.5976701  19.7330637  53.7613798  96.8916088  20.6480599
  54.2590557  96.3853810  20.3157197  67.4936560 105.7081389  16.1593461
  67.8770166 106.4572745  16.3891558  66.6980673 105.9547209  15.9005450
  67.4330342 105.8551083  16.1551035  59.3668735  97.4741792  31.1153616
  59.9240165  97.2455602  30.4832082  59.0429800  98.2347458  30.8388829
  59.4015145  97.5525629  30.9810114  47.2367443 100.9001989  26.5842213
  46.6894163 100.2302634  26.7023081  48.0259822 100.5331836  26.6485680
  47.2719627 100.7466975  26.6110913  57.0851852 100.5609446  32.0805624
  57.8363179 100.8761122  32.3945178  57.2774428 100.3588617  31.2539545
  57.2243266 100.5776827  32.0049019  56.3051851  98.3800821  13.7353840
  56.6850816  98.3980450  12.9504955  55.5644447  98.8254810  13.6144688
  56.2520689  98.4482595  13.6017408  63.9337142  96.6883012  19.3229419
  63.9331368  96.5331668  20.1813695  63.7293322  97.5345999  19.2670805
  63.9036920  96.7903633  19.4417358  45.9954413 100.1122796  23.7388236
  45.8176174  99.6599405  24.4643151  45.7073435 100.9148958  23.9226713
  45.9267366 100.1645354  23.8731738  61.6577994 101.3680514  22.9765626
  62.1531659 100.6503509  22.9369646  60.8477770 101.0651311  22.8620113
  61.6121887 101.2178160  22.9539352  57.1036605 105.2178327  15.1262630
  56.2947928 104.8945000  15.0795940  57.6111514 104.5111549  15.0590879
  57.0586272 105.0659643  15.1092925  47.7326883 102.6450520  20.8509995
  46.8672402 102.6336211  20.7392766  47.8325699 102.4580743  21.6981134
  47.6201050 102.6156581  20.9598939  63.7229813 104.1184201  25.6642755
  64.1484884 103.5958623  25.1113180  63.3586733 104.7165039  25.1431378
  63.7316415 104.1294428  25.5051764  53.3583893 112.4148419  24.4240100
  53.6730452 113.2284807  24.4317882  53.7677306 112.0298637  25.0922259
  53.4651991 112.4777121  24.5244192  60.3108412 107.8318465  21.9943912
  60.7819590 108.5458728  22.1633897  60.6468591 107.2317216  22.5303782
  60.4303527 107.8489930  22.0976288  62.3985397 109.4419779  34.1735984
  62.5082362 108.6528339  34.5292731  62.7276293 109.3525715  33.3710322
  62.4637803 109.3125632  34.1078375  57.2277907  92.6045936  28.9502007
  57.3605813  91.8076929  29.2782982  57.6123060  93.1312339  29.5300283
  57.3034236  92.5645853  29.0845510  60.9482359 107.6236400  28.7571605
  60.4003305 106.9994283  28.4891670  61.4095387 107.8130672  28.0415684
  60.9349568 107.5595450  28.6122036  60.3010262  89.5276262  25.5483100
  59.4956226  89.4173992  25.8650938  60.1716998  89.6288718  24.6912966
  60.1630395  89.5259932  25.4691141  63.7576223  95.6921754  26.1422797
  63.1739212  96.1930961  25.7300364  64.0780517  95.1851310  25.5087120
  63.7189398  95.6913589  25.9881304  56.2971022  94.6062349  16.4181472
  57.1186716  94.7760662  16.1763167  55.8340673  94.7609610  15.6947769
  56.3502184  94.6544082  16.2753116  54.8866354  92.6005111  27.1979901
  55.4310767  92.2596238  27.7884242  54.9403290  93.4590573  27.3401185
  54.9755473  92.6760370  27.3061774  50.6996913 106.3621527  24.0718709
  51.3041770 106.3217361  23.4432529  50.4924225 107.2092679  24.1022764
  50.7585810 106.4809530  23.9834825  60.5140685 108.6287472  25.2880946
  61.3339059 108.4850438  25.5497241  60.2334763 109.2533671  25.8297384
  60.5937428 108.6997824  25.4068885  45.9348195 105.3456145  23.9417632
  45.8372473 104.5352416  24.2507688  46.7177065 105.3247938  23.5563900
  46.0364332 105.2223235  23.9304495  70.1854020 115.3727975  23.0076753
  69.3291916 115.5336473  23.0585870  70.2321674 114.5020039  23.0281814
  70.0653132 115.2678777  23.0182819  73.4947737 121.6414501  32.6137209
  74.2014504 121.1466531  32.7424143  73.6835672 122.0823582  31.8839867
  73.6275642 121.6332851  32.5246254  73.0305841 117.4320019  25.6508404
  73.5761801 118.1105106  25.7102374  72.9722717 117.2907480  24.7909986
  73.1021756 117.5112021  25.5320465  59.3444960 120.9429372  20.6629090
  59.1095145 120.1097024  20.5561359  59.4830601 121.2234037  19.8490291
  59.3300623 120.8612875  20.5271445  61.6435048 113.1115102  23.5613398
  61.0240079 112.5207749  23.3923413  61.5418911 113.7026537  22.9277721
  61.5372723 113.1119185  23.4418388  61.3704181 116.6567384  25.8056967
  61.2462878 117.2429829  26.4406786  62.0222465 116.1627580  26.1069242
  61.4477830 116.6706188  25.9442896  66.3962522 119.8329101  25.0844478
  67.0411524 119.3401544  24.7655427  66.6364299 119.9753887  25.9110557
  66.5273107 119.7806543  25.1594011  68.9348613 122.6784007  24.7351371
  69.2171856 121.8835412  24.5138127  69.6634774 123.1564594  24.7556432
  69.0838177 122.6318604  24.7054386  66.9129807 110.2207041  21.9767136
  66.5833137 110.6718184  21.3070835  66.2374809 110.1423204  22.5240142
  66.7640243 110.2758176  21.9590359  74.1206215 106.2092564  20.2216747
  73.8059656 106.8996042  20.6537169  73.6033156 106.1537346  19.5202247
  73.9970685 106.3027452  20.1813696  60.9062285 125.8215042  21.9385297
  60.4229863 126.5465532  21.9144880  61.7185603 126.1191172  22.0495454
  60.9553033 125.9717396  21.9512576  66.9776439 124.6147223  24.5435111
  66.4603381 124.2554638  23.9396419  67.6750830 124.0909398  24.5541177
  67.0042020 124.4844911  24.4565370  70.6340031 125.0642037  30.5051284
  70.7223377 124.8768178  31.3529494  71.0629744 124.4179467  30.1056131
  70.7102133 124.9405045  30.5723036  68.2010491 124.3473197  29.4868946
  67.6381326 123.9345807  30.0108608  68.9631514 124.2726103  29.9062090
  68.2304939 124.2750598  29.6261947  65.1185761 108.2819329  17.4590084
  65.8731729 108.6497646  17.2207134  64.9413296 108.6558883  18.2269263
  65.2040239 108.3917517  17.5374972  78.4120660 114.4313770  25.5037623
  77.5749081 114.5015957  25.7385217  78.3808891 114.4338264  24.6311925
  78.2838942 114.4423997  25.4097171  64.8085389 116.5746805  31.2185992
  64.9805893 116.4652700  32.0671273  65.3454746 117.2201211  30.9817184
  64.9130393 116.6538807  31.3091088  63.0857258 122.5277570  21.5991184
  63.9246157 122.7600503  21.6464946  63.1169027 121.6581882  21.5298220
  63.2138975 122.4334517  21.5955829  63.7109961 122.9478446  25.9004490
  64.2508186 122.8049577  26.5707862  63.0279907 123.3475196  26.2688516
  63.6902115 122.9858116  26.0538912  69.1542545 107.6916059  17.1917220
  69.8828705 107.5132014  16.7455377  69.2437438 108.5334139  17.4024399
  69.2749207 107.7899937  17.1570738  70.7460090 124.4951056  33.1695068
  71.5300507 124.6081904  33.5350810  70.5456685 123.6692193  33.3653754
  70.8326116 124.3897776  33.2529454  59.1147106 119.1678736  26.0538912
  58.8485521 118.3517853  26.2129902  59.1285670 119.2131892  25.1834427
  59.0771828 119.0535641  25.9492394  76.0928500 109.4956551  24.0881345
  76.7354408 109.5654656  24.6743261  76.3451520 108.8285774  23.5860887
  76.2250632 109.4082900  24.1008625  63.8645712 112.7057115  28.7005919
  63.1717509 112.2354094  28.9466651  64.4806039 112.4795419  29.2747626
  63.8530242 112.6024246  28.8215072  70.9030484 126.4061158  26.8161523
  70.1045729 126.1660658  27.0735392  71.3516495 126.4575551  27.5628571
  70.8505095 126.3783549  26.9646448  59.5240519 119.9537516  23.3350656
  59.3416093 119.9284402  22.4822948  60.2590188 120.4236454  23.3739565
  59.6054583 120.0198878  23.2148574  62.5886271 116.6722519  29.8432764
  63.3126243 116.6575549  30.3297659  62.6902408 117.3817874  29.3454733
  62.7104480 116.7747222  29.8411551  69.9631220 120.1521603  34.7081711
  69.1704201 120.4665115  34.8934331  70.0780148 120.3673072  33.8702496
  69.8626631 120.2305440  34.6120046  70.8915013 120.0541807  29.6467008
  71.4653875 119.4169051  29.8015572  70.8129817 120.0545889  28.7776666
  70.9648248 119.9606918  29.5413419  59.4911430 116.8331016  23.4849722
  60.0684932 116.6967467  24.1241968  58.7925491 116.3766801  23.7395307
  59.4732451 116.7453283  23.6172012  66.2478732 118.4865072  21.6988206
  65.9897976 117.6536807  21.6719505  66.3027215 118.7122685  20.8580706
  66.2178510 118.3962843  21.5708342  71.3279782 110.5893523  21.7992298
  70.6236109 110.1002708  21.9576217  71.3764756 110.6015997  20.9280743
  71.2309834 110.5183171  21.6931638  65.2213444 116.0402835  22.1853100
  64.6463035 116.1995003  22.8217061  64.8449120 115.4038244  21.7221551
  65.0816256 115.9700647  22.2107659  68.8886733 114.5126184  27.0445479
  68.5001165 114.0880402  26.3897670  68.2241431 114.7608333  27.5522505
  68.7333660 114.4864905  27.0233347  54.9670263 115.6842909  20.1997541
  55.0530515 115.3074778  20.9811071  55.5946060 115.3103355  19.7217499
  55.0726814 115.5728391  20.2443018  72.7113094 108.2100813  24.5569463
  73.0923606 107.5278984  24.9437337  71.9076379 107.9210415  24.3745127
  72.6489556 108.0667861  24.5873519  76.2135161 121.4250785  29.6551861
  75.9773799 120.5938849  29.5363922  76.8578390 121.3736392  30.2406706
  76.2729832 121.2948472  29.7237755  60.5546222 124.4534642  24.2528902
  60.5950367 124.7249493  23.4248681  61.1140746 124.9776550  24.6686690
  60.6429568 124.5710397  24.1920790  66.6704935 110.7155011  34.4232071
  66.3558376 111.4854574  34.1601634  66.3494867 110.1525267  33.8384298
  66.5763854 110.7465279  34.2973421  77.2371582 121.2095233  25.7180156
  76.9317399 121.9423290  26.0793471  76.5177797 120.8033163  25.4372942
  77.0858924 121.2576966  25.7293293  64.2236832 109.1045532  20.0378268
  63.3559257 109.1768132  20.1035877  64.5112036 109.9067611  20.2266243
  64.1376580 109.2339679  20.0753034  73.3469720 109.2523392  28.3689590
  74.0923312 109.0633202  27.9553015  72.9307025 109.7781630  27.8103446
  73.3954695 109.3025537  28.2254163  67.3754382 120.4571217  27.8654988
  66.8766076 121.1686985  27.9439876  68.1854606 120.7771884  27.8273150
  67.4210489 120.6098066  27.8711557  63.6382500 119.7194170  22.1117709
  63.3495748 119.0931642  22.6463436  64.5065848 119.6614458  22.1782389
  63.7242752 119.6181715  22.2008663  74.4260397 114.8628954  22.4299691
  74.0825163 114.1419289  22.7806940  74.5253440 114.6542805  21.5878049
  74.3902440 114.7253157  22.3571371  66.3021440 113.3152262  33.1617286
  65.4921216 113.6210042  33.0507129  66.7796127 114.0357844  33.2769870
  66.2524919 113.4666863  33.1624357  65.1613000 122.5297983  23.4100189
  64.6393753 122.6698275  24.0952054  65.5487020 121.7708647  23.6002307
  65.1416701 122.4383507  23.5401266  62.1504184 112.5803792  17.4795144
  61.8628979 112.2105062  16.7427091  62.8374652 113.0498647  17.2178849
  62.2093081 112.5950761  17.3310220  64.9857855 116.4456740  18.9262549
  65.7080507 116.6097898  18.4666355  64.5065848 117.1666405  18.8201888
  65.0221586 116.5754969  18.8428163  72.9451363 112.7820539  24.3059234
  72.1062463 112.8081817  24.0697497  73.0155730 113.4291274  24.8864580
  72.8319756 112.8816664  24.3568351  62.6365472 118.8514812  28.0316689
  63.1486569 119.1299065  27.3825448  62.3501815 119.5904106  28.3979502
  62.6700335 119.0017166  27.9906567  71.3920641 109.6805916  19.0386850
  72.0946994 109.4813664  18.5606808  71.1264830 108.9081858  19.3455693
  71.4567273 109.5368882  19.0132291  59.7232378 113.3585004  18.3280425
  59.8248515 114.1611165  18.6561400  60.5188265 113.1572340  18.0303506
  59.8560284 113.4470903  18.3315780  66.1549197 110.9441201  28.0917730
  65.9632394 110.9596335  28.9417154  67.0047793 111.1404875  28.0684385
  66.2524919 110.9755552  28.2141025  60.5396110 113.4732182  26.0701547
  60.3981602 112.6216123  26.1946055  60.8236674 113.5160843  25.2463753
  60.5603956 113.3531932  25.9669171  70.6934703 115.3099272  20.2146035
  70.4469417 115.2295023  21.0482824  71.0219826 114.5252740  20.0208562
  70.7055946 115.1825538  20.3093558  72.9260837 118.3179007  30.2555198
  72.9208875 117.4458824  30.2597624  73.6321831 118.5167176  29.7824654
  73.0305841 118.2182881  30.1862233  66.6531730 118.0455991  29.6269018
  66.7975106 118.6257199  28.9912128  67.0007379 118.4232288  30.3318873
  66.7259191 118.1876695  29.6368013  68.8251647 117.2446159  27.4094150
  68.0774961 117.4377174  27.0042428  68.9793173 116.4191379  27.1718271
  68.7374075 117.1511271  27.3139555  65.7259485 126.2358763  26.4930045
  65.8749049 125.6761679  25.8403449  66.5059487 126.3150765  26.8762564
  65.8633579 126.1644328  26.4526994  68.2512786 126.4073406  27.7714536
  68.1756457 125.7382216  28.3265324  68.1802645 127.1091194  28.2855202
  68.2293393 126.4118313  27.9291384  69.0653424 111.1396710  28.2989553
  69.5226039 111.8720684  28.4262346  69.1409753 110.7163175  29.0576809
  69.1444394 111.1853948  28.4290630  61.3086416 111.3862530  29.3878997
  60.7728605 110.7742888  29.7039764  61.3704180 111.9610666  30.0412664
  61.2382048 111.3809458  29.5314424  73.5380750 104.3186585  22.1683396
  73.6564318 104.7763049  21.4350699  73.3642926 103.5131847  21.8819614
  73.5299921 104.2680357  22.0184330  66.9435802 113.1298814  25.1431377
  66.1531877 112.9490274  25.4648713  67.3396425 112.3525767  25.1261672
  66.8852679 112.9886275  25.1883926  69.4573633 115.6059073  29.6254876
  69.3932774 116.4669030  29.4975013  69.5970820 115.2891066  28.8250428
  69.4689103 115.6859240  29.4883089  68.1392727 118.2991213  23.7671079
  67.7154976 118.4995712  23.0310098  67.9637582 117.4520061  23.8795379
  68.0503607 118.2039994  23.6744769  63.4275171 118.7943264  19.1999052
  63.5839791 118.7290067  20.0555044  63.7675765 119.5691817  18.9877731
  63.5008406 118.8992462  19.2953646  73.8371424 122.3803795  35.1819327
  74.6506289 122.1088944  35.3424460  73.6766390 122.0811335  34.3779523
  73.9341372 122.2958721  35.0864733  71.1143585 113.0637452  28.1214715
  71.3285555 112.4248366  27.5678069  70.4977485 113.5083276  27.6922577
  71.0548915 113.0347596  27.9765146  60.0009433 115.9778214  19.5159819
  60.3808398 116.3962759  18.8520086  59.4264798 116.5591670  19.8228662
  59.9720758 116.1256073  19.4636560  73.2782673 114.6726517  29.0598022
  72.4659355 114.3652408  29.1411195  73.7372608 114.1925517  29.6240735
  73.2263058 114.5563010  29.1552617  70.5058314 106.1737388  23.1102058
  69.6351872 106.1476109  23.0635368  70.7598655 106.0014580  22.2927904
  70.4151874 106.1447531  22.9822195  70.3736181 116.0786589  33.8426725
  70.8435812 116.7028705  34.2294599  70.4198061 115.4103564  34.4019939
  70.4504057 116.0721269  33.9826796  67.5307455 108.1843616  24.5675529
  67.0145943 107.4923808  24.6927108  66.9701384 108.8514393  24.5138127
  67.3713968 108.1806874  24.5781595  69.5999688 108.7236576  26.3968381
  69.2131441 108.7485608  27.1781911  69.1132625 108.1578255  25.9442898
  69.4712197 108.6432327  26.4456285  73.8492668 123.4410085  30.4542168
  74.4872388 122.9470281  30.1204624  73.2066759 123.3687486  29.8694395
  73.8486894 123.3569094  30.3184523  75.5749668 115.2899231  25.0208083
  75.1477276 115.2025580  24.2656183  74.9375721 115.3977007  25.6062927
  75.4179275 115.2931891  24.9953525  69.2656830 105.6103562  28.6878641
  69.8949948 106.1463862  28.4099711  69.4342693 105.5180921  29.5392207
  69.3834624 105.6764924  28.7727169  69.0670745 110.3974756  30.9605053
  69.8944174 110.1259905  31.0163667  69.0878591 111.1935598  31.3168871
  69.1923595 110.4754511  31.0220236  73.9046924 124.1329893  27.0947524
  74.6939302 123.7818958  27.2149606  74.0790522 124.9466282  26.8324158
  74.0467206 124.2015751  27.0735392  63.6440235 117.5438619  24.1475313
  62.8028241 117.4442493  24.3554207  63.8530242 118.3134099  24.4989634
  63.5504927 117.6430663  24.2302628  61.1215801 115.1658156  21.9760064
  60.7272499 115.2401168  21.2010174  60.5655918 115.5516102  22.5268426
  60.9818614 115.2339931  21.9427724  72.7580748 108.1439450  21.6563943
  72.9630342 108.0761758  22.5020940  72.4307172 108.9498271  21.5885120
  72.7395996 108.2525391  21.7723598  67.4556899 115.4720018  23.3972911
  67.1520037 114.9176007  23.9983318  66.7536320 115.6512228  22.9100945
  67.3073109 115.4164801  23.4142616  66.5122996 112.7820538  17.9617613
  66.7882731 112.0639451  17.5495180  67.1121666 113.3805458  17.7538719
  66.6416261 112.7640909  17.8698374  65.5175250 122.6869739  28.1045009
  65.4095605 122.6971801  28.9707067  65.7271032 123.5124519  27.9149962
  65.5325361 122.8110814  28.2049100  76.0114436 108.6971214  21.1366708
  75.3988750 109.1841617  21.5220440  76.1078611 108.0214705  21.6804359
  75.9352334 108.6689523  21.2745567  63.5349042 119.9382382  25.5666946
  62.9436976 120.5791880  25.5369961  64.2970066 120.3619999  25.5398246
  63.5597303 120.0958220  25.5582093  63.9309665 111.0984379  26.2334964
  64.3911147 111.1723309  26.9710088  63.9765772 111.8965633  25.8834785
  64.0060221 111.2278526  26.2907720  65.5793015 111.7651074  30.8006991
  65.1878580 111.1184421  31.2362769  65.7478878 112.3562509  31.4201246
  65.5463925 111.7565342  30.9569697  79.6539464 119.7688151  26.5644224
  79.7122588 120.2174800  27.3104201  79.0205932 120.1786964  26.1274304
  79.5690759 119.8961886  26.6096773  69.2726112 108.9526849  22.3741076
  68.4262158 109.1249657  22.2482426  69.2697245 108.1476193  22.7106905
  69.1473262 108.8587878  22.4052203  70.3424413 112.7302063  23.2403134
  69.8684367 112.2043825  23.7508445  70.7142549 112.1831536  22.6717996
  70.3274302 112.5718060  23.2318281  60.7197443 114.7273570  28.6086680
  61.5823056 114.6269279  28.5224010  60.3889226 114.1468279  28.0472252
  60.7982639 114.6265197  28.5132086  76.6061143 117.7904439  24.6509915
  76.3659366 116.9510854  24.6552341  77.0853151 117.8704606  25.3750688
  76.6413327 117.6785839  24.7584717  75.2112361 118.9555845  28.5344219
  75.9346559 118.5028372  28.3555239  74.9462323 119.2360511  27.7516547
  75.2793634 118.9306814  28.3922934  64.0799229 113.5516019  25.2697098
  63.4552299 113.5634411  24.6623051  63.7444824 114.0276194  25.9188338
  63.9384721 113.6234536  25.2753667  60.7924904 121.6116479  26.7100862
  60.2624829 120.9208918  26.7595837  61.0649998 121.6026664  25.8813571
  60.7549627 121.5083611  26.5948278  70.9931150 119.0539724  26.6839234
  70.3788143 118.5097774  26.9787869  71.5098435 118.5403960  26.2045050
  70.9786812 118.8976133  26.6563462  70.2327447 120.1243994  24.4183533
  69.8055055 119.4993712  23.9848968  70.2252392 119.8418916  25.2442540
  70.1686588 119.9896774  24.4763360  63.3489974 115.1609167  27.4871967
  63.5083461 114.4052491  27.8923689  63.1682868 115.7100106  28.1412704
  63.3455333 115.1302980  27.6434673  71.2910277 107.3270402  28.0422756
  70.7950839 107.5234076  27.3514323  72.0479339 107.7263071  27.8711558
  71.3297102 107.4148136  27.9142893  68.5613157 111.0012748  24.6326067
  68.5855644 110.4672860  23.9438847  68.8124631 110.4930057  25.2951657
  68.6023076 110.8473652  24.6290711  56.0720747 118.2844243  24.0669211
  55.9664196 118.2391088  23.2021295  55.3220967 118.6298024  24.3483496
  55.9456350 118.3285151  23.9806540  64.8414479 109.7283566  24.0131811
  64.8812851 110.2292773  24.7266518  64.0164144 109.8193960  23.7437734
  64.7254005 109.8165383  24.0782349  67.0244092 119.2944306  32.1152106
  66.1739723 119.4316021  32.2509750  67.1872220 118.5608085  32.5599807
  66.9227956 119.2058408  32.2007705  66.2628843 116.2444076  26.3105710
  65.4320772 116.4117894  26.1040958  66.2080360 115.8680027  27.0954595
  66.1318257 116.2133808  26.3954238  64.0712626 109.7352969  31.9462121
  64.6965329 109.1915102  32.2191553  63.6163106 109.2547887  31.3769911
  64.0960886 109.5842451  31.9023715  64.6364886 114.5199668  16.8395828
  64.7767847 115.0172132  17.5424469  65.1347419 113.8185962  16.9810041
  64.7305967 114.4901647  16.9647407  77.6447675 117.9182256  27.0374769
  78.2365515 118.5579507  27.0692967  78.0806669 117.2205293  27.3266836
  77.7966106 117.9100607  27.0855601  69.4741064 122.3399629  27.6632663
  68.9666155 122.8935475  28.1073293  69.1767711 122.4007918  26.8451437
  69.3545949 122.4305940  27.6081119  71.6403247 110.7052948  26.5057326
  72.0658318 110.2525475  25.8940852  71.0260240 110.1513019  26.7822113
  71.6131892 110.5566924  26.4562351  70.0797469 107.1768048  19.9147903
  69.4365787 107.0265694  20.4833041  69.7396876 106.9310393  19.1497007
  69.9342547 107.1180170  19.8850918  74.8324943 111.5883358  22.2468284
  75.1852553 111.1613081  22.9214083  73.9739745 111.5034202  22.3769361
  74.7574388 111.5128099  22.3663295  63.5308628 114.2190878  20.3051131
  62.8120617 114.6355011  20.5723995  63.9020991 114.7845117  19.7542769
  63.4800560 114.3640160  20.2633938  72.8308209 114.8518727  26.1953127
  72.8106137 114.6702022  27.0487906  72.8787410 115.7230746  26.1712710
  72.8342850 114.9535265  26.3176421  70.7754539 121.4405919  32.1201603
  70.7350394 120.7955596  31.5346759  71.5877857 121.3842536  32.4327015
  70.8897693 121.3364886  32.0798552  76.2649003 106.7101770  23.1752597
  75.7579868 106.0030910  23.1073774  77.0616437 106.3794959  23.3053674
  76.3076243 106.5574922  23.1851592  66.4632248 115.0702856  28.6751361
  65.9511151 114.4624039  29.0336392  66.2911744 115.7859448  29.1425337
  66.3621885 115.0866155  28.7967585  61.3097962 113.5140431  31.3253723
  61.1400553 114.1741806  30.7801929  60.8663912 113.7246992  32.0466212
  61.2197296 113.6426413  31.3515352  65.2357782 111.7544929  20.3680456
  65.7115148 112.1162009  19.7330637  64.7346381 112.4101396  20.6480599
  65.2323141 111.9039118  20.3157197  70.3401318 112.9927100  31.1153616
  70.8972748 112.7640910  30.4832082  70.0162383 113.7532766  30.8388829
  70.3747728 113.0710937  30.9810114  58.2100027 116.4187296  26.5842213
  57.6626746 115.7487942  26.7023081  58.9992405 116.0517144  26.6485680
  58.2452211 116.2652283  26.6110913  68.0584435 116.0794754  32.0805624
  68.8095762 116.3946430  32.3945178  68.2507012 115.8773924  31.2539545
  68.1975850 116.0962135  32.0049019  56.9686996 115.6308104  23.7388236
  56.7908758 115.1784713  24.4643151  56.6806019 116.4334266  23.9226713
  56.8999950 115.6830662  23.8731738  72.6310578 116.8865822  22.9765626
  73.1264243 116.1688817  22.9369646  71.8210353 116.5836619  22.8620113
  72.5854471 116.7363468  22.9539352  58.7059466 118.1635828  20.8509995
  57.8404986 118.1521518  20.7392766  58.8058282 117.9766051  21.6981134
  58.5933633 118.1341889  20.9598939  74.6962396 119.6369509  25.6642755
  75.1217468 119.1143931  25.1113180  74.3319316 120.2350347  25.1431378
  74.7048999 119.6479736  25.5051764  73.3717980 124.9605087  34.1735984
  73.4814946 124.1713647  34.5292731  73.7008877 124.8711023  33.3710322
  73.4370386 124.8310940  34.1078375  68.2010491 108.1231244  28.9502007
  68.3338396 107.3262237  29.2782982  68.5855644 108.6497647  29.5300283
  68.2766820 108.0831161  29.0845510  71.9214942 123.1421708  28.7571605
  71.3735888 122.5179591  28.4891670  72.3827971 123.3315980  28.0415684
  71.9082152 123.0780758  28.6122036  71.2742846 105.0461570  25.5483100
  70.4688810 104.9359300  25.8650938  71.1449581 105.1474026  24.6912966
  71.1362979 105.0445240  25.4691141  74.7308807 111.2107062  26.1422797
  74.1471795 111.7116269  25.7300364  75.0513101 110.7036618  25.5087120
  74.6921982 111.2098897  25.9881304  67.2703606 110.1247657  16.4181472
  68.0919300 110.2945970  16.1763167  66.8073257 110.2794918  15.6947769
  67.3234768 110.1729390  16.2753116  65.8598938 108.1190419  27.1979901
  66.4043351 107.7781546  27.7884242  65.9135873 108.9775881  27.3401185
  65.9488057 108.1945678  27.3061774  61.6729496 121.8806835  24.0718709
  62.2774354 121.8402669  23.4432529  61.4656809 122.7277987  24.1022764
  61.7318394 121.9994838  23.9834825  71.4873268 124.1472780  25.2880946
  72.3071642 124.0035746  25.5497241  71.2067346 124.7718979  25.8297384
  71.5670012 124.2183132  25.4068885  56.9080779 120.8641453  23.9417632
  56.8105057 120.0537724  24.2507688  57.6909648 120.8433246  23.5563900
  57.0096915 120.7408543  23.9304495  74.8378296 128.2242423  28.7005919
  74.1450092 127.7539402  28.9466651  75.4538623 127.9980727  29.2747626
  74.8262826 128.1209554  28.8215072  77.6437518 126.2340319  34.4232071
  77.3290959 127.0039881  34.1601634  77.3227451 125.6710575  33.8384298
  77.5496437 126.2650587  34.2973421  77.2754024 128.8337570  33.1617286
  76.4653799 129.1395349  33.0507129  77.7528710 129.5543152  33.2769870
  77.2257502 128.9852171  33.1624357  72.2818999 126.9047838  29.3878997
  71.7461189 126.2928196  29.7039764  72.3436764 127.4795974  30.0412664
  72.2114632 126.8994766  29.5314424  81.3468765 131.5971897  33.8426725
  81.8168396 132.2214013  34.2294599  81.3930645 130.9288872  34.4019939
  81.4236640 131.5906577  33.9826796  80.2389413 121.1288870  28.6878641
  80.8682531 121.6649170  28.4099711  80.4075276 121.0366229  29.5392207
  80.3567208 121.1950232  28.7727169  80.0403328 125.9160064  30.9605053
  80.8676758 125.6445213  31.0163667  80.0611174 126.7120906  31.3168871
  80.1656178 125.9939819  31.0220236  76.5525599 127.2836382  30.8006991
  76.1611164 126.6369729  31.2362769  76.7211461 127.8747817  31.4201246
  76.5196509 127.2750650  30.9569697  75.0445209 125.2538277  31.9462121
  75.6697913 124.7100410  32.2191553  74.5895689 124.7733195  31.3769911
  75.0693470 125.1027758  31.9023715  72.2830546 129.0325739  31.3253723
  72.1133136 129.6927114  30.7801929  71.8396496 129.2432300  32.0466212
  72.1929880 129.1611721  31.3515352  79.1743074 123.6416552  28.9502007
  79.3070980 122.8447545  29.2782982  79.5588227 124.1682955  29.5300283
  79.2499403 123.6016469  29.0845510  76.8331521 123.6375727  27.1979901
  77.3775934 123.2966854  27.7884242  76.8868457 124.4961189  27.3401185
  76.9220641 123.7130986  27.3061774  29.2968226  36.5051400  19.5477256
  30.0034994  36.0103431  19.6764190  29.4856162  36.9460482  18.8179914
  29.4296132  36.4969750  19.4586301  26.4360521  39.9278937  17.4391331
  26.5243866  39.7405077  18.2869541  26.8650233  39.2816366  17.0396178
  26.5122623  39.8041944  17.5063082  24.0030980  39.2110097  16.4208993
  23.4401815  38.7982706  16.9448654  24.7652004  39.1363002  16.8402136
  24.0325429  39.1387497  16.5601993  26.5480580  39.3587956  20.1035114
  27.3320997  39.4718803  20.4690857  26.3477174  38.5329093  20.2993800
  26.6346605  39.2534675  20.1869501  25.7651710  35.0158503  21.6421758
  24.9724691  35.3302014  21.8274378  25.8800637  35.2309971  20.8042543
  25.6647121  35.0942339  21.5460093  32.0155651  36.2887684  16.5891908
  31.7794288  35.4575749  16.4703969  32.6598880  36.2373291  17.1746752
  32.0750322  36.1585372  16.6577802  29.6391913  37.2440694  22.1159374
  30.4526778  36.9725843  22.2764506  29.4786879  36.9448234  21.3119570
  29.7361862  37.1595620  22.0204780  26.1756671  30.9423488  20.7766772
  26.6456302  31.5665605  21.1634646  26.2218551  30.2740464  21.3359986
  26.2524546  30.9358168  20.9166843  29.6513157  38.3046985  17.3882214
  30.2892878  37.8107180  17.0544671  29.0087249  38.2324385  16.8034441
  29.6507384  38.2205993  17.2524569  29.7067414  38.9966793  14.0287571
  30.4959792  38.6455858  14.1489653  29.8811012  39.8103181  13.7664205
  29.8487695  39.0652650  14.0075439  26.5775029  36.3042819  19.0541650
  26.5370884  35.6592495  18.4686806  27.3898347  36.2479436  19.3667062
  26.6918182  36.2001785  19.0138599  29.1738470  39.8241986  21.1076031
  29.2835436  39.0350547  21.4632778  29.5029367  39.7347922  20.3050369
  29.2390876  39.6947839  21.0418422  43.7607409  46.6674531   5.1863869
  43.7301413  47.5219168   5.3582138  44.3588757  46.3669824   5.7450013
  43.8444566  46.7491028   5.2938671  36.9607093  45.7550182   9.9416800
  36.1044989  45.9158681   9.9925916  37.0074747  44.8842246   9.9621861
  36.8406205  45.6500984   9.9522866  31.3448233  55.2912900   5.7054031
  30.5931133  54.9128439   5.4770076  31.7934245  55.3231334   4.9572841
  31.2997900  55.2398507   5.5611533  40.2700810  52.0236708  19.5477256
  40.9767577  51.5288739  19.6764190  40.4588745  52.4645790  18.8179914
  40.4028716  52.0155058  19.4586301  36.3377484  57.6652538   7.0750690
  36.7216864  58.2339437   6.5355465  36.2736625  56.9402049   6.5956506
  36.3850911  57.6428002   6.9244552  39.8058914  47.8142226  12.5848451
  40.3514874  48.4927313  12.6442421  39.7475791  47.6729687  11.7250033
  39.8774829  47.8934228  12.4660512  32.9232989  55.3031292   7.9716804
  33.0243352  54.4931646   8.2813931  32.3274734  55.2088239   7.3416482
  32.8505528  55.1696321   7.9243042  41.5823983  49.2426833   3.4582179
  41.4663509  49.9934520   3.8874317  42.3779870  48.9850787   3.7078266
  41.6828572  49.3161680   3.5586271  32.7633729  60.2208882   9.3731660
  33.4071184  60.6622046   9.7627818  33.0889984  59.4162308   9.2861918
  32.9065558  60.1674076   9.4177137  33.4654309  53.2320856   4.7451521
  33.7870150  53.7726064   4.1412829  34.1126405  52.6617628   4.8773811
  33.6080364  53.2280032   4.6758557  28.1457254  47.0389591  12.7397014
  28.0215951  47.6252037  13.3746833  28.7975539  46.5449787  13.0409289
  28.2230903  47.0528396  12.8782943  33.1715595  50.2151308  12.0184525
  33.8164598  49.7223751  11.6995474  33.4117372  50.3576095  12.8450603
  33.3026180  50.1628750  12.0934058  35.7101686  53.0606214  11.6691418
  35.9924929  52.2657620  11.4478173  36.4387847  53.5386802  11.6896479
  35.8591250  53.0140811  11.6394433  45.6919775  52.1665576   8.6427248
  44.8617478  52.3776220   8.8060665  45.6429027  51.3402631   8.3669532
  45.5626510  52.0755183   8.6264614  27.6815358  56.2037250   8.8725343
  27.1982936  56.9287739   8.8484927  28.4938676  56.5013380   8.9835501
  27.7306106  56.3539604   8.8852623  33.7529512  54.9969431  11.4775158
  33.2356454  54.6376846  10.8736466  34.4503904  54.4731605  11.4881224
  33.7795093  54.8667118  11.3905417  37.4093104  55.4464245  17.4391331
  37.4976450  55.2590385  18.2869541  37.8382817  54.8001674  17.0396178
  37.4855207  55.3227252  17.5063082  34.9763564  54.7295405  16.4208993
  34.4134399  54.3168014  16.9448654  35.7384588  54.6548310  16.8402136
  35.0058013  54.6572805  16.5601993  30.5359555  56.7193426   9.0245623
  31.2380135  56.2045415   9.0818380  30.4557039  57.0467577   9.8292498
  30.6283316  56.6907652   9.1518415  45.1873733  44.8135977  12.4377670
  44.3502154  44.8838164  12.6725264  45.1561964  44.8160472  11.5651972
  45.0592015  44.8246204  12.3437218  31.5838462  46.9569013  18.1526038
  31.7558966  46.8474907  19.0011320  32.1207820  47.6023418  17.9157231
  31.6883466  47.0361014  18.2431135  29.8610331  52.9099778   8.5331231
  30.6999230  53.1422710   8.5804993  29.8922100  52.0404089   8.4638267
  29.9892048  52.8156724   8.5295876  30.4863034  53.3300653  12.8344537
  31.0261259  53.1871784  13.5047909  29.8032980  53.7297404  13.2028563
  30.4655188  53.3680324  12.9878959  39.9103919  49.0091654   8.0289561
  40.6661434  49.4423168   8.0678470  40.0166243  48.3596423   8.6024197
  40.0374089  48.9769137   8.1187587  42.9484090  52.8364931   8.7791964
  42.5119322  52.8401673   9.5350936  42.6147005  53.5170430   8.3471542
  42.8346710  52.9377387   8.8272797  37.5213164  54.8773264  20.1035114
  38.3053580  54.9904111  20.4690857  37.3209758  54.0514401  20.2993800
  37.6079189  54.7719983  20.1869501  25.8900179  49.5500944  12.9878958
  25.6238594  48.7340060  13.1469949  25.9038743  49.5954099  12.1174474
  25.8524901  49.4357848  12.8832440  42.8681573  39.8778759  11.0221392
  43.5107481  39.9476863  11.6083307  43.1204594  39.2107981  10.5200934
  43.0003705  39.7905107  11.0348671  30.6398785  43.0879322  15.6345966
  29.9470582  42.6176302  15.8806698  31.2559113  42.8617626  16.2087673
  30.6283315  42.9846454  15.7555119  37.6783557  56.7883366  13.7501570
  36.8798803  56.5482866  14.0075439  38.1269568  56.8397759  14.4968618
  37.6258168  56.7605757  13.8986494  46.0828436  49.5545851   7.6711601
  46.7444870  48.9936519   7.5707510  45.4419848  49.0597881   7.9964293
  46.0857304  49.3982260   7.7043942  26.2993593  50.3359723  10.2690703
  26.1169166  50.3106609   9.4162995  27.0343262  50.8058661  10.3079611
  26.3807657  50.4021085  10.1488621  42.3693267  50.5711233   7.4123590
  42.6048856  50.7156432   6.5850441  42.5182830  51.3353641   7.8055104
  42.4259070  50.7050287   7.3487194  29.3639344  47.0544726  16.7772811
  30.0879317  47.0397757  17.2637706  29.4655481  47.7640081  16.2794779
  29.4857553  47.1569429  16.7751598  44.1983724  49.4112899   5.2493194
  44.5291941  49.9440539   4.6433289  44.7716812  49.4651787   5.9055145
  44.3317403  49.4982468   5.2570976  36.7384294  50.5343811  21.6421758
  35.9457274  50.8487322  21.8274378  36.8533221  50.7495279  20.8042543
  36.6379704  50.6127647  21.5460093  39.4115613  47.2577802   5.9316774
  39.5062467  47.9967096   6.3856400  38.7874456  46.8295277   6.3651339
  39.3324643  47.3039122   6.0624922  37.6668087  50.4364014  16.5807055
  38.2406948  49.7991259  16.7355619  37.5882890  50.4368097  15.7116713
  37.7401321  50.3429126  16.4753466  33.0231805  48.8687279   8.6328252
  32.7651049  48.0359014   8.6059552  33.0780288  49.0944892   7.7920753
  32.9931583  48.7785051   8.5048389  35.6639806  44.8948391  13.9785526
  35.2754239  44.4702609  13.3237717  34.9994504  45.1430541  14.4862552
  35.5086734  44.8687112  13.9573394  45.3063075  44.6523396   6.7533356
  45.0499640  43.8403337   6.5631238  46.1492389  44.6600963   6.5263543
  45.3929100  44.5335393   6.6918173  39.4866167  38.5923020  11.4909510
  39.8676679  37.9101191  11.8777384  38.6829452  38.3032622  11.3085174
  39.4242629  38.4490068  11.5213566  42.9888234  51.8072992  16.5891908
  42.7526872  50.9761057  16.4703969  43.6331463  51.7558599  17.1746752
  43.0482905  51.6770680  16.6577802  32.6386652  52.5968513   7.3034645
  33.2760599  52.3580261   7.8486438  33.0641724  52.8005672   6.5687805
  32.7962819  52.5919523   7.2751802  27.3299295  54.8356850  11.1868948
  27.3703440  55.1071701  10.3588728  27.8893819  55.3598758  11.6026736
  27.4182641  54.9532605  11.1260837  33.4458008  41.0977218  21.3572118
  33.1311449  41.8676781  21.0941681  33.1247940  40.5347474  20.7724345
  33.3516927  41.1287487  21.2313468  44.0124655  51.5917441  12.6520203
  43.7070472  52.3245498  13.0133518  43.2930871  51.1855370  12.3712989
  43.8611997  51.6399174  12.6633340  35.0208124  53.0740936   8.9828431
  35.0947133  52.9116108   9.8370281  35.8377631  53.2631125   8.7388913
  35.1524483  53.0777678   9.0726457  49.7126447  48.2310441  11.9788547
  49.6450947  48.2506400  11.1091134  49.6982110  49.0740769  12.2044218
  49.7005204  48.3584176  11.8841024  40.1222794  39.6345599  15.3029636
  40.8676386  39.4455409  14.8893062  39.7060098  40.1603837  14.7443493
  40.1707768  39.6847744  15.1594210  33.5612710  56.0375679   3.7141904
  33.8511009  55.6464660   2.9901131  34.2916191  56.2192384   4.1547180
  33.7119594  56.0069493   3.6724711  47.4985064  47.0054828  10.2535141
  48.0492986  46.3722897  10.4932233  47.4829180  47.5370220  10.9450646
  47.5770261  46.9903776  10.3914000  34.1507455  50.8393425  14.7995035
  33.6519149  51.5509193  14.8779923  34.9607680  51.1594091  14.7613197
  34.1963562  50.9920273  14.8051603  31.5018626  58.0143061   6.7802054
  31.2818921  57.7240416   7.5728721  31.2813148  57.3558016   6.2519966
  31.4366220  57.8742770   6.8190963  30.4135573  50.1016378   9.0457756
  30.1248822  49.4753849   9.5803483  31.2818921  50.0436665   9.1122436
  30.4995825  50.0003922   9.1348710  41.2013471  45.2451161   9.3639738
  40.8578237  44.5241496   9.7146987  41.3006513  45.0365012   8.5218096
  41.1655514  45.1075364   9.2911418  33.6686581  59.3872451   5.5632746
  34.3210639  58.8548894   5.7923772  32.9712190  59.0341104   5.9500620
  33.6617299  59.2561974   5.6544914  41.6626500  51.7076865   4.9063726
  42.2284532  52.3670075   4.8222269  41.0154403  52.0526563   5.3780128
  41.6505256  51.8558807   4.9636482  33.0774513  43.6974469  20.0957333
  32.2674289  44.0032249  19.9847175  33.5549200  44.4180052  20.2109917
  33.0277992  43.8489070  20.0964404  31.9366073  52.9120190  10.3440236
  31.4146826  53.0520482  11.0292101  32.3240093  52.1530855  10.5342353
  31.9169774  52.8205714  10.4741313  38.1333078  54.6515649   4.3300805
  37.8919754  53.9183510   3.9227870  38.3134411  55.2002506   3.6767138
  38.1240702  54.6238041   4.1731028  39.7204436  43.1642746  11.2399280
  38.8815537  43.1904025  11.0037544  39.7908803  43.8113481  11.8204627
  39.6072830  43.2638872  11.2908397  29.4118545  49.2337020  14.9656735
  29.9239642  49.5121273  14.3165495  29.1254888  49.9726314  15.3319548
  29.4453408  49.3839373  14.9246613  43.5961960  48.3710733   8.5260522
  43.5095934  48.5266159   9.3795301  43.1412440  49.0148808   8.1519927
  43.5165217  48.4886488   8.5967629  32.9302271  41.3263408  15.0257777
  32.7385468  41.3418543  15.8757201  33.7800867  41.5227082  15.0024432
  33.0277993  41.3577759  15.1481072  27.3149184  43.8554390  13.0041593
  27.1734675  43.0038330  13.1286101  27.5989747  43.8983050  12.1803799
  27.3357030  43.7354140  12.9009218  41.3635825  52.4004839  10.9372863
  41.2250184  53.0985885  11.4421605  40.5835823  52.2453496  10.5809045
  41.2279052  52.4805006  10.9599137  39.7013910  48.7001215  17.1895245
  39.6961948  47.8281031  17.1937671  40.4074904  48.8989384  16.7164700
  39.8058914  48.6005089  17.1202280  33.4284803  48.4278198  16.5609065
  33.5728179  49.0079407  15.9252175  33.7760452  48.8054495  17.2658919
  33.5012265  48.5698902  16.5708060  35.6004721  47.6268367  14.3434196
  34.8528035  47.8199381  13.9382474  35.7546246  46.8013586  14.1058318
  35.5127148  47.5333478  14.2479602  32.5012558  56.6180970  13.4270092
  32.6502122  56.0583886  12.7743496  33.2812560  56.6972972  13.8102610
  32.6386652  56.5466536  13.3867041  42.8589198  51.7583093   1.6989362
  42.4796006  50.9720231   1.6918652  42.1955443  52.3069950   1.5561006
  42.7047672  51.7227917   1.6770159  35.0265859  56.7895613  14.7054582
  34.9509530  56.1204424  15.2605371  34.9555718  57.4913401  15.2195249
  35.0046466  56.7940520  14.8631431  35.8406498  41.5218918  15.2329600
  36.2979112  42.2542892  15.3602392  35.9162826  41.0985383  15.9916856
  35.9197467  41.5676156  15.3630677  28.0839489  41.7684737  16.3219044
  27.5481678  41.1565095  16.6379811  28.1457254  42.3432873  16.9752710
  28.0135122  41.7631665  16.4654471  35.6836106  55.3096612   5.5378188
  36.4485997  55.0406256   5.2160853  35.5814196  54.8246622   6.2548251
  35.7817601  55.1986177   5.5958016  33.7188876  43.5121021  12.0771424
  32.9284950  43.3312482  12.3988760  34.1149498  42.7347974  12.0601719
  33.6605752  43.3708482  12.1223973  39.1032562  51.1463452   9.8030870
  38.4277564  50.9148684  10.3044257  39.1124938  50.5384635   9.1772975
  39.0051066  51.0222377   9.7847022  36.2326706  45.9881281  16.5594923
  36.1685847  46.8491237  16.4315060  36.3723894  45.6713274  15.7590474
  36.2442176  46.0681447  16.4223136  41.1049296  54.0028584   2.0341048
  41.1869134  54.8095570   1.7102499  41.5899039  54.0224543   2.7581822
  41.1886454  54.1249246   2.0927947  34.9145800  48.6813420  10.7011126
  34.4908049  48.8817919   9.9650144  34.7390655  47.8342268  10.8135426
  34.8256680  48.5862201  10.6084816  34.4157493  60.1963933  13.1632583
  34.9053423  59.4974722  12.9808248  33.8441725  59.8987803  13.7508641
  34.4042023  60.0490157  13.2233624  40.6124497  52.7626002  22.1159374
  41.4259362  52.4911151  22.2764506  40.4519463  52.4633542  21.3119570
  40.7094445  52.6780928  22.0204780  37.8896659  43.4459659  15.0554762
  38.1038628  42.8070574  14.5018116  37.2730558  43.8905483  14.6262624
  37.8301988  43.4169803  14.9105193  39.3001327  56.3678408   6.5008983
  38.9081118  56.0645123   5.7831849  39.4554399  57.2047498   6.3113937
  39.2654916  56.4462244   6.3665480  40.0535747  45.0548725  15.9938069
  39.2412428  44.7474615  16.0751242  40.5125681  44.5747725  16.5580781
  40.0016131  44.9385217  16.0892663  39.4641001  52.9328397   6.4415014
  39.1055656  53.1043039   7.2179046  38.9779712  53.3941602   5.8843012
  39.3399698  53.0267368   6.4740283  37.1489254  46.4608796  20.7766772
  37.6188885  47.0850912  21.1634646  37.1951134  45.7925772  21.3359986
  37.2257130  46.4543476  20.9166843  36.3752761  39.1058784  13.3308428
  35.9884514  39.1307815  14.1121958  35.8885699  38.5400462  12.8782945
  36.2465270  39.0254534  13.3796332  40.6245741  53.8232293  17.3882214
  41.2625461  53.3292488  17.0544671  39.9819832  53.7509693  16.8034441
  40.6239967  53.7391301  17.2524569  42.3502741  45.6721439  11.9548130
  41.9230349  45.5847787  11.1996230  41.7128794  45.7799214  12.5402974
  42.1932348  45.6754098  11.9293572  36.0409903  35.9925769  15.6218688
  36.6703021  36.5286069  15.3439758  36.2095766  35.9003128  16.4732253
  36.1587698  36.0587131  15.7067216  35.8423818  40.7796964  17.8945099
  36.6697247  40.5082113  17.9503714  35.8631664  41.5757805  18.2508918
  35.9676668  40.8576718  17.9560282  40.6799997  54.5152101  14.0287571
  41.4692375  54.1641166  14.1489653  40.8543595  55.3288489  13.7664205
  40.8220279  54.5837958  14.0075439  30.4193308  47.9260827  11.0815360
  29.5781314  47.8264701  11.2894254  30.6283316  48.6956307  11.4329681
  30.3258000  48.0252870  11.1642675  34.2309973  45.8542226  10.3312958
  33.9273110  45.2998214  10.9323365  33.5289393  46.0334436   9.8440992
  34.0826182  45.7987008  10.3482663  32.2928324  53.0691946  15.0385055
  32.1848679  53.0794009  15.9047113  32.5024105  53.8946727  14.8490009
  32.3078435  53.1933021  15.1389147  30.3102116  50.3204589  12.5006993
  29.7190049  50.9614087  12.4710008  31.0723139  50.7442206  12.4738292
  30.3350376  50.4780427  12.4922140  30.7062738  41.4806587  13.1675011
  31.1664220  41.5545516  13.9050134  30.7518845  42.2787841  12.8174832
  30.7813294  41.6100734  13.2247767  32.3546088  42.1473282  17.7347038
  31.9631653  41.5006629  18.1702815  32.5231951  42.7384717  18.3541293
  32.3216998  42.1387549  17.8909744  46.4292537  50.1510359  13.4984271
  46.4875661  50.5997007  14.2444248  45.7959005  50.5609171  13.0614351
  46.3443832  50.2784093  13.5436820  40.0691632  55.7713900   9.9339017
  39.8711320  56.2604715   9.2395229  39.4479343  55.9755142  10.5123151
  39.9479196  55.8730439   9.9162241  37.1177486  43.1124271  10.1743181
  36.6437440  42.5866033  10.6848492  37.4895622  42.5653743   9.6058043
  37.1027375  42.9540267  10.1658328  27.4950516  45.1095777  15.5426727
  28.3576129  45.0091487  15.4564057  27.1642299  44.5290487  14.9812299
  27.5735713  45.0087404  15.4472133  43.3814217  48.1726646  11.5849962
  43.1412440  47.3333061  11.5892388  43.8606224  48.2526813  12.3090735
  43.4166400  48.0608046  11.6924764  45.3819404  44.9528103   9.5379221
  45.1429174  44.9123938   8.7000005  45.5453305  45.7999256   9.6644942
  45.3709707  45.0720188   9.4332703  41.9865434  49.3378053  15.4684266
  42.7099633  48.8850579  15.2895286  41.7215396  49.6182718  14.6856594
  42.0546707  49.3129021  15.3262981  30.8552302  43.9338226  12.2037145
  30.2305372  43.9456618  11.5963098  30.5197897  44.4098401  12.8528385
  30.7137794  44.0056743  12.2093714  27.5677978  51.9938686  13.6440909
  27.0377902  51.3031125  13.6935884  27.8403071  51.9848872  12.8153618
  27.5302700  51.8905818  13.5288325  37.7684223  49.4361931  13.6179281
  37.1541216  48.8919981  13.9127916  38.2851508  48.9226167  13.1385097
  37.7539886  49.2798340  13.5903509  37.0080520  50.5066201  11.3523579
  36.5808128  49.8815920  10.9189015  37.0005465  50.2241123  12.1782587
  36.9439662  50.3718982  11.4103407  30.1243048  45.5431374  14.4212013
  30.2836534  44.7874698  14.8263735  29.9435941  46.0922314  15.0752751
  30.1208407  45.5125188  14.5774719  38.0663351  37.7092610  14.9762803
  37.5703912  37.9056284  14.2854370  38.8232413  38.1085278  14.8051605
  38.1050175  37.7970343  14.8482940  35.3366230  41.3834956  11.5666113
  35.3608717  40.8495068  10.8778893  35.5877704  40.8752264  12.2291704
  35.3776149  41.2295860  11.5630758  33.7997165  49.6766514  19.0492152
  32.9492796  49.8138228  19.1849797  33.9625293  48.9430292  19.4939854
  33.6981029  49.5880615  19.1347752  33.0381916  46.6266284  13.2445757
  32.2073845  46.7940102  13.0381005  32.9833433  46.2502234  14.0294642
  32.9071331  46.5956015  13.3294285  30.8465699  40.1175177  18.8802168
  31.4718402  39.5737309  19.1531600  30.3916179  39.6370094  18.3109958
  30.8713960  39.9664658  18.8363761  44.4200748  48.3004464  13.9714816
  45.0118588  48.9401714  14.0033014  44.8559742  47.6027500  14.2606882
  44.5719179  48.2922814  14.0195648  36.2494138  52.7221836  14.5972709
  35.7419229  53.2757683  15.0413340  35.9520784  52.7830126  13.7791484
  36.1299023  52.8128147  14.5421166  38.4156320  41.0875156  13.4397372
  38.8411391  40.6347682  12.8280899  37.8013313  40.5335226  13.7162160
  38.3884965  40.9389132  13.3902398  38.8601918  56.6385094   2.5276653
  38.1431228  56.4645956   2.0623890  39.5108655  56.4037666   1.9952139
  38.8503768  56.5780886   2.3805871  41.4449889  45.5149682   6.2717958
  40.7741079  46.0579384   6.1431024  42.1389639  45.9844538   6.0299653
  41.4478757  45.6647953   6.2173486  35.4936623  57.6546394  11.5029716
  35.2702277  56.8965223  11.8713743  35.0046466  57.6844415  10.7810156
  35.3880072  57.5468619  11.4506457  41.6078017  41.9705566   9.1808331
  41.9605627  41.5435289   9.8554130  40.7492818  41.8856409   9.3109408
  41.5327461  41.8950307   9.3003342  39.6061282  45.2340934  13.1293174
  39.5859210  45.0524230  13.9827952  39.6540483  46.1052953  13.1052757
  39.6095923  45.3357473  13.2516468  37.5507612  51.8228126  19.0541650
  37.5103467  51.1777803  18.4686806  38.3630931  51.7664744  19.3667062
  37.6650766  51.7187093  19.0138599  34.1415080  57.8746852   8.9566801
  33.7275478  57.2120983   8.5670643  34.8262454  58.0224711   8.4362495
  34.1813452  57.7987511   8.8223298  37.5080374  57.0336938   9.7090418
  37.1096657  57.1439208   8.9411238  36.8931594  57.2419004  10.2916977
  37.3579263  57.0810506   9.6821717  33.2385321  45.4525063  15.6091408
  32.7264224  44.8446246  15.9676439  33.0664817  46.1681656  16.0765383
  33.1374958  45.4688362  15.7307631  28.0851036  43.8962638  18.2593769
  27.9153626  44.5564013  17.7141976  27.6416986  44.1069200  18.9806259
  27.9950369  44.0248620  18.2855399  45.2422217  51.6088904   3.0933508
  45.6255822  52.3580260   3.3231605  44.4466330  51.8554724   2.8345497
  45.1815999  51.7558598   3.0891082  37.1154391  43.3749308  18.0493663
  37.6725821  43.1463117  17.4172129  36.7915456  44.1354973  17.7728876
  37.1500801  43.4533144  17.9150160  24.9853100  46.8009504  13.5182259
  24.4379820  46.1310149  13.6363128  25.7745478  46.4339352  13.5825727
  25.0205284  46.6474490  13.5450960  34.8337509  46.4616961  19.0145670
  35.5848836  46.7768638  19.3285225  35.0260085  46.2596132  18.1879592
  34.9728923  46.4784343  18.9389066  39.4063651  47.2688029   9.9105673
  39.9017316  46.5511024   9.8709693  38.5963426  46.9658827   9.7960160
  39.3607544  47.1185675   9.8879399  41.4715470  50.0191717  12.5982801
  41.8970541  49.4966138  12.0453226  41.1072389  50.6172554  12.0771424
  41.4802072  50.0301944  12.4391811  31.1069549  58.3155934  11.3580147
  31.4216108  59.1292322  11.3657929  31.5162963  57.9306153  12.0262306
  31.2137647  58.3784636  11.4584239  38.0594069  53.7325981   8.9283959
  38.5305247  54.4466243   9.0973944  38.3954248  53.1324731   9.4643828
  38.1789184  53.7497445   9.0316335  40.1471054  55.3427294  21.1076031
  40.2568019  54.5535855  21.4632778  40.4761950  55.2533230  20.3050369
  40.2123459  55.2133147  21.0418422  34.9763564  38.5053451  15.8842054
  35.1091470  37.7084445  16.2123029  35.3608717  39.0319854  16.4640329
  35.0519893  38.4653368  16.0185557  38.6968015  53.5243915  15.6911652
  38.1488961  52.9001799  15.4231717  39.1581044  53.7138187  14.9755731
  38.6835225  53.4602965  15.5462083  41.5061880  41.5929269  13.0762844
  40.9224869  42.0938476  12.6640411  41.8266174  41.0858826  12.4427167
  41.4675055  41.5921104  12.9221351  32.6352011  38.5012626  14.1319947
  33.1796424  38.1603753  14.7224289  32.6888947  39.3598088  14.2741232
  32.7241130  38.5767886  14.2401821  28.4482570  52.2629042  11.0058755
  29.0527427  52.2224877  10.3772576  28.2409882  53.1100194  11.0362811
  28.5071467  52.3817045  10.9174872  38.2626342  54.5294988  12.2220993
  39.0824716  54.3857954  12.4837288  37.9820419  55.1541187  12.7637431
  38.3423085  54.6005340  12.3408932  23.6833852  51.2463660  10.8757678
  23.5858130  50.4359931  11.1847735  24.4662722  51.2255453  10.4903947
  23.7849988  51.1230750  10.8644541  54.7339992  62.1859839   5.1863869
  54.7033996  63.0404476   5.3582138  55.3321341  61.8855132   5.7450013
  54.8177150  62.2676336   5.2938671  47.9339677  61.2735490   9.9416800
  47.0777572  61.4343989   9.9925916  47.9807331  60.4027554   9.9621861
  47.8138788  61.1686292   9.9522866  42.3180817  70.8098208   5.7054031
  41.5663716  70.4313747   5.4770076  42.7666828  70.8416642   4.9572841
  42.2730483  70.7583815   5.5611533  51.2433393  67.5422016  19.5477256
  51.9500161  67.0474047  19.6764190  51.4321329  67.9831097  18.8179914
  51.3761299  67.5340366  19.4586301  47.7705777  71.2323578   1.1339578
  47.4357145  71.9100499   0.6983800  48.2832647  70.8428889   0.5456450
  47.7971358  71.2748156   0.9826370  47.3110068  73.1837846   7.0750690
  47.6949447  73.7524745   6.5355465  47.2469209  72.4587357   6.5956506
  47.3583495  73.1613310   6.9244552  50.7791498  63.3327534  12.5848451
  51.3247458  64.0112621  12.6442421  50.7208374  63.1914995  11.7250033
  50.8507412  63.4119536  12.4660512  43.8965573  70.8216600   7.9716804
  43.9975936  70.0116954   8.2813931  43.3007318  70.7273547   7.3416482
  43.8238111  70.6881628   7.9243042  52.5556567  64.7612141   3.4582179
  52.4396093  65.5119827   3.8874317  53.3512453  64.5036095   3.7078266
  52.6561156  64.8346988   3.5586271  43.7366312  75.7394190   9.3731660
  44.3803768  76.1807354   9.7627818  44.0622568  74.9347616   9.2861918
  43.8798141  75.6859384   9.4177137  37.0930617  66.8436887   7.5969137
  36.8580802  66.0104539   7.4901406  37.2316258  67.1241553   6.7830338
  37.0786280  66.7620390   7.4611492  39.3920705  59.0122618  10.4953445
  38.7725736  58.4215265  10.3263460  39.2904568  59.6034053   9.8617768
  39.2858380  59.0126700  10.3758434  44.4386892  68.7506164   4.7451521
  44.7602733  69.2911372   4.1412829  45.0858989  68.1802936   4.8773811
  44.5812947  68.7465340   4.6758557  46.4888600  60.7522159   4.8285908
  47.1868765  60.9310287   5.3207371  46.8040933  60.2292499   4.2056297
  46.6383937  60.7015931   4.8087918  39.1189838  62.5574899  12.7397014
  38.9948534  63.1437345  13.3746833  39.7708122  62.0635095  13.0409289
  39.1963487  62.5713704  12.8782943  46.6776536  67.1392604   4.8165700
  47.1170171  66.5309705   5.2620472  46.5281198  66.7599978   4.0451165
  46.7198001  66.9931075   4.7684867  44.1448179  65.7336616  12.0184525
  44.7897181  65.2409059  11.6995474  44.3849956  65.8761403  12.8450603
  44.2758764  65.6814058  12.0934058  46.6834270  68.5791522  11.6691418
  46.9657513  67.7842928  11.4478173  47.4120430  69.0572110  11.6896479
  46.8323834  68.5326119  11.6394433  44.6615464  56.1214556   8.9107183
  44.3318794  56.5725700   8.2410881  43.9860466  56.0430719   9.4580189
  44.5125900  56.1765691   8.8930406  50.2785872  65.4919786   1.7696469
  50.1937167  66.3480752   1.9146038  50.7670255  65.2164110   2.4378628
  50.3374769  65.5777107   1.8898550  51.8691872  52.1100079   7.1556793
  51.5545313  52.8003557   7.5877216  51.3518813  52.0544861   6.4542294
  51.7456342  52.2034967   7.1153742  51.2104305  62.1104580   3.2694204
  50.6815777  62.3264213   3.9291510  51.7329325  62.8040718   3.1895173
  51.2092758  62.2447717   3.3549803  56.6652358  67.6850884   8.6427248
  55.8350061  67.8961528   8.8060665  56.6161611  66.8587939   8.3669532
  56.5359094  67.5940491   8.6264614  43.1003913  66.0067797   2.0701672
  42.5161128  66.5117828   2.4767536  42.6974008  65.7810184   1.3298264
  42.9543217  66.0476045   2.0206697  38.6547942  71.7222558   8.8725343
  38.1715520  72.4473047   8.8484927  39.4671260  72.0198688   8.9835501
  38.7038689  71.8724911   8.8852623  44.7262096  70.5154738  11.4775158
  44.2089037  70.1562153  10.8736466  45.4236487  69.9916913  11.4881224
  44.7527677  70.3852426  11.3905417  48.3825688  70.9649553  17.4391331
  48.4709034  70.7775693  18.2869541  48.8115400  70.3186982  17.0396178
  48.4587790  70.8412560  17.5063082  45.9496148  70.2480712  16.4208993
  45.3866982  69.8353322  16.9448654  46.7117171  70.1733618  16.8402136
  45.9790596  70.1758113  16.5601993  47.5581128  62.2533449   0.5470592
  47.7977131  62.4611432  -0.2654064  47.8796969  61.4490957   0.6559537
  47.6418285  62.1647550   0.4431146  42.8671418  54.1826844   4.3930130
  43.6217386  54.5505161   4.1547181  42.6898952  54.5566399   5.1609310
  42.9525896  54.2925032   4.4715019  41.5092139  72.2378734   9.0245623
  42.2112718  71.7230723   9.0818380  41.4289622  72.5652885   9.8292498
  41.6015899  72.2092960   9.1518415  56.1606317  60.3321285  12.4377670
  55.3234738  60.4023472  12.6725264  56.1294547  60.3345780  11.5651972
  56.0324599  60.3431512  12.3437218  42.5571046  62.4754321  18.1526038
  42.7291549  62.3660215  19.0011320  43.0940403  63.1208726  17.9157231
  42.6616050  62.5546322  18.2431135  41.2228482  56.5897163   1.0908243
  41.0404056  56.8069044   0.2649236  42.0854095  56.7036176   1.1466858
  41.3233072  56.6387061   0.9762730  40.8342914  68.4285086   8.5331231
  41.6731814  68.6608018   8.5804993  40.8654684  67.5589397   8.4638267
  40.9624632  68.3342032   8.5295876  41.4595617  68.8485961  12.8344537
  41.9993842  68.7057092  13.5047909  40.7765564  69.2482712  13.2028563
  41.4387771  68.8865632  12.9878959  46.9028202  53.5923574   4.1257267
  47.6314362  53.4139529   3.6795423  46.9923095  54.4341654   4.3364445
  47.0234864  53.6907452   4.0910785  50.8836502  64.5276961   8.0289561
  51.6394017  64.9608476   8.0678470  50.9898827  63.8781731   8.6024197
  51.0106673  64.4954445   8.1187587  53.9216673  68.3550239   8.7791964
  53.4851905  68.3586981   9.5350936  53.5879589  69.0355738   8.3471542
  53.8079293  68.4562694   8.8272797  48.4945747  70.3958572  20.1035114
  49.2786164  70.5089419  20.4690857  48.2942342  69.5699709  20.2993800
  48.5811772  70.2905291  20.1869501  36.8632763  65.0686252  12.9878958
  36.5971178  64.2525368  13.1469949  36.8771327  65.1139407  12.1174474
  36.8257485  64.9543156  12.8832440  53.8414156  55.3964067  11.0221392
  54.4840065  55.4662171  11.6083307  54.0937177  54.7293289  10.5200934
  53.9736288  55.3090415  11.0348671  40.7690510  59.8671336  -0.3969284
  40.0548687  59.5809516   0.0153149  41.2534478  60.2067962   0.2437104
  40.7349873  59.8752986  -0.2413649  41.6131369  58.6064630  15.6345966
  40.9203166  58.1361610  15.8806698  42.2291696  58.3802934  16.2087673
  41.6015899  58.5031762  15.7555119  48.6516140  72.3068674  13.7501570
  47.8531386  72.0668174  14.0075439  49.1002152  72.3583066  14.4968618
  48.5990752  72.2791065  13.8986494  57.0561020  65.0731159   7.6711601
  57.7177454  64.5121827   7.5707510  56.4152432  64.5783189   7.9964293
  57.0589887  64.9167568   7.7043942  47.9437827  68.3701290  -0.0207475
  48.3588976  68.0386314  -0.7122980  47.1129757  68.1370192  -0.1487339
  47.8825836  68.2872546  -0.1416628  37.2726176  65.8545031  10.2690703
  37.0901749  65.8291917   9.4162995  38.0075845  66.3243969  10.3079611
  37.3540240  65.9206393  10.1488621  53.3425850  66.0896541   7.4123590
  53.5781440  66.2341740   6.5850441  53.4915414  66.8538949   7.8055104
  53.3991654  66.2235595   7.3487194  40.3371928  62.5730034  16.7772811
  41.0611900  62.5583065  17.2637706  40.4388064  63.2825389  16.2794779
  40.4590137  62.6754737  16.7751598  55.1716307  64.9298207   5.2493194
  55.5024524  65.4625847   4.6433289  55.7449395  64.9837095   5.9055145
  55.3049986  65.0167776   5.2570976  47.7116877  66.0529118  21.6421758
  46.9189858  66.3672630  21.8274378  47.8265804  66.2680587  20.8042543
  47.6112288  66.1312955  21.5460093  50.3848196  62.7763110   5.9316774
  50.4795051  63.5152404   6.3856400  49.7607040  62.3480585   6.3651339
  50.3057226  62.8224430   6.0624922  48.6400670  65.9549322  16.5807055
  49.2139532  65.3176566  16.7355619  48.5615474  65.9553405  15.7116713
  48.7133905  65.8614434  16.4753466  37.2397087  62.7338532  10.4189769
  37.8170589  62.5974982  11.0582015  36.5411148  62.2774316  10.6735354
  37.2218108  62.6460798  10.5512059  50.6371218  64.6211849  -0.8346274
  50.5551380  64.6914037   0.0308713  51.2750938  65.1841593  -1.0262533
  50.7191055  64.7150821  -0.7356324  43.9964389  64.3872587   8.6328252
  43.7383633  63.5544322   8.6059552  44.0512872  64.6130200   7.7920753
  43.9664167  64.2970359   8.5048389  49.0765439  56.4901038   8.7332345
  48.3721766  56.0010224   8.8916264  49.1250413  56.5023512   7.8620790
  48.9795490  56.4190686   8.6271685  42.9699101  61.9410350   9.1193147
  42.3948692  62.1002518   9.7557108  42.5934777  61.3045759   8.6561598
  42.8301913  61.8708163   9.1447706  46.6372390  60.4133699  13.9785526
  46.2486822  59.9887917  13.3237717  45.9727088  60.6615849  14.4862552
  46.4819317  60.3872420  13.9573394  56.2795659  60.1708704   6.7533356
  56.0232223  59.3588645   6.5631238  57.1224973  60.1786271   6.5263543
  56.3661684  60.0520701   6.6918173  32.7155920  61.5850425   7.1337588
  32.8016172  61.2082293   7.9151118  33.3431717  61.2110870   6.6557546
  32.8212471  61.4735907   7.1783065  50.4598751  54.1108328  11.4909510
  50.8409263  53.4286499  11.8777384  49.6562035  53.8217930  11.3085174
  50.3975213  53.9675376  11.5213566  47.7411328  64.6432304   2.1762333
  48.5551967  64.9347196   2.0645104  47.6770469  63.9892166   1.6020626
  47.8514067  64.5897498   2.0751170  53.9620818  67.3258300  16.5891908
  53.7259455  66.4946365  16.4703969  54.6064047  67.2743907  17.1746752
  54.0215489  67.1955988  16.6577802  43.6119236  68.1153821   7.3034645
  44.2493183  67.8765569   7.8486438  44.0374308  68.3190980   6.5687805
  43.7695402  68.1104831   7.2751802  38.3031878  70.3542158  11.1868948
  38.3436024  70.6257009  10.3588728  38.8626402  70.8784066  11.6026736
  38.3915224  70.4717913  11.1260837  44.2522051  63.3356111   1.6409534
  44.6367204  63.1163818   2.3926079  44.0033671  64.1619056   1.7710610
  44.2724124  63.4254257   1.7710610  44.4190591  56.6162526  21.3572118
  44.1044033  57.3862089  21.0941681  44.0980524  56.0532782  20.7724345
  44.3249511  56.6472795  21.2313468  54.9857239  67.1102749  12.6520203
  54.6803056  67.8430805  13.0133518  54.2663454  66.7040678  12.3712989
  54.8344581  67.1584482  12.6633340  45.9940708  68.5926244   8.9828431
  46.0679716  68.4301416   9.8370281  46.8110214  68.7816433   8.7388913
  46.1257067  68.5962986   9.0726457  60.6859031  63.7495749  11.9788547
  60.6183531  63.7691708  11.1091134  60.6714693  64.5926077  12.2044218
  60.6737787  63.8769484  11.8841024  39.7546465  68.9384107   6.0122874
  38.9284582  69.1845844   5.8857153  39.8158456  68.8596187   6.8784932
  39.6420632  68.9629056   6.1211819  41.9722488  55.0053048   6.9718315
  41.1044914  55.0775647   7.0375924  42.2597693  55.8075127   7.1606290
  41.8862237  55.1347195   7.0093081  51.0955377  55.1530907  15.3029636
  51.8408969  54.9640717  14.8893062  50.6792682  55.6789145  14.7443493
  51.1440351  55.2033052  15.1594210  44.5345294  71.5560987   3.7141904
  44.8243592  71.1649968   2.9901131  45.2648775  71.7377692   4.1547180
  44.6852178  71.5254801   3.6724711  58.4717648  62.5240135  10.2535141
  59.0225570  61.8908205  10.4932233  58.4561763  63.0555528  10.9450646
  58.5502844  62.5089084  10.3914000  45.1240039  66.3578733  14.7995035
  44.6251733  67.0694500  14.8779923  45.9340263  66.6779399  14.7613197
  45.1696146  66.5105581  14.8051603  42.4751209  73.5328369   6.7802054
  42.2551505  73.2425724   7.5728721  42.2545731  72.8743324   6.2519966
  42.4098803  73.3928078   6.8190963  41.3868156  65.6201686   9.0457756
  41.0981405  64.9939157   9.5803483  42.2551505  65.5621973   9.1122436
  41.4728408  65.5189230   9.1348710  52.1746054  60.7636469   9.3639738
  51.8310820  60.0426804   9.7146987  52.2739097  60.5550320   8.5218096
  52.1388097  60.6260672   9.2911418  44.6419165  74.9057759   5.5632746
  45.2943223  74.3734202   5.7923772  43.9444774  74.5526412   5.9500620
  44.6349883  74.7747282   5.6544914  41.5900430  67.2596937   4.9700121
  42.3446398  67.6409976   5.1835583  40.9971043  67.7108080   5.4246817
  41.6137143  67.3825764   5.0682999  52.6359083  67.2262173   4.9063726
  53.2017116  67.8855383   4.8222269  51.9886987  67.5711871   5.3780128
  52.6237840  67.3744115   4.9636482  44.0507097  59.2159777  20.0957333
  43.2406873  59.5217557  19.9847175  44.5281784  59.9365360  20.2109917
  44.0010576  59.3674378  20.0964404  42.9098656  68.4305498  10.3440236
  42.3879410  68.5705790  11.0292101  43.2972677  67.6716162  10.5342353
  42.8902357  68.3391022  10.4741313  39.8989840  58.4811307   4.4135191
  39.6114636  58.1112577   3.6767138  40.5860309  58.9506162   4.1518896
  39.9578738  58.4958276   4.2650267  49.1065661  70.1700957   4.3300805
  48.8652337  69.4368818   3.9227870  49.2866994  70.7187814   3.6767138
  49.0973285  70.1423349   4.1731028  44.3364982  65.4609517   5.7421727
  44.1407765  66.0684252   5.1482030  44.5599328  64.7677461   5.2613401
  44.3399623  65.4487043   5.5837808  42.7343512  62.3464255   5.8602596
  43.4566164  62.5105413   5.4006402  42.2551505  63.0673920   5.7541935
  42.7707243  62.4762485   5.7768210  50.6937020  58.6828054  11.2399280
  49.8548120  58.7089333  11.0037544  50.7641387  59.3298789  11.8204627
  50.5805413  58.7824180  11.2908397  40.3851129  64.7522328  14.9656735
  40.8972226  65.0306581  14.3165495  40.0987471  65.4911622  15.3319548
  40.4185992  64.9024681  14.9246613  49.1406298  55.5813431   5.9726896
  49.8432651  55.3821179   5.4946855  48.8750487  54.8089373   6.2795740
  49.2052930  55.4376397   5.9472338  54.5694544  63.8896041   8.5260522
  54.4828518  64.0451467   9.3795301  54.1145023  64.5334116   8.1519927
  54.4897800  64.0071796   8.5967629  37.4718035  59.2592519   5.2620472
  37.5734172  60.0618681   5.5901447  38.2673922  59.0579855   4.9643552
  37.6045941  59.3478418   5.2655827  43.9034854  56.8448716  15.0257777
  43.7118051  56.8603851  15.8757201  44.7533450  57.0412390  15.0024432
  44.0010576  56.8763067  15.1481072  38.2881767  59.3739698  13.0041593
  38.1467259  58.5223638  13.1286101  38.5722331  59.4168358  12.1803799
  38.3089613  59.2539448  12.9009218  48.4420360  61.2106788   7.1486082
  48.1955074  61.1302539   7.9822871  48.7705483  60.4260256   6.9548609
  48.4541603  61.0833053   7.2433605  52.3368408  67.9190147  10.9372863
  52.1982768  68.6171193  11.4421605  51.5568406  67.7638804  10.5809045
  52.2011635  67.9990314  10.9599137  50.6746494  64.2186522  17.1895245
  50.6694532  63.3466339  17.1937671  51.3807487  64.4174692  16.7164700
  50.7791498  64.1190397  17.1202280  44.4017387  63.9463506  16.5609065
  44.5460763  64.5264715  15.9252175  44.7493035  64.3239803  17.2658919
  44.4744848  64.0884210  16.5708060  46.5737304  63.1453675  14.3434196
  45.8260618  63.3384689  13.9382474  46.7278829  62.3198894  14.1058318
  46.4859732  63.0518786  14.2479602  43.4745142  72.1366278  13.4270092
  43.6234706  71.5769194  12.7743496  44.2545144  72.2158280  13.8102610
  43.6119235  72.0651844  13.3867041  53.8321781  67.2768401   1.6989362
  53.4528590  66.4905539   1.6918652  53.1688027  67.8255258   1.5561006
  53.6780256  67.2413225   1.6770159  45.9998442  72.3080921  14.7054582
  45.9242114  71.6389732  15.2605371  45.9288302  73.0098709  15.2195249
  45.9779049  72.3125828  14.8631431  46.8139081  57.0404225  15.2329600
  47.2711695  57.7728200  15.3602392  46.8895410  56.6170691  15.9916856
  46.8930051  57.0861464  15.3630677  39.0572072  57.2870045  16.3219044
  38.5214262  56.6750403  16.6379811  39.1189837  57.8618181  16.9752710
  38.9867705  57.2816973  16.4654471  51.2866407  50.2194101   9.1023443
  51.4049975  50.6770564   8.3690746  51.1128583  49.4139362   8.8159661
  51.2785578  50.1687873   8.9524377  46.6568689  70.8281920   5.5378188
  47.4218580  70.5591564   5.2160853  46.5546779  70.3431930   6.2548251
  46.7550185  70.7171485   5.5958016  44.6921459  59.0306329  12.0771424
  43.9017534  58.8497789  12.3988760  45.0882082  58.2533282  12.0601719
  44.6338335  58.8893790  12.1223973  49.1787350  67.8594104  -2.4821862
  49.9460335  67.9194229  -2.8916010  48.7318659  67.2874545  -2.9665544
  49.2260777  67.7830679  -2.6144152  50.0765145  66.6648760   9.8030870
  49.4010147  66.4333992  10.3044257  50.0857522  66.0569942   9.1772975
  49.9783650  66.5407685   9.7847022  47.2059289  61.5066589  16.5594923
  47.1418431  62.3676545  16.4315060  47.3456477  61.1898582  15.7590474
  47.2174759  61.5866755  16.4223136  52.0781880  69.5213892   2.0341048
  52.1601717  70.3280878   1.7102499  52.5631622  69.5409851   2.7581822
  52.1619038  69.6434554   2.0927947  45.8878383  64.1998728  10.7011126
  45.4640632  64.4003227   9.9650144  45.7123238  63.3527576  10.8135426
  45.7989264  64.1047509  10.6084816  45.3890077  75.7149241  13.1632583
  45.8786007  75.0160030  12.9808248  44.8174309  75.4173111  13.7508641
  45.3774607  75.5675464  13.2233624  41.1760828  64.6950779   6.1339098
  41.3325447  64.6297582   6.9895091  41.5161421  65.4699332   5.9217778
  41.2494063  64.7999977   6.2293693  47.7139973  64.0708663   5.0032462
  48.2555518  63.5679044   5.4671082  48.0286532  64.0173858   4.1921947
  47.8404370  63.9888084   4.9516274  51.5857080  68.2811310  22.1159374
  52.3991946  68.0096459  22.2764506  51.4252047  67.9818850  21.3119570
  51.6827029  68.1966236  22.0204780  45.8826423  69.4626014   2.2872490
  45.9519243  68.6040553   2.4265490  46.6614878  69.6797895   1.9591514
  46.0079273  69.3678878   2.2589647  48.8629242  58.9644967  15.0554762
  49.0771212  58.3255882  14.5018116  48.2463141  59.4090791  14.6262624
  48.8034572  58.9355111  14.9105193  50.2733910  71.8863716   6.5008983
  49.8813702  71.5830431   5.7831849  50.4286982  72.7232806   6.3113937
  50.2387500  71.9647552   6.3665480  37.7495090  61.8785730   6.4499866
  38.1294055  62.2970275   5.7860133  37.1750455  62.4599185   6.7568709
  37.7206415  62.0263589   6.3976607  51.0268330  60.5734033  15.9938069
  50.2145012  60.2659923  16.0751242  51.4858265  60.0933033  16.5580781
  50.9748715  60.4570525  16.0892663  50.4373585  68.4513705   6.4415014
  50.0788240  68.6228347   7.2179046  49.9512296  68.9126910   5.8843012
  50.3132282  68.5452676   6.4740283  48.2543971  52.0744903  10.0442105
  47.3837529  52.0483624   9.9975414  48.5084312  51.9022095   9.2267951
  48.1637531  52.0455047   9.9162242  45.2261950  64.1312870  -1.0184752
  45.5154475  64.9077752  -0.7441178  45.3133749  63.6201601  -0.3170253
  45.2816207  64.1704788  -0.8742254  48.1221838  61.9794104  20.7766772
  48.5921469  62.6036220  21.1634646  48.1683718  61.3111080  21.3359986
  48.1989714  61.9728784  20.9166843  45.2793111  54.0851131  11.5015575
  44.7631600  53.3931323  11.6267154  44.7187040  54.7521909  11.4478174
  45.1199625  54.0814389  11.5121641  47.3485345  54.6244091  13.3308428
  46.9617098  54.6493123  14.1121958  46.8618282  54.0585770  12.8782945
  47.2197854  54.5439842  13.3796332  51.5978324  69.3417600  17.3882214
  52.2358045  68.8477796  17.0544671  50.9552416  69.2695001  16.8034441
  51.5972551  69.2576609  17.2524569  53.3235324  61.1906746  11.9548130
  52.8962932  61.1033095  11.1996230  52.6861377  61.2984522  12.5402974
  53.1664932  61.1939406  11.9293572  47.0142487  51.5111077  15.6218688
  47.6435605  52.0471377  15.3439758  47.1828349  51.4188436  16.4732253
  47.1320281  51.5772439  15.7067216  46.8156401  56.2982272  17.8945099
  47.6429831  56.0267421  17.9503714  46.8364248  57.0943113  18.2508918
  46.9409252  56.3762026  17.9560282  51.6532581  70.0337409  14.0287571
  52.4424959  69.6826473  14.1489653  51.8276179  70.8473797  13.7664205
  51.7952863  70.1023266  14.0075439  41.3925891  63.4446134  11.0815360
  40.5513898  63.3450009  11.2894254  41.6015899  64.2141615  11.4329681
  41.2990584  63.5438178  11.1642675  38.8701458  61.0665671   8.9100111
  38.4758156  61.1408683   8.1350220  38.3141575  61.4523618   9.4608472
  38.7304271  61.1347446   8.8767771  50.5066405  54.0446965   8.5903990
  50.7115998  53.9769273   9.4360987  50.1792829  54.8505787   8.5225167
  50.4881653  54.1532906   8.7063645  45.2042556  61.3727534  10.3312958
  44.9005694  60.8183522  10.9323365  44.5021977  61.5519744   9.8440992
  45.0558766  61.3172316  10.3482663  44.2608653  58.6828053   4.8957659
  44.5368388  57.9646966   4.4835227  44.8607323  59.2812973   4.6878766
  44.3901918  58.6648424   4.8038421  43.2660907  68.5877254  15.0385055
  43.1581262  68.5979317  15.9047113  43.4756689  69.4132035  14.8490009
  43.2811018  68.7118329  15.1389147  53.7600093  54.5978730   8.0706755
  53.1474406  55.0849132   8.4560487  53.8564268  53.9222221   8.6144406
  53.6837990  54.5697038   8.2085613  47.7619174  56.3541571   3.1704254
  48.2162920  56.5252131   3.8952099  48.2359220  55.7409682   2.7702030
  47.8987494  56.2892456   3.2178016  41.2834699  65.8389897  12.5006993
  40.6922632  66.4799395  12.4710008  42.0455723  66.2627514  12.4738292
  41.3082960  65.9965735  12.4922140  41.6795322  56.9991895  13.1675011
  42.1396804  57.0730824  13.9050134  41.7251429  57.7973149  12.8174832
  41.7545877  57.1286042  13.2247767  43.3278672  57.6658589  17.7347038
  42.9364237  57.0191937  18.1702815  43.4964534  58.2570025  18.3541293
  43.2949582  57.6572857  17.8909744  57.4025121  65.6695666  13.4984271
  57.4608244  66.1182315  14.2444248  56.7691588  66.0794479  13.0614351
  57.3176416  65.7969401  13.5436820  51.0424215  71.2899208   9.9339017
  50.8443904  71.7790023   9.2395229  50.4211926  71.4940450  10.5123151
  50.9211780  71.3915747   9.9162241  45.1032194  63.0584105   4.2749262
  45.8474239  63.4458382   4.5132212  45.2492890  62.2141531   4.4389749
  45.2342779  62.9914578   4.3343231  47.0211769  54.8534364   9.3081123
  46.1747814  55.0257172   9.1822473  47.0182902  54.0483708   9.6446951
  46.8958919  54.7595393   9.3392250  48.0910070  58.6309579  10.1743181
  47.6170024  58.1051341  10.6848492  48.4628205  58.0839051   9.6058043
  48.0759959  58.4725575  10.1658328  38.4683100  60.6281085  15.5426727
  39.3308713  60.5276794  15.4564057  38.1374883  60.0475795  14.9812299
  38.5468296  60.5272712  15.4472133  54.3546800  63.6911954  11.5849962
  54.1145023  62.8518369  11.5892388  54.8338807  63.7712121  12.3090735
  54.3898984  63.5793354  11.6924764  50.0193569  59.5246133   3.2368935
  49.4916588  59.6074877   2.5474644  50.4789277  60.2664005   3.2333580
  50.0095420  59.6466796   3.1343630  56.3551987  60.4713411   9.5379221
  56.1161757  60.4309246   8.7000005  56.5185888  61.3184563   9.6644942
  56.3442291  60.5905496   9.4332703  52.9598017  64.8563361  15.4684266
  53.6832216  64.4035887  15.2895286  52.6947980  65.1368026  14.6856594
  53.0279291  64.8314329  15.3262981  41.8284886  59.4523534  12.2037145
  41.2037956  59.4641926  11.5963098  41.4930481  59.9283709  12.8528385
  41.6870378  59.5242051  12.2093714  38.5410561  67.5123994  13.6440909
  38.0110486  66.8216433  13.6935884  38.8135655  67.5034180  12.8153618
  38.5035284  67.4091126  13.5288325  49.5730652  68.0949697   2.3678592
  50.2964851  68.5607810   2.2243165  49.1331243  68.1623306   1.6176189
  49.6146344  68.1733533   2.2363373  48.7416807  64.9547239  13.6179281
  48.1273800  64.4105289  13.9127916  49.2584092  64.4411475  13.1385097
  48.7272469  64.7983648  13.5903509  47.9813104  66.0251509  11.3523579
  47.5540712  65.4001228  10.9189015  47.9738048  65.7426431  12.1782587
  47.9172245  65.8904290  11.4103407  41.0975631  61.0616682  14.4212013
  41.2569118  60.3060006  14.8263735  40.9168525  61.6107622  15.0752751
  41.0940990  61.0310496  14.5774719  49.0395934  53.2277918  14.9762803
  48.5436495  53.4241592  14.2854370  49.7964996  53.6270586  14.8051605
  49.0782759  53.3155651  14.8482940  46.3098814  56.9020264  11.5666113
  46.3341301  56.3680376  10.8778893  46.5610287  56.3937572  12.2291704
  46.3508732  56.7481167  11.5630758  33.8206404  64.1851758  11.0009258
  33.7149853  64.1398603  10.1361342  33.0706624  64.5305539  11.2823542
  33.6942006  64.2292667  10.9146587  42.5900136  55.6291082  10.9471858
  42.6298508  56.1300288  11.6606565  41.7649801  55.7201475  10.6777781
  42.4739662  55.7172898  11.0122396  44.7729749  65.1951822  19.0492152
  43.9225379  65.3323536  19.1849797  44.9357877  64.4615600  19.4939854
  44.6713612  65.1065923  19.1347752  44.0114499  62.1451592  13.2445757
  43.1806429  62.3125410  13.0381005  43.9566017  61.7687542  14.0294642
  43.8803914  62.1141323  13.3294285  41.8198283  55.6360485  18.8802168
  42.4450986  55.0922617  19.1531600  41.3648763  55.1555402  18.3109958
  41.8446543  55.4849966  18.8363761  42.3850543  60.4207183   3.7735875
  42.5253504  60.9179647   4.4764516  42.8833076  59.7193478   3.9150088
  42.4791624  60.3909162   3.8987454  42.4150766  61.2874294   1.1028451
  43.0495845  61.8834719   1.0377913  42.4976376  60.9877752   1.9174322
  42.5207317  61.3315202   1.2131538  55.3933331  63.8189772  13.9714816
  55.9851172  64.4587022  14.0033014  55.8292326  63.1212808  14.2606882
  55.5451763  63.8108122  14.0195648  43.9929748  57.2188270   1.0773893
  44.3145589  56.7391352   0.4233156  44.2556692  58.0287916   0.8864705
  44.0795774  57.2678167   0.9529385  47.2226721  68.2407144  14.5972709
  46.7151812  68.7942991  15.0413340  46.9253367  68.3015434  13.7791484
  47.1031606  68.3313455  14.5421166  49.3888903  56.6060464  13.4397372
  49.8143975  56.1532990  12.8280899  48.7745896  56.0520534  13.7162160
  49.3617549  56.4574440  13.3902398  38.9203753  63.4842135   4.3717997
  39.4295983  64.0806642   4.7529303  39.3938026  63.2168109   3.6894417
  39.0647129  63.5327950   4.3272520  49.8334501  72.1570402   2.5276653
  49.1163811  71.9831264   2.0623890  50.4841239  71.9222974   1.9952139
  49.8236352  72.0966194   2.3805871  47.8283126  53.0775563   6.8487949
  47.1851444  52.9273210   7.4173088  47.4882533  52.8317909   6.0837054
  47.6828204  53.0187686   6.8190965  52.4182473  61.0334990   6.2717958
  51.7473663  61.5764692   6.1431024  53.1122223  61.5029845   6.0299653
  52.4211340  61.1833261   6.2173486  46.4669206  73.1731702  11.5029716
  46.2434861  72.4150531  11.8713743  45.9779050  73.2029723  10.7810156
  46.3612655  73.0653927  11.4506457  52.5810600  57.4890874   9.1808331
  52.9338210  57.0620597   9.8554130  51.7225402  57.4041717   9.3109408
  52.5060045  57.4135614   9.3003342  41.2794285  60.1198393   7.2391178
  40.5606274  60.5362526   7.5064041  41.6506647  60.6852632   6.6882816
  41.2286217  60.2647675   7.1973985  50.5793866  60.7526242  13.1293174
  50.5591793  60.5709538  13.9827952  50.6273067  61.6238261  13.1052757
  50.5828507  60.8542781  13.2516468  48.5240196  67.3413434  19.0541650
  48.4836051  66.6963111  18.4686806  49.3363514  67.2850052  19.3667062
  48.6383349  67.2372401  19.0138599  45.1147663  73.3932160   8.9566801
  44.7008062  72.7306290   8.5670643  45.7995038  73.5410019   8.4362495
  45.1546035  73.3172818   8.8223298  48.4812958  72.5522246   9.7090418
  48.0829241  72.6624516   8.9411238  47.8664177  72.7604312  10.2916977
  48.3311847  72.5995814   9.6821717  47.0540860  59.1596393   2.5764557
  46.4605699  59.4813390   2.0249124  47.0916137  58.3137489   2.3685663
  46.9715249  59.0820722   2.4647329  54.0134660  52.6109286  10.1092644
  53.5065525  51.9038425  10.0413821  54.8102094  52.2802474  10.2393720
  54.0561899  52.4582437  10.1191639  49.9298676  59.1175898   6.0066307
  49.7012369  59.1408599   5.1644666  50.1896752  58.2933365   6.1261318
  49.9344864  58.9991978   5.8991505  44.2117905  60.9710371  15.6091408
  43.6996808  60.3631554  15.9676439  44.0397401  61.6866963  16.0765383
  44.1107542  60.9873670  15.7307631  39.0583619  59.4147946  18.2593769
  38.8886210  60.0749321  17.7141976  38.6149569  59.6254507  18.9806259
  38.9682953  59.5433928  18.2855399  42.9843439  57.6552444   7.3020503
  43.4600805  58.0169524   6.6670684  42.4832038  58.3108912   7.5820646
  42.9808798  57.8046633   7.2497244  56.2154800  67.1274212   3.0933508
  56.5988406  67.8765568   3.3231605  55.4198914  67.3740032   2.8345497
  56.1548582  67.2743906   3.0891082  48.0886975  58.8934616  18.0493663
  48.6458405  58.6648425  17.4172129  47.7648040  59.6540281  17.7728876
  48.1233385  58.9718452  17.9150160  35.9585684  62.3194812  13.5182259
  35.4112403  61.6495457  13.6363128  36.7478062  61.9524660  13.5825727
  35.9937867  62.1659798  13.5450960  45.8070092  61.9802269  19.0145670
  46.5581419  62.2953946  19.3285225  45.9992669  61.7781440  18.1879592
  45.9461506  61.9969651  18.9389066  45.0270092  59.7993644   0.6693887
  45.4069057  59.8173273  -0.1154998  44.2862688  60.2447633   0.5484734
  44.9738930  59.8675419   0.5357455  52.6555382  58.1075835   6.2569466
  52.6549609  57.9524492   7.1153742  52.4511562  58.9538822   6.2010851
  52.6255160  58.2096456   6.3757405  34.7172653  61.5315620  10.6728282
  34.5394414  61.0792229  11.3983198  34.4291675  62.3341781  10.8566760
  34.6485606  61.5838177  10.8071785  50.3796234  62.7873337   9.9105673
  50.8749900  62.0696332   9.8709693  49.5696010  62.4844135   9.7960160
  50.3340128  62.6370983   9.8879399  45.8254846  66.6371150   2.0602677
  45.0166169  66.3137824   2.0135987  46.3329755  65.9304372   1.9930926
  45.7804513  66.4852467   2.0432972  36.4545123  64.0643343   7.7850041
  35.5890643  64.0529034   7.6732813  36.5543939  63.8773566   8.6321181
  36.3419290  64.0349405   7.8938986  52.4448053  65.5377024  12.5982801
  52.8703125  65.0151446  12.0453226  52.0804973  66.1357862  12.0771424
  52.4534656  65.5487251  12.4391811  42.0802133  73.8341242  11.3580147
  42.3948692  74.6477630  11.3657929  42.4895546  73.4491461  12.0262306
  42.1870231  73.8969944  11.4584239  49.0326653  69.2511289   8.9283959
  49.5037831  69.9651551   9.0973944  49.3686831  68.6510039   9.4643828
  49.1521768  69.2682753   9.0316335  51.1203637  70.8612602  21.1076031
  51.2300603  70.0721163  21.4632778  51.4494534  70.7718538  20.3050369
  51.1856043  70.7318455  21.0418422  45.9496148  54.0238759  15.8842054
  46.0824053  53.2269753  16.2123029  46.3341300  54.5505162  16.4640329
  46.0252476  53.9838676  16.0185557  49.6700599  69.0429223  15.6911652
  49.1221545  68.4187106  15.4231717  50.1313628  69.2323495  14.9755731
  49.6567808  68.9788273  15.5462083  49.0228503  50.9469085  12.4823147
  48.2174466  50.8366815  12.7990985  48.8935238  51.0481541  11.6253013
  48.8848636  50.9452755  12.4031187  52.4794463  57.1114577  13.0762844
  51.8957452  57.6123784  12.6640411  52.7998757  56.6044134  12.4427167
  52.4407639  57.1106412  12.9221351  45.0189262  56.0255172   3.3521519
  45.8404957  56.1953485   3.1103214  44.5558913  56.1802433   2.6287816
  45.0720425  56.0736905   3.2093163  43.6084594  54.0197934  14.1319947
  44.1529007  53.6789061  14.7224289  43.6621530  54.8783396  14.2741232
  43.6973714  54.0953194  14.2401821  39.4215153  67.7814350  11.0058755
  40.0260011  67.7410185  10.3772576  39.2142466  68.6285502  11.0362811
  39.4804050  67.9002353  10.9174872  49.2358925  70.0480296  12.2220993
  50.0557299  69.9043262  12.4837288  48.9553003  70.6726494  12.7637431
  49.3155669  70.1190648  12.3408932  34.6566435  66.7648968  10.8757678
  34.5590713  65.9545239  11.1847735  35.4395305  66.7440761  10.4903947
  34.7582572  66.6416058  10.8644541  65.7072576  77.7045147   5.1863869
  65.6766580  78.5589784   5.3582138  66.3053924  77.4040440   5.7450013
  65.7909734  77.7861644   5.2938671  58.9072261  76.7920798   9.9416800
  58.0510156  76.9529297   9.9925916  58.9539914  75.9212862   9.9621861
  58.7871372  76.6871600   9.9522866  53.2913400  86.3283516   5.7054031
  52.5396300  85.9499054   5.4770076  53.7399412  86.3601950   4.9572841
  53.2463067  86.2769123   5.5611533  62.2165977  83.0607324  19.5477256
  62.9232744  82.5659355  19.6764190  62.4053912  83.5016405  18.8179914
  62.3493883  83.0525674  19.4586301  58.7438360  86.7508886   1.1339578
  58.4089729  87.4285807   0.6983800  59.2565231  86.3614197   0.5456450
  58.7703941  86.7933464   0.9826370  58.2842651  88.7023154   7.0750690
  58.6682031  89.2710053   6.5355465  58.2201793  87.9772665   6.5956506
  58.3316079  88.6798618   6.9244552  61.7524082  78.8512842  12.5848451
  62.2980042  79.5297929  12.6442421  61.6940958  78.7100303  11.7250033
  61.8239996  78.9304844  12.4660512  54.8698156  86.3401908   7.9716804
  54.9708519  85.5302262   8.2813931  54.2739902  86.2458855   7.3416482
  54.7970695  86.2066936   7.9243042  63.5289150  80.2797449   3.4582179
  63.4128676  81.0305135   3.8874317  64.3245037  80.0221403   3.7078266
  63.6293740  80.3532296   3.5586271  54.7098896  91.2579497   9.3731660
  55.3536351  91.6992662   9.7627818  55.0355152  90.4532924   9.2861918
  54.8530725  91.2044692   9.4177137  48.0663201  82.3622195   7.5969137
  47.8313385  81.5289847   7.4901406  48.2048841  82.6426861   6.7830338
  48.0518863  82.2805698   7.4611492  50.3653288  74.5307925  10.4953445
  49.7458320  73.9400573  10.3263460  50.2637152  75.1219361   9.8617768
  50.2590964  74.5312008  10.3758434  55.4119476  84.2691472   4.7451521
  55.7335317  84.8096680   4.1412829  56.0591572  83.6988244   4.8773811
  55.5545531  84.2650647   4.6758557  57.4621184  76.2707467   4.8285908
  58.1601348  76.4495595   5.3207371  57.7773516  75.7477807   4.2056297
  57.6116521  76.2201239   4.8087918  50.0922421  78.0760207  12.7397014
  49.9681118  78.6622653  13.3746833  50.7440706  77.5820403  13.0409289
  50.1696070  78.0899012  12.8782943  57.6509119  82.6577912   4.8165700
  58.0902755  82.0495013   5.2620472  57.5013782  82.2785286   4.0451165
  57.6930585  82.5116383   4.7684867  55.1180762  81.2521924  12.0184525
  55.7629765  80.7594367  11.6995474  55.3582539  81.3946711  12.8450603
  55.2491347  81.1999366  12.0934058  57.6566854  84.0976830  11.6691418
  57.9390096  83.3028236  11.4478173  58.3853014  84.5757417  11.6896479
  57.8056417  84.0511427  11.6394433  55.6348047  71.6399864   8.9107183
  55.3051377  72.0911008   8.2410881  54.9593049  71.5616027   9.4580189
  55.4858484  71.6950999   8.8930406  61.2518456  81.0105094   1.7696469
  61.1669751  81.8666060   1.9146038  61.7402839  80.7349418   2.4378628
  61.3107353  81.0962415   1.8898550  62.8424455  67.6285387   7.1556793
  62.5277896  68.3188865   7.5877216  62.3251397  67.5730169   6.4542294
  62.7188926  67.7220275   7.1153742  62.1836889  77.6289888   3.2694204
  61.6548360  77.8449521   3.9291510  62.7061909  78.3226026   3.1895173
  62.1825342  77.7633025   3.3549803  67.6384942  83.2036192   8.6427248
  66.8082645  83.4146836   8.8060665  67.5894194  82.3773247   8.3669532
  67.5091677  83.1125799   8.6264614  54.0736497  81.5253105   2.0701672
  53.4893712  82.0303136   2.4767536  53.6706592  81.2995491   1.3298264
  53.9275801  81.5661353   2.0206697  49.6280525  87.2407866   8.8725343
  49.1448104  87.9658355   8.8484927  50.4403844  87.5383996   8.9835501
  49.6771273  87.3910219   8.8852623  55.6994679  86.0340046  11.4775158
  55.1821621  85.6747461  10.8736466  56.3969071  85.5102221  11.4881224
  55.7260261  85.9037734  11.3905417  59.3558271  86.4834860  17.4391331
  59.4441617  86.2961001  18.2869541  59.7847984  85.8372290  17.0396178
  59.4320374  86.3597868  17.5063082  56.9228731  85.7666020  16.4208993
  56.3599566  85.3538630  16.9448654  57.6849755  85.6918926  16.8402136
  56.9523180  85.6943421  16.5601993  58.5313711  77.7718757   0.5470592
  58.7709715  77.9796740  -0.2654064  58.8529552  76.9676265   0.6559537
  58.6150869  77.6832858   0.4431146  53.8404001  69.7012152   4.3930130
  54.5949969  70.0690469   4.1547181  53.6631536  70.0751707   5.1609310
  53.9258480  69.8110340   4.4715019  52.4824723  87.7564042   9.0245623
  53.1845302  87.2416031   9.0818380  52.4022206  88.0838193   9.8292498
  52.5748483  87.7278268   9.1518415  67.1338900  75.8506593  12.4377670
  66.2967321  75.9208780  12.6725264  67.1027131  75.8531088  11.5651972
  67.0057183  75.8616820  12.3437218  53.5303629  77.9939628  18.1526038
  53.7024133  77.8845523  19.0011320  54.0672987  78.6394034  17.9157231
  53.6348633  78.0731630  18.2431135  52.1961066  72.1082471   1.0908243
  52.0136639  72.3254352   0.2649236  53.0586679  72.2221484   1.1466858
  52.2965656  72.1572369   0.9762730  51.8075498  83.9470394   8.5331231
  52.6464397  84.1793326   8.5804993  51.8387267  83.0774705   8.4638267
  51.9357216  83.8527340   8.5295876  52.4328201  84.3671269  12.8344537
  52.9726426  84.2242400  13.5047909  51.7498147  84.7668020  13.2028563
  52.4120355  84.4050940  12.9878959  57.8760785  69.1108882   4.1257267
  58.6046946  68.9324837   3.6795423  57.9655678  69.9526962   4.3364445
  57.9967447  69.2092760   4.0910785  61.8569086  80.0462269   8.0289561
  62.6126601  80.4793784   8.0678470  61.9631410  79.3967039   8.6024197
  61.9839257  80.0139753   8.1187587  64.8949257  83.8735547   8.7791964
  64.4584489  83.8772289   9.5350936  64.5612173  84.5541046   8.3471542
  64.7811877  83.9748002   8.8272797  59.4678331  85.9143879  20.1035114
  60.2518747  86.0274727  20.4690857  59.2674925  85.0885017  20.2993800
  59.5544356  85.8090599  20.1869501  47.8365346  80.5871560  12.9878958
  47.5703761  79.7710676  13.1469949  47.8503910  80.6324715  12.1174474
  47.7990068  80.4728464  12.8832440  64.8146740  70.9149374  11.0221392
  65.4572648  70.9847479  11.6083307  65.0669761  70.2478597  10.5200934
  64.9468872  70.8275723  11.0348671  51.7423093  75.3856644  -0.3969284
  51.0281270  75.0994823   0.0153149  52.2267062  75.7253270   0.2437104
  51.7082456  75.3938294  -0.2413649  52.5863952  74.1249938  15.6345966
  51.8935749  73.6546918  15.8806698  53.2024280  73.8988242  16.2087673
  52.5748482  74.0217070  15.7555119  59.6248724  87.8253981  13.7501570
  58.8263970  87.5853482  14.0075439  60.0734736  87.8768374  14.4968618
  59.5723335  87.7976373  13.8986494  68.0293603  80.5916467   7.6711601
  68.6910037  80.0307135   7.5707510  67.3885015  80.0968497   7.9964293
  68.0322471  80.4352876   7.7043942  58.9170411  83.8886598  -0.0207475
  59.3321559  83.5571622  -0.7122980  58.0862341  83.6555500  -0.1487339
  58.8558420  83.8057854  -0.1416628  48.2458760  81.3730339  10.2690703
  48.0634333  81.3477225   9.4162995  48.9808429  81.8429277  10.3079611
  48.3272824  81.4391701  10.1488621  64.3158434  81.6081849   7.4123590
  64.5514023  81.7527048   6.5850441  64.4647998  82.3724257   7.8055104
  64.3724237  81.7420903   7.3487194  51.3104511  78.0915342  16.7772811
  52.0344484  78.0768372  17.2637706  51.4120648  78.8010697  16.2794779
  51.4322721  78.1940045  16.7751598  66.1448891  80.4483515   5.2493194
  66.4757108  80.9811155   4.6433289  66.7181979  80.5022403   5.9055145
  66.2782570  80.5353084   5.2570976  58.6849461  81.5714426  21.6421758
  57.8922442  81.8857938  21.8274378  58.7998388  81.7865895  20.8042543
  58.5844871  81.6498263  21.5460093  61.3580780  78.2948418   5.9316774
  61.4527634  79.0337712   6.3856400  60.7339623  77.8665893   6.3651339
  61.2789810  78.3409738   6.0624922  59.6133254  81.4734630  16.5807055
  60.1872115  80.8361874  16.7355619  59.5348057  81.4738713  15.7116713
  59.6866489  81.3799742  16.4753466  48.2129670  78.2523840  10.4189769
  48.7903173  78.1160290  11.0582015  47.5143732  77.7959624  10.6735354
  48.1950692  78.1646106  10.5512059  61.6103801  80.1397157  -0.8346274
  61.5283964  80.2099344   0.0308713  62.2483522  80.7026901  -1.0262533
  61.6923639  80.2336128  -0.7356324  54.9696972  79.9057895   8.6328252
  54.7116217  79.0729630   8.6059552  55.0245455  80.1315508   7.7920753
  54.9396750  79.8155667   8.5048389  60.0498022  72.0086346   8.7332345
  59.3454349  71.5195531   8.8916264  60.0982997  72.0208820   7.8620790
  59.9528074  71.9375994   8.6271685  53.9431684  77.4595658   9.1193147
  53.3681276  77.6187826   9.7557108  53.5667361  76.8231067   8.6561598
  53.8034497  77.3893471   9.1447706  57.6104973  75.9319007  13.9785526
  57.2219406  75.5073225  13.3237717  56.9459671  76.1801157  14.4862552
  57.4551901  75.9057728  13.9573394  67.2528242  75.6894012   6.7533356
  66.9964807  74.8773953   6.5631238  68.0957556  75.6971579   6.5263543
  67.3394268  75.5706009   6.6918173  43.6888503  77.1035733   7.1337588
  43.7748755  76.7267601   7.9151118  44.3164301  76.7296178   6.6557546
  43.7945054  76.9921215   7.1783065  61.4331335  69.6293636  11.4909510
  61.8141846  68.9471807  11.8777384  60.6294619  69.3403238  11.3085174
  61.3707796  69.4860684  11.5213566  58.7143911  80.1617612   2.1762333
  59.5284550  80.4532504   2.0645104  58.6503053  79.5077474   1.6020626
  58.8246650  80.1082806   2.0751170  64.9353401  82.8443608  16.5891908
  64.6992039  82.0131673  16.4703969  65.5796630  82.7929215  17.1746752
  64.9948072  82.7141296  16.6577802  54.5851820  83.6339129   7.3034645
  55.2225767  83.3950877   7.8486438  55.0106891  83.8376288   6.5687805
  54.7427986  83.6290139   7.2751802  49.2764462  85.8727466  11.1868948
  49.3168607  86.1442317  10.3588728  49.8358986  86.3969374  11.6026736
  49.3647808  85.9903221  11.1260837  55.2254635  78.8541419   1.6409534
  55.6099787  78.6349126   2.3926079  54.9766255  79.6804364   1.7710610
  55.2456707  78.9439565   1.7710610  55.3923175  72.1347834  21.3572118
  55.0776616  72.9047397  21.0941681  55.0713108  71.5718090  20.7724345
  55.2982094  72.1658103  21.2313468  65.9589822  82.6288057  12.6520203
  65.6535639  83.3616113  13.0133518  65.2396038  82.2225986  12.3712989
  65.8077164  82.6769790  12.6633340  56.9673292  84.1111552   8.9828431
  57.0412300  83.9486724   9.8370281  57.7842798  84.3001741   8.7388913
  57.0989650  84.1148294   9.0726457  71.6591614  79.2681057  11.9788547
  71.5916115  79.2877016  11.1091134  71.6447277  80.1111384  12.2044218
  71.6470371  79.3954792  11.8841024  50.7279048  84.4569415   6.0122874
  49.9017166  84.7031152   5.8857153  50.7891039  84.3781495   6.8784932
  50.6153215  84.4814364   6.1211819  52.9455072  70.5238356   6.9718315
  52.0777497  70.5960955   7.0375924  53.2330276  71.3260434   7.1606290
  52.8594820  70.6532503   7.0093081  62.0687961  70.6716215  15.3029636
  62.8141553  70.4826025  14.8893062  61.6525265  71.1974453  14.7443493
  62.1172935  70.7218360  15.1594210  55.5077877  87.0746295   3.7141904
  55.7976176  86.6835276   2.9901131  56.2381358  87.2563000   4.1547180
  55.6584761  87.0440109   3.6724711  69.4450232  78.0425443  10.2535141
  69.9958153  77.4093512  10.4932233  69.4294347  78.5740836  10.9450646
  69.5235428  78.0274392  10.3914000  56.0972622  81.8764041  14.7995035
  55.5984316  82.5879808  14.8779923  56.9072847  82.1964707  14.7613197
  56.1428729  82.0290889  14.8051603  53.4483793  89.0513677   6.7802054
  53.2284088  88.7611032   7.5728721  53.2278315  88.3928632   6.2519966
  53.3831387  88.9113386   6.8190963  52.3600740  81.1386994   9.0457756
  52.0713989  80.5124465   9.5803483  53.2284088  81.0807281   9.1122436
  52.4460992  81.0374538   9.1348710  63.1478638  76.2821777   9.3639738
  62.8043404  75.5612112   9.7146987  63.2471680  76.0735628   8.5218096
  63.1120681  76.1445980   9.2911418  55.6151749  90.4243067   5.5632746
  56.2675807  89.8919509   5.7923772  54.9177357  90.0711719   5.9500620
  55.6082467  90.2932590   5.6544914  52.5633013  82.7782245   4.9700121
  53.3178981  83.1595284   5.1835583  51.9703626  83.2293388   5.4246817
  52.5869727  82.9011072   5.0682999  63.6091667  82.7447481   4.9063726
  64.1749700  83.4040691   4.8222269  62.9619570  83.0897179   5.3780128
  63.5970423  82.8929422   4.9636482  55.0239680  74.7345085  20.0957333
  54.2139456  75.0402865  19.9847175  55.5014367  75.4550667  20.2109917
  54.9743159  74.8859686  20.0964404  53.8831240  83.9490806  10.3440236
  53.3611994  84.0891098  11.0292101  54.2705260  83.1901470  10.5342353
  53.8634941  83.8576330  10.4741313  50.8722424  73.9996615   4.4135191
  50.5847220  73.6297885   3.6767138  51.5592892  74.4691470   4.1518896
  50.9311321  74.0143584   4.2650267  60.0798245  85.6886265   4.3300805
  59.8384921  84.9554126   3.9227870  60.2599578  86.2373122   3.6767138
  60.0705869  85.6608656   4.1731028  55.3097566  80.9794825   5.7421727
  55.1140348  81.5869560   5.1482030  55.5331911  80.2862769   5.2613401
  55.3132207  80.9672351   5.5837808  53.7076096  77.8649563   5.8602596
  54.4298748  78.0290721   5.4006402  53.2284088  78.5859228   5.7541935
  53.7439826  77.9947793   5.7768210  61.6669603  74.2013362  11.2399280
  60.8280704  74.2274641  11.0037544  61.7373971  74.8484097  11.8204627
  61.5537997  74.3009488  11.2908397  51.3583712  80.2707635  14.9656735
  51.8704809  80.5491889  14.3165495  51.0720055  81.0096930  15.3319548
  51.3918575  80.4209989  14.9246613  60.1138882  71.0998739   5.9726896
  60.8165234  70.9006487   5.4946855  59.8483070  70.3274681   6.2795740
  60.1785514  70.9561705   5.9472338  65.5427127  79.4081349   8.5260522
  65.4561102  79.5636775   9.3795301  65.0877607  80.0519424   8.1519927
  65.4630384  79.5257104   8.5967629  48.4450619  74.7777827   5.2620472
  48.5466755  75.5803989   5.5901447  49.2406505  74.5765163   4.9643552
  48.5778524  74.8663726   5.2655827  54.8767438  72.3634024  15.0257777
  54.6850635  72.3789158  15.8757201  55.7266034  72.5597698  15.0024432
  54.9743160  72.3948375  15.1481072  49.2614351  74.8925006  13.0041593
  49.1199843  74.0408946  13.1286101  49.5454914  74.9353666  12.1803799
  49.2822197  74.7724756  12.9009218  59.4152943  76.7292096   7.1486082
  59.1687657  76.6487847   7.9822871  59.7438066  75.9445564   6.9548609
  59.4274187  76.6018361   7.2433605  63.3100992  83.4375455  10.9372863
  63.1715351  84.1356501  11.4421605  62.5300990  83.2824112  10.5809045
  63.1744219  83.5175622  10.9599137  61.6479077  79.7371830  17.1895245
  61.6427116  78.8651647  17.1937671  62.3540071  79.9360000  16.7164700
  61.7524081  79.6375705  17.1202280  55.3749970  79.4648814  16.5609065
  55.5193346  80.0450022  15.9252175  55.7225619  79.8425111  17.2658919
  55.4477432  79.6069518  16.5708060  57.5469888  78.6638983  14.3434196
  56.7993202  78.8569997  13.9382474  57.7011413  77.8384202  14.1058318
  57.4592315  78.5704094  14.2479602  54.4477725  87.6551586  13.4270092
  54.5967289  87.0954502  12.7743496  55.2277727  87.7343588  13.8102610
  54.5851819  87.5837152  13.3867041  64.8054365  82.7953709   1.6989362
  64.4261174  82.0090847   1.6918652  64.1420610  83.3440566   1.5561006
  64.6512840  82.7598533   1.6770159  56.9731026  87.8266229  14.7054582
  56.8974697  87.1575040  15.2605371  56.9020885  88.5284017  15.2195249
  56.9511633  87.8311136  14.8631431  57.7871665  72.5589533  15.2329600
  58.2444279  73.2913508  15.3602392  57.8627994  72.1355999  15.9916856
  57.8662635  72.6046771  15.3630677  50.0304656  72.8055353  16.3219044
  49.4946845  72.1935711  16.6379811  50.0922421  73.3803489  16.9752710
  49.9600289  72.8002281  16.4654471  62.2598991  65.7379409   9.1023443
  62.3782559  66.1955872   8.3690746  62.0861166  64.9324670   8.8159661
  62.2518162  65.6873181   8.9524377  57.6301273  86.3467228   5.5378188
  58.3951164  86.0776872   5.2160853  57.5279363  85.8617238   6.2548251
  57.7282768  86.2356793   5.5958016  55.6654043  74.5491637  12.0771424
  54.8750117  74.3683097  12.3988760  56.0614666  73.7718590  12.0601719
  55.6070919  74.4079098  12.1223973  60.1519933  83.3779412  -2.4821862
  60.9192919  83.4379537  -2.8916010  59.7051242  82.8059853  -2.9665544
  60.1993361  83.3015987  -2.6144152  61.0497729  82.1834067   9.8030870
  60.3742731  81.9519300  10.3044257  61.0590105  81.5755250   9.1772975
  60.9516234  82.0592993   9.7847022  58.1791873  77.0251896  16.5594923
  58.1151014  77.8861853  16.4315060  58.3189061  76.7083890  15.7590474
  58.1907343  77.1052063  16.4223136  63.0514464  85.0399200   2.0341048
  63.1334301  85.8466186   1.7102499  63.5364206  85.0595159   2.7581822
  63.1351621  85.1619862   2.0927947  56.8610967  79.7184036  10.7011126
  56.4373216  79.9188535   9.9650144  56.6855822  78.8712884  10.8135426
  56.7721847  79.6232817  10.6084816  56.3622660  91.2334549  13.1632583
  56.8518591  90.5345338  12.9808248  55.7906893  90.9358419  13.7508641
  56.3507190  91.0860772  13.2233624  52.1493412  80.2136087   6.1339098
  52.3058031  80.1482890   6.9895091  52.4894005  80.9884640   5.9217778
  52.2226647  80.3185285   6.2293693  58.6872556  79.5893971   5.0032462
  59.2288102  79.0864352   5.4671082  59.0019115  79.5359165   4.1921947
  58.8136954  79.5073392   4.9516274  62.5589664  83.7996618  22.1159374
  63.3724529  83.5281767  22.2764506  62.3984630  83.5004158  21.3119570
  62.6559612  83.7151544  22.0204780  56.8559006  84.9811322   2.2872490
  56.9251826  84.1225861   2.4265490  57.6347461  85.1983203   1.9591514
  56.9811856  84.8864186   2.2589647  59.8361826  74.4830275  15.0554762
  60.0503795  73.8441190  14.5018116  59.2195725  74.9276099  14.6262624
  59.7767155  74.4540419  14.9105193  61.2466494  87.4049024   6.5008983
  60.8546285  87.1015739   5.7831849  61.4019566  88.2418114   6.3113937
  61.2120084  87.4832860   6.3665480  48.7227673  77.3971038   6.4499866
  49.1026638  77.8155583   5.7860133  48.1483038  77.9784493   6.7568709
  48.6938998  77.5448897   6.3976607  62.0000914  76.0919340  15.9938069
  61.1877596  75.7845231  16.0751242  62.4590848  75.6118341  16.5580781
  61.9481299  75.9755833  16.0892663  61.4106169  83.9699012   6.4415014
  61.0520823  84.1413655   7.2179046  60.9244879  84.4312218   5.8843012
  61.2864865  84.0637984   6.4740283  59.2276554  67.5930211  10.0442105
  58.3570112  67.5668932   9.9975414  59.4816896  67.4207403   9.2267951
  59.1370115  67.5640355   9.9162242  56.1994534  79.6498178  -1.0184752
  56.4887059  80.4263060  -0.7441178  56.2866333  79.1386909  -0.3170253
  56.2548790  79.6890096  -0.8742254  59.0954421  77.4979412  20.7766772
  59.5654053  78.1221528  21.1634646  59.1416302  76.8296387  21.3359986
  59.1722297  77.4914092  20.9166843  56.2525695  69.6036439  11.5015575
  55.7364184  68.9116631  11.6267154  55.6919624  70.2707216  11.4478174
  56.0932208  69.5999697  11.5121641  58.3217928  70.1429399  13.3308428
  57.9349682  70.1678431  14.1121958  57.8350866  69.5771078  12.8782945
  58.1930437  70.0625150  13.3796332  62.5710908  84.8602908  17.3882214
  63.2090628  84.3663104  17.0544671  61.9284999  84.7880309  16.8034441
  62.5705134  84.7761917  17.2524569  64.2967908  76.7092054  11.9548130
  63.8695516  76.6218403  11.1996230  63.6593961  76.8169830  12.5402974
  64.1397515  76.7124714  11.9293572  57.9875070  67.0296385  15.6218688
  58.6168188  67.5656685  15.3439758  58.1560933  66.9373744  16.4732253
  58.1052865  67.0957747  15.7067216  57.7888985  71.8167580  17.8945099
  58.6162414  71.5452729  17.9503714  57.8096831  72.6128421  18.2508918
  57.9141835  71.8947334  17.9560282  62.6265164  85.5522717  14.0287571
  63.4157543  85.2011781  14.1489653  62.8008762  86.3659105  13.7664205
  62.7685446  85.6208574  14.0075439  52.3658475  78.9631442  11.0815360
  51.5246481  78.8635317  11.2894254  52.5748483  79.7326923  11.4329681
  52.2723167  79.0623486  11.1642675  49.8434042  76.5850979   8.9100111
  49.4490740  76.6593991   8.1350220  49.2874159  76.9708926   9.4608472
  49.7036854  76.6532754   8.8767771  61.4798989  69.5632273   8.5903990
  61.6848582  69.4954581   9.4360987  61.1525413  70.3691095   8.5225167
  61.4614237  69.6718214   8.7063645  56.1775140  76.8912842  10.3312958
  55.8738277  76.3368830  10.9323365  55.4754561  77.0705052   9.8440992
  56.0291350  76.8357624  10.3482663  55.2341237  74.2013361   4.8957659
  55.5100971  73.4832274   4.4835227  55.8339906  74.7998281   4.6878766
  55.3634501  74.1833732   4.8038421  54.2393491  84.1062562  15.0385055
  54.1313846  84.1164624  15.9047113  54.4489272  84.9317343  14.8490009
  54.2543602  84.2303637  15.1389147  64.7332676  70.1164038   8.0706755
  64.1206990  70.6034440   8.4560487  64.8296851  69.4407529   8.6144406
  64.6570574  70.0882346   8.2085613  58.7351757  71.8726879   3.1704254
  59.1895504  72.0437439   3.8952099  59.2091803  71.2594989   2.7702030
  58.8720077  71.8077764   3.2178016  52.2567283  81.3575205  12.5006993
  51.6655216  81.9984703  12.4710008  53.0188306  81.7812822  12.4738292
  52.2815543  81.5151043  12.4922140  52.6527906  72.5177202  13.1675011
  53.1129387  72.5916132  13.9050134  52.6984012  73.3158457  12.8174832
  52.7278461  72.6471350  13.2247767  54.3011255  73.1843897  17.7347038
  53.9096820  72.5377244  18.1702815  54.4697118  73.7755333  18.3541293
  54.2682166  73.1758165  17.8909744  68.3757704  81.1880974  13.4984271
  68.4340828  81.6367623  14.2444248  67.7424172  81.5979787  13.0614351
  68.2908999  81.3154709  13.5436820  62.0156799  86.8084516   9.9339017
  61.8176488  87.2975331   9.2395229  61.3944510  87.0125758  10.5123151
  61.8944363  86.9101055   9.9162241  56.0764777  78.5769413   4.2749262
  56.8206822  78.9643689   4.5132212  56.2225474  77.7326839   4.4389749
  56.2075362  78.5099886   4.3343231  57.9944353  70.3719672   9.3081123
  57.1480398  70.5442480   9.1822473  57.9915485  69.5669016   9.6446951
  57.8691503  70.2780701   9.3392250  59.0642653  74.1494886  10.1743181
  58.5902607  73.6236648  10.6848492  59.4360789  73.6024359   9.6058043
  59.0492542  73.9910883  10.1658328  49.4415683  76.1466393  15.5426727
  50.3041296  76.0462102  15.4564057  49.1107466  75.5661102  14.9812299
  49.5200880  76.0458020  15.4472133  65.3279384  79.2097262  11.5849962
  65.0877607  78.3703677  11.5892388  65.8071391  79.2897429  12.3090735
  65.3631567  79.0978662  11.6924764  60.9926153  75.0431441   3.2368935
  60.4649171  75.1260185   2.5474644  61.4521861  75.7849312   3.2333580
  60.9828003  75.1652103   3.1343630  67.3284571  75.9898719   9.5379221
  67.0894341  75.9494553   8.7000005  67.4918472  76.8369871   9.6644942
  67.3174874  76.1090804   9.4332703  63.9330601  80.3748669  15.4684266
  64.6564800  79.9221195  15.2895286  63.6680563  80.6553334  14.6856594
  64.0011874  80.3499637  15.3262981  52.8017469  74.9708842  12.2037145
  52.1770539  74.9827234  11.5963098  52.4663064  75.4469017  12.8528385
  52.6602961  75.0427359  12.2093714  52.9859218  73.3133961  -1.7390170
  52.6372022  73.9653686  -1.2758621  52.5055664  73.2991074  -2.4666299
  52.8629462  73.4077014  -1.7779079  49.5143145  83.0309302  13.6440909
  48.9843069  82.3401741  13.6935884  49.7868238  83.0219488  12.8153618
  49.4767867  82.9276434  13.5288325  60.5463235  83.6135005   2.3678592
  61.2697434  84.0793118   2.2243165  60.1063826  83.6808614   1.6176189
  60.5878928  83.6918841   2.2363373  59.7149390  80.4732547  13.6179281
  59.1006384  79.9290597  13.9127916  60.2316675  79.9596783  13.1385097
  59.7005053  80.3168956  13.5903509  58.9545688  81.5436817  11.3523579
  58.5273296  80.9186536  10.9189015  58.9470632  81.2611739  12.1782587
  58.8904829  81.4089598  11.4103407  52.0708215  76.5801990  14.4212013
  52.2301701  75.8245314  14.8263735  51.8901108  77.1292929  15.0752751
  52.0673574  76.5495804  14.5774719  60.0128518  68.7463226  14.9762803
  59.5169079  68.9426900  14.2854370  60.7697580  69.1455894  14.8051605
  60.0515342  68.8340959  14.8482940  57.2831397  72.4205571  11.5666113
  57.3073884  71.8865684  10.8778893  57.5342871  71.9122880  12.2291704
  57.3241316  72.2666475  11.5630758  44.7938987  79.7037066  11.0009258
  44.6882436  79.6583911  10.1361342  44.0439207  80.0490847  11.2823542
  44.6674590  79.7477975  10.9146587  53.5632719  71.1476390  10.9471858
  53.6031091  71.6485596  11.6606565  52.7382384  71.2386783  10.6777781
  53.4472245  71.2358206  11.0122396  55.7462332  80.7137130  19.0492152
  54.8957963  80.8508844  19.1849797  55.9090460  79.9800908  19.4939854
  55.6446196  80.6251231  19.1347752  54.9847083  77.6636899  13.2445757
  54.1539013  77.8310717  13.0381005  54.9298600  77.2872850  14.0294642
  54.8536498  77.6326631  13.3294285  52.7930866  71.1545792  18.8802168
  53.4183570  70.6107925  19.1531600  52.3381346  70.6740710  18.3109958
  52.8179127  71.0035274  18.8363761  53.3583127  75.9392491   3.7735875
  53.4986088  76.4364955   4.4764516  53.8565660  75.2378785   3.9150088
  53.4524208  75.9094470   3.8987454  53.3883349  76.8059602   1.1028451
  54.0228429  77.4020027   1.0377913  53.4708960  76.5063060   1.9174322
  53.4939900  76.8500510   1.2131538  66.3665915  79.3375079  13.9714816
  66.9583755  79.9772330  14.0033014  66.8024909  78.6398116  14.2606882
  66.5184346  79.3293430  14.0195648  54.9662332  72.7373577   1.0773893
  55.2878173  72.2576660   0.4233156  55.2289276  73.5473224   0.8864705
  55.0528357  72.7863475   0.9529385  58.1959305  83.7592452  14.5972709
  57.6884396  84.3128299  15.0413340  57.8985951  83.8200742  13.7791484
  58.0764190  83.8498763  14.5421166  60.3621487  72.1245771  13.4397372
  60.7876559  71.6718298  12.8280899  59.7478480  71.5705842  13.7162160
  60.3350132  71.9759748  13.3902398  49.8936337  79.0027443   4.3717997
  50.4028566  79.5991950   4.7529303  50.3670609  78.7353416   3.6894417
  50.0379713  79.0513258   4.3272520  60.8067085  87.6755710   2.5276653
  60.0896395  87.5016572   2.0623890  61.4573823  87.4408282   1.9952139
  60.7968936  87.6151502   2.3805871  58.8015710  68.5960871   6.8487949
  58.1584028  68.4458518   7.4173088  58.4615117  68.3503217   6.0837054
  58.6560787  68.5372994   6.8190965  63.3915056  76.5520298   6.2717958
  62.7206246  77.0950000   6.1431024  64.0854807  77.0215153   6.0299653
  63.3943924  76.7018569   6.2173486  57.4401790  88.6917010  11.5029716
  57.2167444  87.9335839  11.8713743  56.9511633  88.7215031  10.7810156
  57.3345239  88.5839235  11.4506457  63.5543184  73.0076182   9.1808331
  63.9070794  72.5805905   9.8554130  62.6957985  72.9227025   9.3109408
  63.4792628  72.9320922   9.3003342  52.2526869  75.6383701   7.2391178
  51.5338858  76.0547834   7.5064041  52.6239231  76.2037940   6.6882816
  52.2018801  75.7832983   7.1973985  61.5526450  76.2711550  13.1293174
  61.5324377  76.0894845  13.9827952  61.6005650  77.1423569  13.1052757
  61.5561091  76.3728089  13.2516468  59.4972779  82.8598742  19.0541650
  59.4568634  82.2148419  18.4686806  60.3096098  82.8035360  19.3667062
  59.6115933  82.7557709  19.0138599  56.0880247  88.9117468   8.9566801
  55.6740646  88.2491598   8.5670643  56.7727621  89.0595327   8.4362495
  56.1278619  88.8358126   8.8223298  59.4545541  88.0707553   9.7090418
  59.0561824  88.1809824   8.9411238  58.8396761  88.2789620  10.2916977
  59.3044430  88.1181121   9.6821717  58.0273443  74.6781701   2.5764557
  57.4338282  74.9998698   2.0249124  58.0648721  73.8322797   2.3685663
  57.9447832  74.6006030   2.4647329  64.9867244  68.1294594  10.1092644
  64.4798108  67.4223733  10.0413821  65.7834678  67.7987782  10.2393720
  65.0294483  67.9767745  10.1191639  60.9031260  74.6361206   6.0066307
  60.6744953  74.6593907   5.1644666  61.1629336  73.8118673   6.1261318
  60.9077448  74.5177286   5.8991505  55.1850488  76.4895679  15.6091408
  54.6729391  75.8816862  15.9676439  55.0129984  77.2052271  16.0765383
  55.0840125  76.5058978  15.7307631  50.0316203  74.9333254  18.2593769
  49.8618793  75.5934629  17.7141976  49.5882153  75.1439815  18.9806259
  49.9415536  75.0619236  18.2855399  53.9576022  73.1737752   7.3020503
  54.4333388  73.5354832   6.6670684  53.4564622  73.8294220   7.5820646
  53.9541381  73.3231941   7.2497244  67.1887384  82.6459520   3.0933508
  67.5720990  83.3950876   3.3231605  66.3931497  82.8925340   2.8345497
  67.1281166  82.7929214   3.0891082  59.0619558  74.4119923  18.0493663
  59.6190989  74.1833733  17.4172129  58.7380623  75.1725589  17.7728876
  59.0965969  74.4903760  17.9150160  46.9318267  77.8380120  13.5182259
  46.3844987  77.1680765  13.6363128  47.7210646  77.4709968  13.5825727
  46.9670451  77.6845106  13.5450960  56.7802676  77.4987577  19.0145670
  57.5314003  77.8139254  19.3285225  56.9725252  77.2966748  18.1879592
  56.9194090  77.5154959  18.9389066  56.0002675  75.3178952   0.6693887
  56.3801640  75.3358581  -0.1154998  55.2595271  75.7632941   0.5484734
  55.9471513  75.3860727   0.5357455  63.6287966  73.6261143   6.2569466
  63.6282192  73.4709800   7.1153742  63.4244146  74.4724130   6.2010851
  63.5987744  73.7281764   6.3757405  45.6905237  77.0500928  10.6728282
  45.5126998  76.5977536  11.3983198  45.4024259  77.8527089  10.8566760
  45.6218190  77.1023485  10.8071785  61.3528818  78.3058645   9.9105673
  61.8482483  77.5881640   9.8709693  60.5428594  78.0029443   9.7960160
  61.3072711  78.1556291   9.8879399  56.7987429  82.1556458   2.0602677
  55.9898752  81.8323132   2.0135987  57.3062338  81.4489680   1.9930926
  56.7537096  82.0037774   2.0432972  47.4277707  79.5828651   7.7850041
  46.5623226  79.5714342   7.6732813  47.5276523  79.3958874   8.6321181
  47.3151874  79.5534712   7.8938986  63.4180637  81.0562332  12.5982801
  63.8435708  80.5336754  12.0453226  63.0537557  81.6543170  12.0771424
  63.4267239  81.0672559  12.4391811  53.0534717  89.3526550  11.3580147
  53.3681276  90.1662938  11.3657929  53.4628130  88.9676769  12.0262306
  53.1602815  89.4155252  11.4584239  60.0059236  84.7696597   8.9283959
  60.4770414  85.4836859   9.0973944  60.3419415  84.1695347   9.4643828
  60.1254351  84.7868061   9.0316335  62.0936221  86.3797910  21.1076031
  62.2033186  85.5906471  21.4632778  62.4227117  86.2903846  20.3050369
  62.1588627  86.2503763  21.0418422  56.9228731  69.5424067  15.8842054
  57.0556637  68.7455061  16.2123029  57.3073884  70.0690470  16.4640329
  56.9985060  69.5023984  16.0185557  60.6433183  84.5614531  15.6911652
  60.0954129  83.9372414  15.4231717  61.1046211  84.7508803  14.9755731
  60.6300392  84.4973581  15.5462083  59.9961086  66.4654393  12.4823147
  59.1907050  66.3552123  12.7990985  59.8667822  66.5666849  11.6253013
  59.8581219  66.4638063  12.4031187  63.4527047  72.6299885  13.0762844
  62.8690036  73.1309092  12.6640411  63.7731341  72.1229441  12.4427167
  63.4140222  72.6291720  12.9221351  55.9921846  71.5440480   3.3521519
  56.8137540  71.7138793   3.1103214  55.5291497  71.6987741   2.6287816
  56.0453008  71.5922213   3.2093163  54.5817178  69.5383242  14.1319947
  55.1261591  69.1974369  14.7224289  54.6354114  70.3968704  14.2741232
  54.6706297  69.6138502  14.2401821  50.3947737  83.2999658  11.0058755
  50.9992594  83.2595492  10.3772576  50.1875049  84.1470810  11.0362811
  50.4536634  83.4187661  10.9174872  60.2091509  85.5665603  12.2220993
  61.0289883  85.4228570  12.4837288  59.9285587  86.1911802  12.7637431
  60.2888252  85.6375956  12.3408932  45.6299019  82.2834276  10.8757678
  45.5323297  81.4730547  11.1847735  46.4127889  82.2626069  10.4903947
  45.7315155  82.1601366  10.8644541  69.8804844  92.3106106   9.9416800
  69.0242740  92.4714604   9.9925916  69.9272498  91.4398170   9.9621861
  69.7603956  92.2056908   9.9522866  73.1898561  98.5792632  19.5477256
  73.8965328  98.0844663  19.6764190  73.3786496  99.0201713  18.8179914
  73.3226466  98.5710982  19.4586301  72.7256665  94.3698150  12.5848451
  73.2712625  95.0483237  12.6442421  72.6673541  94.2285611  11.7250033
  72.7972579  94.4490152  12.4660512  59.0395784  97.8807503   7.5969137
  58.8045969  97.0475155   7.4901406  59.1781425  98.1612168   6.7830338
  59.0251447  97.7991006   7.4611492  61.3385872  90.0493233  10.4953445
  60.7190903  89.4585881  10.3263460  61.2369735  90.6404669   9.8617768
  61.2323547  90.0497316  10.3758434  61.0655005  93.5945515  12.7397014
  60.9413702  94.1807961  13.3746833  61.7173289  93.1005711  13.0409289
  61.1428654  93.6084320  12.8782943  66.0913346  96.7707232  12.0184525
  66.7362348  96.2779675  11.6995474  66.3315123  96.9132019  12.8450603
  66.2223931  96.7184674  12.0934058  68.6299437  99.6162138  11.6691418
  68.9122680  98.8213544  11.4478173  69.3585597 100.0942725  11.6896479
  68.7789001  99.5696735  11.6394433  66.6080631  87.1585172   8.9107183
  66.2783961  87.6096315   8.2410881  65.9325633  87.0801335   9.4580189
  66.4591067  87.2136307   8.8930406  73.8157039  83.1470695   7.1556793
  73.5010480  83.8374173   7.5877216  73.2983980  83.0915477   6.4542294
  73.6921509  83.2405583   7.1153742  60.6013109 102.7593174   8.8725343
  60.1180687 103.4843663   8.8484927  61.4136427 103.0569304   8.9835501
  60.6503857 102.9095527   8.8852623  66.6727263 101.5525354  11.4775158
  66.1554205 101.1932769  10.8736466  67.3701654 101.0287529  11.4881224
  66.6992844 101.4223042  11.3905417  70.3290855 102.0020168  17.4391331
  70.4174201 101.8146309  18.2869541  70.7580568 101.3557598  17.0396178
  70.4052957 101.8783176  17.5063082  67.8961315 101.2851328  16.4208993
  67.3332150 100.8723938  16.9448654  68.6582338 101.2104234  16.8402136
  67.9255763 101.2128729  16.5601993  64.8136585  85.2197460   4.3930130
  65.5682553  85.5875777   4.1547181  64.6364120  85.5937015   5.1609310
  64.8991063  85.3295648   4.4715019  78.1071484  91.3691901  12.4377670
  77.2699905  91.4394088  12.6725264  78.0759715  91.3716396  11.5651972
  77.9789766  91.3802128  12.3437218  64.5036213  93.5124936  18.1526038
  64.6756716  93.4030831  19.0011320  65.0405570  94.1579342  17.9157231
  64.6081217  93.5916938  18.2431135  62.7808082  99.4655701   8.5331231
  63.6196981  99.6978634   8.5804993  62.8119851  98.5960013   8.4638267
  62.9089799  99.3712648   8.5295876  63.4060785  99.8856577  12.8344537
  63.9459010  99.7427708  13.5047909  62.7230731 100.2853327  13.2028563
  63.3852939  99.9236248  12.9878959  68.8493369  84.6294190   4.1257267
  69.5779529  84.4510145   3.6795423  68.9388262  85.4712270   4.3364445
  68.9700031  84.7278068   4.0910785  70.4410914 101.4329187  20.1035114
  71.2251331 101.5460035  20.4690857  70.2407509 100.6070324  20.2993800
  70.5276940 101.3275907  20.1869501  58.8097930  96.1056867  12.9878958
  58.5436345  95.2895984  13.1469949  58.8236494  96.1510023  12.1174474
  58.7722652  95.9913772  12.8832440  75.7879324  86.4334682  11.0221392
  76.4305232  86.5032787  11.6083307  76.0402344  85.7663905  10.5200934
  75.9201456  86.3461031  11.0348671  63.5596536  89.6435246  15.6345966
  62.8668333  89.1732225  15.8806698  64.1756863  89.4173550  16.2087673
  63.5481066  89.5402378  15.7555119  70.5981308 103.3439289  13.7501570
  69.7996553 103.1038789  14.0075439  71.0467319 103.3953682  14.4968618
  70.5455919 103.3161681  13.8986494  59.2191343  96.8915647  10.2690703
  59.0366917  96.8662533   9.4162995  59.9541012  97.3614585  10.3079611
  59.3005407  96.9577009  10.1488621  62.2837095  93.6100650  16.7772811
  63.0077067  93.5953680  17.2637706  62.3853232  94.3196005  16.2794779
  62.4055304  93.7125353  16.7751598  69.6582044  97.0899734  21.6421758
  68.8655025  97.4043246  21.8274378  69.7730972  97.3051203  20.8042543
  69.5577455  97.1683571  21.5460093  70.5865837  96.9919938  16.5807055
  71.1604699  96.3547182  16.7355619  70.5080641  96.9924021  15.7116713
  70.6599072  96.8985050  16.4753466  59.1862254  93.7709148  10.4189769
  59.7635756  93.6345598  11.0582015  58.4876315  93.3144932  10.6735354
  59.1683275  93.6831414  10.5512059  65.9429556  95.4243203   8.6328252
  65.6848800  94.5914938   8.6059552  65.9978039  95.6500816   7.7920753
  65.9129334  95.3340974   8.5048389  71.0230606  87.5271654   8.7332345
  70.3186933  87.0380839   8.8916264  71.0715580  87.5394128   7.8620790
  70.9260658  87.4561302   8.6271685  64.9164268  92.9780966   9.1193147
  64.3413859  93.1373134   9.7557108  64.5399944  92.3416375   8.6561598
  64.7767080  92.9078779   9.1447706  68.5837557  91.4504315  13.9785526
  68.1951989  91.0258533  13.3237717  67.9192255  91.6986465  14.4862552
  68.4284484  91.4243036  13.9573394  54.6621087  92.6221040   7.1337588
  54.7481339  92.2452909   7.9151118  55.2896884  92.2481486   6.6557546
  54.7677638  92.5106523   7.1783065  72.4063918  85.1478944  11.4909510
  72.7874430  84.4657115  11.8777384  71.6027202  84.8588546  11.3085174
  72.3440380  85.0045992  11.5213566  75.9085985  98.3628916  16.5891908
  75.6724622  97.5316980  16.4703969  76.5529214  98.3114523  17.1746752
  75.9680656  98.2326604  16.6577802  60.2497046 101.3912774  11.1868948
  60.2901191 101.6627625  10.3588728  60.8091570 101.9154682  11.6026736
  60.3380391 101.5088529  11.1260837  66.3655759  87.6533142  21.3572118
  66.0509200  88.4232705  21.0941681  66.0445691  87.0903398  20.7724345
  66.2714678  87.6843411  21.2313468  76.9322406  98.1473364  12.6520203
  76.6268223  98.8801421  13.0133518  76.2128621  97.7411294  12.3712989
  76.7809748  98.1955097  12.6633340  63.9187656  86.0423663   6.9718315
  63.0510081  86.1146263   7.0375924  64.2062860  86.8445742   7.1606290
  63.8327404  86.1717811   7.0093081  73.0420544  86.1901523  15.3029636
  73.7874136  86.0011333  14.8893062  72.6257849  86.7159761  14.7443493
  73.0905519  86.2403668  15.1594210  67.0705206  97.3949349  14.7995035
  66.5716900  98.1065116  14.8779923  67.8805430  97.7150015  14.7613197
  67.1161313  97.5476197  14.8051603  63.3333324  96.6572302   9.0457756
  63.0446572  96.0309773   9.5803483  64.2016672  96.5992589   9.1122436
  63.4193576  96.5559846   9.1348710  74.1211221  91.8007085   9.3639738
  73.7775987  91.0797420   9.7146987  74.2204264  91.5920936   8.5218096
  74.0853264  91.6631288   9.2911418  65.9972264  90.2530393  20.0957333
  65.1872040  90.5588173  19.9847175  66.4746951  90.9735975  20.2109917
  65.9475743  90.4044994  20.0964404  64.8563824  99.4676114  10.3440236
  64.3344577  99.6076406  11.0292101  65.2437844  98.7086778  10.5342353
  64.8367525  99.3761638  10.4741313  61.8455008  89.5181923   4.4135191
  61.5579803  89.1483193   3.6767138  62.5325476  89.9876778   4.1518896
  61.9043905  89.5328892   4.2650267  64.6808679  93.3834871   5.8602596
  65.4031331  93.5476029   5.4006402  64.2016672  94.1044536   5.7541935
  64.7172410  93.5133101   5.7768210  72.6402187  89.7198670  11.2399280
  71.8013287  89.7459949  11.0037544  72.7106554  90.3669405  11.8204627
  72.5270580  89.8194796  11.2908397  62.3316296  95.7892943  14.9656735
  62.8437393  96.0677197  14.3165495  62.0452639  96.5282237  15.3319548
  62.3651159  95.9395297  14.9246613  71.0871465  86.6184047   5.9726896
  71.7897818  86.4191795   5.4946855  70.8215654  85.8459989   6.2795740
  71.1518097  86.4747013   5.9472338  59.4183202  90.2963135   5.2620472
  59.5199339  91.0989297   5.5901447  60.2139089  90.0950471   4.9643552
  59.5511108  90.3849034   5.2655827  65.8500021  87.8819332  15.0257777
  65.6583218  87.8974466  15.8757201  66.6998617  88.0783006  15.0024432
  65.9475743  87.9133683  15.1481072  60.2346934  90.4110313  13.0041593
  60.0932426  89.5594254  13.1286101  60.5187498  90.4538974  12.1803799
  60.2554780  90.2910063  12.9009218  70.3885527  92.2477404   7.1486082
  70.1420241  92.1673155   7.9822871  70.7170650  91.4630871   6.9548609
  70.4006770  92.1203669   7.2433605  72.6211661  95.2557138  17.1895245
  72.6159699  94.3836955  17.1937671  73.3272655  95.4545307  16.7164700
  72.7256665  95.1561013  17.1202280  66.3482554  94.9834122  16.5609065
  66.4925930  95.5635330  15.9252175  66.6958203  95.3610419  17.2658919
  66.4210015  95.1254826  16.5708060  68.5202471  94.1824291  14.3434196
  67.7725785  94.3755305  13.9382474  68.6743997  93.3569510  14.1058318
  68.4324899  94.0889402  14.2479602  65.4210309 103.1736894  13.4270092
  65.5699873 102.6139810  12.7743496  66.2010311 103.2528896  13.8102610
  65.5584403 103.1022460  13.3867041  67.9463610 103.3451537  14.7054582
  67.8707281 102.6760347  15.2605371  67.8753469 104.0469325  15.2195249
  67.9244216 103.3496444  14.8631431  68.7604248  88.0774841  15.2329600
  69.2176862  88.8098816  15.3602392  68.8360577  87.6541307  15.9916856
  68.8395218  88.1232079  15.3630677  61.0037240  88.3240661  16.3219044
  60.4679429  87.7121019  16.6379811  61.0655004  88.8988797  16.9752710
  60.9332872  88.3187589  16.4654471  73.2331574  81.2564717   9.1023443
  73.3515142  81.7141180   8.3690746  73.0593750  80.4509978   8.8159661
  73.2250745  81.2058489   8.9524377  66.6386626  90.0676945  12.0771424
  65.8482701  89.8868405  12.3988760  67.0347249  89.2903898  12.0601719
  66.5803502  89.9264406  12.1223973  69.1524457  92.5437204  16.5594923
  69.0883598  93.4047161  16.4315060  69.2921644  92.2269198  15.7590474
  69.1639927  92.6237371  16.4223136  67.8343550  95.2369344  10.7011126
  67.4105800  95.4373843   9.9650144  67.6588406  94.3898192  10.8135426
  67.7454431  95.1418125  10.6084816  67.3355244 106.7519857  13.1632583
  67.8251174 106.0530646  12.9808248  66.7639476 106.4543727  13.7508641
  67.3239774 106.6046080  13.2233624  63.1225995  95.7321395   6.1339098
  63.2790615  95.6668198   6.9895091  63.4626589  96.5069948   5.9217778
  63.1959230  95.8370593   6.2293693  73.5322247  99.3181926  22.1159374
  74.3457113  99.0467075  22.2764506  73.3717214  99.0189466  21.3119570
  73.6292196  99.2336852  22.0204780  70.8094409  90.0015583  15.0554762
  71.0236379  89.3626497  14.5018116  70.1928309  90.4461407  14.6262624
  70.7499739  89.9725727  14.9105193  59.6960257  92.9156346   6.4499866
  60.0759222  93.3340891   5.7860133  59.1215622  93.4969801   6.7568709
  59.6671582  93.0634204   6.3976607  72.9733497  91.6104648  15.9938069
  72.1610179  91.3030539  16.0751242  73.4323432  91.1303649  16.5580781
  72.9213882  91.4941141  16.0892663  70.2009138  83.1115519  10.0442105
  69.3302696  83.0854240   9.9975414  70.4549479  82.9392711   9.2267951
  70.1102698  83.0825663   9.9162242  70.0687005  93.0164720  20.7766772
  70.5386636  93.6406836  21.1634646  70.1148885  92.3481695  21.3359986
  70.1454881  93.0099400  20.9166843  67.2258279  85.1221747  11.5015575
  66.7096767  84.4301939  11.6267154  66.6652207  85.7892524  11.4478174
  67.0664792  85.1185005  11.5121641  69.2950512  85.6614707  13.3308428
  68.9082265  85.6863739  14.1121958  68.8083449  85.0956386  12.8782945
  69.1663021  85.5810458  13.3796332  73.5443491 100.3788216  17.3882214
  74.1823212  99.8848412  17.0544671  72.9017583 100.3065617  16.8034441
  73.5437718 100.2947225  17.2524569  75.2700492  92.2277362  11.9548130
  74.8428100  92.1403711  11.1996230  74.6326544  92.3355138  12.5402974
  75.1130099  92.2310022  11.9293572  68.9607654  82.5481693  15.6218688
  69.5900772  83.0841993  15.3439758  69.1293516  82.4559052  16.4732253
  69.0785448  82.6143055  15.7067216  68.7621569  87.3352888  17.8945099
  69.5894998  87.0638036  17.9503714  68.7829415  88.1313729  18.2508918
  68.8874419  87.4132642  17.9560282  73.5997748 101.0708025  14.0287571
  74.3890126 100.7197089  14.1489653  73.7741346 101.8844413  13.7664205
  73.7418030 101.1393882  14.0075439  63.3391058  94.4816750  11.0815360
  62.4979065  94.3820625  11.2894254  63.5481066  95.2512231  11.4329681
  63.2455751  94.5808794  11.1642675  60.8166625  92.1036287   8.9100111
  60.4223323  92.1779299   8.1350220  60.2606742  92.4894234   9.4608472
  60.6769438  92.1718062   8.8767771  72.4531572  85.0817581   8.5903990
  72.6581166  85.0139889   9.4360987  72.1257996  85.8876403   8.5225167
  72.4346820  85.1903522   8.7063645  67.1507723  92.4098150  10.3312958
  66.8470861  91.8554138  10.9323365  66.4487144  92.5890360   9.8440992
  67.0023933  92.3542932  10.3482663  66.2073820  89.7198669   4.8957659
  66.4833555  89.0017582   4.4835227  66.8072490  90.3183589   4.6878766
  66.3367085  89.7019040   4.8038421  65.2126074  99.6247870  15.0385055
  65.1046429  99.6349932  15.9047113  65.4221856 100.4502651  14.8490009
  65.2276185  99.7488945  15.1389147  75.7065260  85.6349346   8.0706755
  75.0939574  86.1219748   8.4560487  75.8029435  84.9592836   8.6144406
  75.6303158  85.6067654   8.2085613  69.7084341  87.3912187   3.1704254
  70.1628087  87.5622747   3.8952099  70.1824387  86.7780297   2.7702030
  69.8452661  87.3263072   3.2178016  63.2299866  96.8760513  12.5006993
  62.6387800  97.5170011  12.4710008  63.9920890  97.2998130  12.4738292
  63.2548127  97.0336351  12.4922140  63.6260489  88.0362510  13.1675011
  64.0861971  88.1101440  13.9050134  63.6716596  88.8343764  12.8174832
  63.7011044  88.1656657  13.2247767  65.2743839  88.7029205  17.7347038
  64.8829404  88.0562552  18.1702815  65.4429702  89.2940641  18.3541293
  65.2414749  88.6943473  17.8909744  79.3490288  96.7066282  13.4984271
  79.4073412  97.1552931  14.2444248  78.7156755  97.1165095  13.0614351
  79.2641583  96.8340017  13.5436820  68.9676936  85.8904980   9.3081123
  68.1212981  86.0627788   9.1822473  68.9648069  85.0854324   9.6446951
  68.8424086  85.7966009   9.3392250  70.0375237  89.6680194  10.1743181
  69.5635191  89.1421956  10.6848492  70.4093373  89.1209667   9.6058043
  70.0225126  89.5096191  10.1658328  60.4148267  91.6651701  15.5426727
  61.2773880  91.5647410  15.4564057  60.0840050  91.0846410  14.9812299
  60.4933463  91.5643328  15.4472133  76.3011967  94.7282570  11.5849962
  76.0610190  93.8888985  11.5892388  76.7803975  94.8082737  12.3090735
  76.3364151  94.6163970  11.6924764  78.3017154  91.5084027   9.5379221
  78.0626924  91.4679861   8.7000005  78.4651056  92.3555179   9.6644942
  78.2907458  91.6276112   9.4332703  74.9063184  95.8933977  15.4684266
  75.6297383  95.4406503  15.2895286  74.6413147  96.1738642  14.6856594
  74.9744458  95.8684945  15.3262981  63.7750053  90.4894150  12.2037145
  63.1503123  90.5012542  11.5963098  63.4395648  90.9654325  12.8528385
  63.6335545  90.5612667  12.2093714  60.4875728  98.5494610  13.6440909
  59.9575653  97.8587049  13.6935884  60.7600822  98.5404796  12.8153618
  60.4500451  98.4461742  13.5288325  70.6881974  95.9917855  13.6179281
  70.0738967  95.4475905  13.9127916  71.2049259  95.4782091  13.1385097
  70.6737636  95.8354264  13.5903509  69.9278271  97.0622125  11.3523579
  69.5005879  96.4371843  10.9189015  69.9203216  96.7797047  12.1782587
  69.8637412  96.9274905  11.4103407  63.0440798  92.0987298  14.4212013
  63.2034285  91.3430622  14.8263735  62.8633692  92.6478237  15.0752751
  63.0406157  92.0681112  14.5774719  70.9861101  84.2648533  14.9762803
  70.4901663  84.4612208  14.2854370  71.7430163  84.6641202  14.8051605
  71.0247926  84.3526267  14.8482940  68.2563981  87.9390879  11.5666113
  68.2806468  87.4050992  10.8778893  68.5075454  87.4308188  12.2291704
  68.2973900  87.7851783  11.5630758  55.7671571  95.2222374  11.0009258
  55.6615020  95.1769219  10.1361342  55.0171791  95.5676155  11.2823542
  55.6407174  95.2663282  10.9146587  64.5365303  86.6661698  10.9471858
  64.5763675  87.1670904  11.6606565  63.7114968  86.7572091  10.6777781
  64.4204829  86.7543514  11.0122396  66.7194916  96.2322438  19.0492152
  65.8690547  96.3694152  19.1849797  66.8823044  95.4986216  19.4939854
  66.6178780  96.1436539  19.1347752  65.9579666  93.1822207  13.2445757
  65.1271596  93.3496025  13.0381005  65.9031184  92.8058158  14.0294642
  65.8269081  93.1511939  13.3294285  63.7663450  86.6731100  18.8802168
  64.3916153  86.1293233  19.1531600  63.3113930  86.1926018  18.3109958
  63.7911710  86.5220582  18.8363761  64.3315710  91.4577799   3.7735875
  64.4718671  91.9550263   4.4764516  64.8298243  90.7564093   3.9150088
  64.4256791  91.4279778   3.8987454  77.3398498  94.8560387  13.9714816
  77.9316339  95.4957638  14.0033014  77.7757493  94.1583424  14.2606882
  77.4916930  94.8478738  14.0195648  69.1691888  99.2777760  14.5972709
  68.6616979  99.8313607  15.0413340  68.8718535  99.3386050  13.7791484
  69.0496773  99.3684071  14.5421166  71.3354071  87.6431079  13.4397372
  71.7609142  87.1903606  12.8280899  70.7211064  87.0891150  13.7162160
  71.3082716  87.4945056  13.3902398  60.8668921  94.5212751   4.3717997
  61.3761150  95.1177258   4.7529303  61.3403193  94.2538724   3.6894417
  61.0112296  94.5698566   4.3272520  69.7748293  84.1146179   6.8487949
  69.1316611  83.9643826   7.4173088  69.4347700  83.8688524   6.0837054
  69.6293371  84.0558302   6.8190965  74.5275767  88.5261490   9.1808331
  74.8803377  88.0991213   9.8554130  73.6690569  88.4412333   9.3109408
  74.4525212  88.4506230   9.3003342  63.2259452  91.1569009   7.2391178
  62.5071441  91.5733142   7.5064041  63.5971815  91.7223248   6.6882816
  63.1751384  91.3018291   7.1973985  72.5259033  91.7896858  13.1293174
  72.5056960  91.6080153  13.9827952  72.5738234  92.6608877  13.1052757
  72.5293674  91.8913396  13.2516468  70.4705363  98.3784050  19.0541650
  70.4301218  97.7333727  18.4686806  71.2828681  98.3220668  19.3667062
  70.5848517  98.2743017  19.0138599  75.9599827  83.6479901  10.1092644
  75.4530692  82.9409041  10.0413821  76.7567261  83.3173090  10.2393720
  76.0027067  83.4953053  10.1191639  66.1583072  92.0080987  15.6091408
  65.6461975  91.4002170  15.9676439  65.9862568  92.7237579  16.0765383
  66.0572709  92.0244286  15.7307631  61.0048786  90.4518562  18.2593769
  60.8351377  91.1119937  17.7141976  60.5614736  90.6625123  18.9806259
  60.9148120  90.5804544  18.2855399  64.9308606  88.6923060   7.3020503
  65.4065972  89.0540140   6.6670684  64.4297205  89.3479528   7.5820646
  64.9273965  88.8417249   7.2497244  70.0352142  89.9305231  18.0493663
  70.5923572  89.7019041  17.4172129  69.7113207  90.6910897  17.7728876
  70.0698552  90.0089068  17.9150160  57.9050851  93.3565428  13.5182259
  57.3577570  92.6866073  13.6363128  58.6943229  92.9895276  13.5825727
  57.9403035  93.2030414  13.5450960  67.7535259  93.0172885  19.0145670
  68.5046586  93.3324562  19.3285225  67.9457836  92.8152056  18.1879592
  67.8926673  93.0340267  18.9389066  56.6637820  92.5686235  10.6728282
  56.4859581  92.1162844  11.3983198  56.3756843  93.3712397  10.8566760
  56.5950774  92.6208793  10.8071785  72.3261401  93.8243953   9.9105673
  72.8215067  93.1066948   9.8709693  71.5161177  93.5214750   9.7960160
  72.2805295  93.6741599   9.8879399  58.4010290  95.1013959   7.7850041
  57.5355810  95.0899650   7.6732813  58.5009106  94.9144182   8.6321181
  58.2884457  95.0720020   7.8938986  74.3913220  96.5747640  12.5982801
  74.8168292  96.0522062  12.0453226  74.0270140  97.1728478  12.0771424
  74.3999823  96.5857867  12.4391811  64.0267300 104.8711858  11.3580147
  64.3413859 105.6848246  11.3657929  64.4360714 104.4862076  12.0262306
  64.1335398 104.9340560  11.4584239  73.0668804 101.8983218  21.1076031
  73.1765770 101.1091779  21.4632778  73.3959701 101.8089154  20.3050369
  73.1321210 101.7689071  21.0418422  67.8961315  85.0609375  15.8842054
  68.0289220  84.2640369  16.2123029  68.2806468  85.5875778  16.4640329
  67.9717644  85.0209292  16.0185557  71.6165766 100.0799839  15.6911652
  71.0686712  99.4557722  15.4231717  72.0778795 100.2694111  14.9755731
  71.6032976 100.0158889  15.5462083  70.9693670  81.9839701  12.4823147
  70.1639634  81.8737431  12.7990985  70.8400405  82.0852157  11.6253013
  70.8313803  81.9823371  12.4031187  74.4259630  88.1485193  13.0762844
  73.8422619  88.6494400  12.6640411  74.7463925  87.6414749  12.4427167
  74.3872806  88.1477028  12.9221351  66.9654430  87.0625788   3.3521519
  67.7870124  87.2324101   3.1103214  66.5024081  87.2173049   2.6287816
  67.0185592  87.1107521   3.2093163  65.5549762  85.0568550  14.1319947
  66.0994175  84.7159677  14.7224289  65.6086697  85.9154012  14.2741232
  65.6438881  85.1323810  14.2401821  61.3680320  98.8184966  11.0058755
  61.9725178  98.7780800  10.3772576  61.1607633  99.6656118  11.0362811
  61.4269218  98.9372969  10.9174872  71.1824092 101.0850911  12.2220993
  72.0022466 100.9413877  12.4837288  70.9018170 101.7097110  12.7637431
  71.2620836 101.1561263  12.3408932  56.6031603  97.8019584  10.8757678
  56.5055881  96.9915855  11.1847735  57.3860472  97.7811377  10.4903947
  56.7047739  97.6786674  10.8644541  74.5329120 105.1620554  15.6345966
  73.8400916 104.6917533  15.8806698  75.1489447 104.9358858  16.2087673
  74.5213650 105.0587686  15.7555119  77.3388342 103.1718450  21.3572118
  77.0241783 103.9418013  21.0941681  77.0178275 102.6088706  20.7724345
  77.2447261 103.2028719  21.2313468  76.9704848 105.7715701  20.0957333
  76.1604623 106.0773481  19.9847175  77.4479534 106.4921283  20.2109917
  76.9208326 105.9230302  20.0964404  71.9769823 103.8425969  16.3219044
  71.4412013 103.2306327  16.6379811  72.0387588 104.4174105  16.9752710
  71.9065456 103.8372897  16.4654471  81.0419589 108.5350028  20.7766772
  81.5119220 109.1592144  21.1634646  81.0881469 107.8667003  21.3359986
  81.1187464 108.5284708  20.9166843  79.9340237  98.0667001  15.6218688
  80.5633355  98.6027301  15.3439758  80.1026100  97.9744360  16.4732253
  80.0518032  98.1328363  15.7067216  79.7354152 102.8538195  17.8945099
  80.5627582 102.5823344  17.9503714  79.7561998 103.6499037  18.2508918
  79.8607002 102.9317950  17.9560282  76.2476422 104.2214513  17.7347038
  75.8561988 103.5747860  18.1702815  76.4162285 104.8125949  18.3541293
  76.2147333 104.2128781  17.8909744  71.3880850 107.1837009  15.5426727
  72.2506464 107.0832718  15.4564057  71.0572634 106.6031718  14.9812299
  71.4666047 107.0828636  15.4472133  74.7396033 102.1916408  18.8802168
  75.3648737 101.6478541  19.1531600  74.2846513 101.7111326  18.3109958
  74.7644294 102.0405890  18.8363761  71.9781370 105.9703870  18.2593769
  71.8083960 106.6305245  17.7141976  71.5347320 106.1810431  18.9806259
  71.8880704 106.0989852  18.2855399  78.8693898 100.5794683  15.8842054
  79.0021804  99.7825676  16.2123029  79.2539051 101.1061086  16.4640329
  78.9450227 100.5394600  16.0185557  76.5282345 100.5753858  14.1319947
  77.0726758 100.2344985  14.7224289  76.5819281 101.4339320  14.2741232
  76.6171465 100.6509117  14.2401821  50.9384217  44.4800147   6.4817302
  51.6450985  43.9852178   6.6104237  51.1272153  44.9209229   5.7519960
  51.0712123  44.4718497   6.3926348  48.0776512  47.9027684   4.3731378
  48.1659858  47.7153824   5.2209588  48.5066224  47.2565113   3.9736225
  48.1538614  47.7790691   4.4403129  45.6446972  47.1858844   3.3549040
  45.0817806  46.7731453   3.8788701  46.4067995  47.1111749   3.7742183
  45.6741420  47.1136244   3.4942040  48.1896571  47.3336703   7.0375161
  48.9736988  47.4467550   7.4030903  47.9893166  46.5077840   7.2333847
  48.2762596  47.2283422   7.1209547  48.3466964  49.2446805   0.6841617
  47.5482210  49.0046305   0.9415486  48.7952976  49.2961198   1.4308665
  48.2941576  49.2169196   0.8326541  47.4067701  42.9907250   8.5761805
  46.6140682  43.3050762   8.7614425  47.5216628  43.2058718   7.7382590
  47.3063112  43.0691086   8.4800140  53.6571642  44.2636431   3.5231955
  53.4210279  43.4324496   3.4044016  54.3014871  44.2122038   4.1086799
  53.7166313  44.1334119   3.5917849  45.6949266  49.2459052   1.6394629
  45.6192937  48.5767863   2.1945418  45.6239126  49.9476840   2.1535296
  45.6729873  49.2503960   1.7971477  45.0840901  52.6527372   0.0972630
  45.5736831  51.9538161  -0.0851705  44.5125133  52.3551242   0.6848687
  45.0725431  52.5053596   0.1573671  51.2807904  45.2189441   9.0499421
  52.0942770  44.9474590   9.2104553  51.1202871  44.9196981   8.2459617
  51.3777853  45.1344367   8.9544827  47.8172662  38.9172235   7.7106818
  48.2872293  39.5414352   8.0974692  47.8634542  38.2489211   8.2700033
  47.8940538  38.9106915   7.8506890  51.2929148  46.2795732   4.3222261
  51.9308869  45.7855927   3.9884717  50.6503240  46.2073132   3.7374488
  51.2923375  46.1954740   4.1864616  51.3483405  46.9715540   0.9627618
  52.1375783  46.6204605   1.0829700  51.5227003  47.7851928   0.7004252
  51.4903686  47.0401397   0.9415486  48.2191020  44.2791566   5.9881697
  48.1786875  43.6341243   5.4026853  49.0314338  44.2228183   6.3007109
  48.3334173  44.1750532   5.9478646  50.8154461  47.7990733   8.0416078
  50.9251427  47.0099294   8.3972825  51.1445358  47.7096669   7.2390416
  50.8806867  47.6696586   7.9758469  49.3651423  45.9807354   2.6251698
  48.8172369  45.3565238   2.3571764  49.8264452  46.1701626   1.9095778
  49.3518632  45.9166404   2.4802129  65.4023400  54.6423278  -7.8796084
  65.3717404  55.4967915  -7.7077815  66.0004748  54.3418571  -7.3209940
  65.4860557  54.7239775  -7.7721282  58.6023084  53.7298929  -3.1243154
  57.7460980  53.8907428  -3.0734037  58.6490738  52.8590993  -3.1038093
  58.4822196  53.6249731  -3.1137088  52.9864224  63.2661647  -7.3605922
  52.2347124  62.8877186  -7.5889877  53.4350236  63.2980081  -8.1087112
  52.9413891  63.2147254  -7.5048420  61.9116801  59.9985455   6.4817302
  62.6183568  59.5037486   6.6104237  62.1004736  60.4394537   5.7519960
  62.0444707  59.9903805   6.3926348  57.9793475  65.6401286  -5.9909263
  58.3632855  66.2088184  -6.5304488  57.9152617  64.9150796  -6.4703447
  58.0266903  65.6176749  -6.1415401  61.4474905  55.7890973  -0.4811502
  61.9930866  56.4676060  -0.4217532  61.3891782  55.6478434  -1.3409921
  61.5190820  55.8682975  -0.5999441  54.5648980  63.2780039  -5.0943150
  54.6659343  62.4680393  -4.7846022  53.9690726  63.1836986  -5.7243471
  54.4921519  63.1445068  -5.1416911  63.2239974  57.2175580  -9.6077774
  63.1079500  57.9683267  -9.1785636  64.0195861  56.9599534  -9.3581687
  63.3244564  57.2910427  -9.5073683  54.4049720  68.1957629  -3.6928294
  55.0487175  68.6370793  -3.3032135  54.7305975  67.3911055  -3.7798035
  54.5481549  68.1422823  -3.6482816  55.1070300  61.2069603  -8.3208432
  55.4286141  61.7474811  -8.9247124  55.7542396  60.6366375  -8.1886142
  55.2496355  61.2028779  -8.3901396  49.7873245  55.0138338  -0.3262939
  49.6631942  55.6000784   0.3086880  50.4391530  54.5198534  -0.0250664
  49.8646894  55.0277143  -0.1877010  57.3459943  59.5956043  -8.2494254
  57.7853579  58.9873144  -7.8039481  57.1964606  59.2163417  -9.0208789
  57.3881409  59.4494515  -8.2975086  54.8131586  58.1900055  -1.0475428
  55.4580589  57.6972498  -1.3664480  55.0533363  58.3324842  -0.2209350
  54.9442171  58.1377498  -0.9725895  57.3517677  61.0354961  -1.3968536
  57.6340920  60.2406367  -1.6181780  58.0803838  61.5135549  -1.3763475
  57.5007241  60.9889558  -1.4265520  67.3335766  60.1414323  -4.4232705
  66.5033469  60.3524967  -4.2599288  67.2845018  59.3151378  -4.6990421
  67.2042501  60.0503930  -4.4395339  49.3231349  64.1785997  -4.1934610
  48.8398928  64.9036486  -4.2175026  50.1354668  64.4762127  -4.0824452
  49.3722097  64.3288351  -4.1807331  55.3945503  62.9718178  -1.5884795
  54.8772445  62.6125593  -2.1923487  56.0919895  62.4480352  -1.5778729
  55.4211084  62.8415865  -1.6754537  59.0509095  63.4212992   4.3731378
  59.1392441  63.2339132   5.2209588  59.4798808  62.7750421   3.9736225
  59.1271198  63.2975999   4.4403129  56.6179555  62.7044152   3.3549040
  56.0550390  62.2916761   3.8788701  57.3800579  62.6297057   3.7742183
  56.6474004  62.6321552   3.4942040  52.1775547  64.6942173  -4.0414330
  52.8796126  64.1794162  -3.9841573  52.0973030  65.0216324  -3.2367455
  52.2699307  64.6656399  -3.9141538  66.8289724  52.7884724  -0.6282283
  65.9918145  52.8586911  -0.3934689  66.7977955  52.7909219  -1.5007981
  66.7008006  52.7994951  -0.7222735  53.2254453  54.9317760   5.0866085
  53.3974957  54.8223654   5.9351367  53.7623811  55.5772165   4.8497277
  53.3299457  55.0109761   5.1771182  51.5026322  60.8848525  -4.5328722
  52.3415221  61.1171458  -4.4854960  51.5338091  60.0152836  -4.6021686
  51.6308040  60.7905471  -4.5364077  52.1279025  61.3049400  -0.2315416
  52.6677250  61.1620531   0.4387956  51.4448971  61.7046151   0.1368610
  52.1071179  61.3429071  -0.0780995  61.5519910  56.9840401  -5.0370392
  62.3077425  57.4171915  -4.9981483  61.6582234  56.3345170  -4.4635756
  61.6790080  56.9517884  -4.9472366  64.5900081  60.8113678  -4.2867989
  64.1535313  60.8150420  -3.5309018  64.2562996  61.4919177  -4.7188412
  64.4762701  60.9126134  -4.2387156  59.1629155  62.8522011   7.0375161
  59.9469571  62.9652858   7.4030903  58.9625749  62.0263148   7.2333847
  59.2495180  62.7468730   7.1209547  47.5316170  57.5249691  -0.0780995
  47.2654585  56.7088807   0.0809995  47.5454734  57.5702846  -0.9485479
  47.4940892  57.4106596  -0.1827513  64.5097564  47.8527506  -2.0438561
  65.1523472  47.9225610  -1.4576646  64.7620585  47.1856729  -2.5459019
  64.6419696  47.7653854  -2.0311282  52.2814776  51.0628069   2.5686013
  51.5886573  50.5925049   2.8146744  52.8975104  50.8366374   3.1427720
  52.2699306  50.9595201   2.6895165  59.3199548  64.7632113   0.6841617
  58.5214794  64.5231613   0.9415486  59.7685559  64.8146506   1.4308665
  59.2674159  64.7354504   0.8326541  67.7244427  57.5294598  -5.3948352
  68.3860861  56.9685266  -5.4952443  67.0835839  57.0346628  -5.0695661
  67.7273295  57.3731007  -5.3616012  47.9409584  58.3108470  -2.7969251
  47.7585157  58.2855356  -3.6496958  48.6759253  58.7807408  -2.7580342
  48.0223648  58.3769832  -2.9171332  64.0109258  58.5459980  -5.6536363
  64.2464847  58.6905179  -6.4809512  64.1598822  59.3102388  -5.2604849
  64.0675061  58.6799034  -5.7172759  51.0055335  55.0293473   3.7112858
  51.7295308  55.0146504   4.1977753  51.1071472  55.7388828   3.2134826
  51.1273544  55.1318176   3.7091645  65.8399715  57.3861646  -7.8166759
  66.1707932  57.9189286  -8.4226664  66.4132803  57.4400534  -7.1604808
  65.9733394  57.4731215  -7.8088977  58.3800285  58.5092558   8.5761805
  57.5873266  58.8236069   8.7614425  58.4949212  58.7244026   7.7382590
  58.2795695  58.5876394   8.4800140  61.0531604  55.2326549  -7.1343179
  61.1478458  55.9715843  -6.6803554  60.4290447  54.8044024  -6.7008615
  60.9740634  55.2787869  -7.0035032  59.3084078  58.4112761   3.5147102
  59.8822939  57.7740006   3.6695666  59.2298881  58.4116844   2.6456759
  59.3817312  58.3177873   3.4093513  47.9080494  55.1901971  -2.6470184
  48.4853997  55.0538422  -2.0077939  47.2094556  54.7337755  -2.3924600
  47.8901515  55.1024237  -2.5147894  54.6647796  56.8436026  -4.4331701
  54.4067041  56.0107761  -4.4600401  54.7196279  57.0693639  -5.2739200
  54.6347574  56.7533798  -4.5611564  57.3055797  52.8697138   0.9125572
  56.9170230  52.4451356   0.2577764  56.6410495  53.1179288   1.4202599
  57.1502725  52.8435859   0.8913440  66.9479066  52.6272143  -6.3126598
  66.6915631  51.8152084  -6.5028715  67.7908380  52.6349710  -6.5396410
  67.0345092  52.5084140  -6.3741780  61.1282159  46.5671767  -1.5750443
  61.5092670  45.8849938  -1.1882569  60.3245443  46.2781369  -1.7574779
  61.0658620  46.4238815  -1.5446387  64.6304225  59.7821739   3.5231955
  64.3942863  58.9509804   3.4044016  65.2747454  59.7307346   4.1086799
  64.6898896  59.6519427   3.5917849  54.2802644  60.5717260  -5.7625309
  54.9176590  60.3329008  -5.2173515  54.7057715  60.7754419  -6.4972148
  54.4378810  60.5668270  -5.7908151  48.9715286  62.8105597  -1.8791005
  49.0119431  63.0820448  -2.7071225  49.5309810  63.3347505  -1.4633217
  49.0598632  62.9281352  -1.9399117  55.0873999  49.0725965   8.2912165
  54.7727440  49.8425528   8.0281728  54.7663932  48.5096221   7.7064392
  54.9932918  49.1036234   8.1653515  65.6540646  59.5666188  -0.4139750
  65.3486463  60.2994245  -0.0526435  64.9346862  59.1604117  -0.6946964
  65.5027988  59.6147921  -0.4026613  56.6624115  61.0489683  -4.0831522
  56.7363124  60.8864855  -3.2289672  57.4793622  61.2379872  -4.3271041
  56.7940474  61.0526425  -3.9933497  71.3542438  56.2059188  -1.0871406
  71.2866938  56.2255148  -1.9568820  71.3398101  57.0489516  -0.8615736
  71.3421195  56.3332923  -1.1818929  50.4229872  61.3947546  -7.0537079
  49.5967990  61.6409283  -7.1802800  50.4841863  61.3159627  -6.1875021
  50.3104039  61.4192495  -6.9448134  61.7638785  47.6094346   2.2369683
  62.5092377  47.4204156   1.8233109  61.3476089  48.1352584   1.6783540
  61.8123759  47.6596491   2.0934256  55.2028701  64.0124426  -9.3518049
  55.4927000  63.6213407 -10.0758822  55.9332182  64.1941131  -8.9112774
  55.3535585  63.9818240  -9.3935242  69.1401056  54.9803575  -2.8124812
  69.6908977  54.3471644  -2.5727720  69.1245171  55.5118967  -2.1209308
  69.2186252  54.9652523  -2.6745954  55.7923446  58.8142172   1.7335082
  55.2935140  59.5257940   1.8119970  56.6023671  59.1342838   1.6953244
  55.8379553  58.9669020   1.7391650  53.1434617  65.9891808  -6.2857899
  52.9234912  65.6989163  -5.4931232  52.9229139  65.3306763  -6.8139987
  53.0782211  65.8491517  -6.2468990  52.0551564  58.0765125  -4.0202197
  51.7664813  57.4502596  -3.4856470  52.9234912  58.0185412  -3.9537517
  52.1411816  57.9752669  -3.9311243  62.8429462  53.2199908  -3.7020216
  62.4994228  52.4990243  -3.3512966  62.9422504  53.0113759  -4.5441857
  62.8071505  53.0824112  -3.7748536  55.3102573  67.3621198  -7.5027207
  55.9626631  66.8297641  -7.2736181  54.6128181  67.0089851  -7.1159333
  55.3033290  67.2310721  -7.4115039  63.3042491  59.6825612  -8.1596228
  63.8700523  60.3418822  -8.2437685  62.6570394  60.0275310  -7.6879825
  63.2921247  59.8307554  -8.1023471  54.7190504  51.6723216   7.0297380
  53.9090280  51.9780996   6.9187222  55.1965191  52.3928799   7.1449964
  54.6693983  51.8237817   7.0304451  53.5782064  60.8868937  -2.7219717
  53.0562817  61.0269229  -2.0367852  53.9656084  60.1279602  -2.5317600
  53.5585765  60.7954461  -2.5918641  59.7749069  62.6264397  -8.7359148
  59.5335745  61.8932257  -9.1432083  59.9550402  63.1751254  -9.3892815
  59.7656693  62.5986788  -8.8928925  61.3620427  51.1391493  -1.8260673
  60.5231528  51.1652772  -2.0622409  61.4324794  51.7862228  -1.2455326
  61.2488821  51.2387619  -1.7751556  51.0534536  57.2085767   1.8996782
  51.5655633  57.4870020   1.2505542  50.7670879  57.9475061   2.2659595
  51.0869399  57.3588120   1.8586660  65.2377951  56.3459480  -4.5399431
  65.1511926  56.5014906  -3.6864652  64.7828431  56.9897555  -4.9140026
  65.1581208  56.4635235  -4.4692324  54.5718262  49.3012155   1.9597824
  54.3801459  49.3167290   2.8097247  55.4216858  49.4975830   1.9364479
  54.6693984  49.3326506   2.0821119  48.9565175  51.8303137  -0.0618360
  48.8150667  50.9787077   0.0626148  49.2405738  51.8731797  -0.8856154
  48.9773021  51.7102887  -0.1650736  59.1103767  53.6670227  -5.9173871
  58.8638481  53.5865978  -5.0837083  59.4388890  52.8823695  -6.1111344
  59.1225011  53.5396492  -5.8226348  63.0051816  60.3753586  -2.1287090
  62.8666175  61.0734632  -1.6238348  62.2251814  60.2202243  -2.4850908
  62.8695043  60.4553753  -2.1060816  61.3429901  56.6749962   4.1235291
  61.3377940  55.8029778   4.1277718  62.0490895  56.8738131   3.6504747
  61.4474905  56.5753836   4.0542327  55.0700794  56.4026945   3.4949112
  55.2144170  56.9828154   2.8592222  55.4176443  56.7803242   4.1998966
  55.1428256  56.5447650   3.5048107  57.2420712  55.6017114   1.2774243
  56.4944026  55.7948128   0.8722521  57.3962237  54.7762333   1.0398365
  57.1543139  55.5082225   1.1819649  54.1428549  64.5929717   0.3610138
  54.2918113  64.0332633  -0.2916457  54.9228551  64.6721719   0.7442657
  54.2802643  64.5215283   0.3207088  64.5005189  59.7331840 -11.3670591
  64.1211997  58.9468978 -11.3741302  63.8371434  60.2818697 -11.5098947
  64.3463664  59.6976664 -11.3889794  56.6681850  64.7644360   1.6394629
  56.5925521  64.0953171   2.1945418  56.5971709  65.4662148   2.1535296
  56.6462457  64.7689268   1.7971477  57.4822489  49.4967665   2.1669647
  57.9395103  50.2291639   2.2942439  57.5578818  49.0734130   2.9256903
  57.5613459  49.5424903   2.2970723  49.7255480  49.7433484   3.2559091
  49.1897669  49.1313842   3.5719858  49.7873245  50.3181620   3.9092757
  49.6551113  49.7380412   3.3994517  57.3252097  63.2845359  -7.5281765
  58.0901988  63.0155003  -7.8499101  57.2230187  62.7995369  -6.8111702
  57.4233592  63.1734924  -7.4701937  55.3604867  51.4869769  -0.9888529
  54.5700941  51.3061229  -0.6671193  55.7565489  50.7096721  -1.0058235
  55.3021743  51.3457229  -0.9435981  60.7448553  59.1212199  -3.2629083
  60.0693555  58.8897431  -2.7615696  60.7540929  58.5133382  -3.8886978
  60.6467057  58.9971124  -3.2812931  57.8742697  53.9630028   3.4934970
  57.8101838  54.8239984   3.3655107  58.0139885  53.6462021   2.6930521
  57.8858167  54.0430194   3.3563183  62.7465288  61.9777331 -11.0318905
  62.8285125  62.7844317 -11.3557454  63.2315030  61.9973290 -10.3078132
  62.8302445  62.0997993 -10.9732007  56.5561791  56.6562167  -2.3648827
  56.1324040  56.8566666  -3.1009809  56.3806646  55.8091015  -2.2524527
  56.4672671  56.5610948  -2.4575137  56.0573484  68.1712680   0.0972630
  56.5469415  67.4723469  -0.0851705  55.4857717  67.8736550   0.6848687
  56.0458014  68.0238904   0.1573671  62.2540488  60.7374749   9.0499421
  63.0675353  60.4659898   9.2104553  62.0935454  60.4382289   8.2459617
  62.3510436  60.6529675   8.9544827  59.5312650  51.4208406   1.9894809
  59.7454619  50.7819321   1.4358163  58.9146549  51.8654230   1.5602671
  59.4717979  51.3918550   1.8445240  60.9417318  64.3427155  -6.5650970
  60.5497109  64.0393870  -7.2828104  61.0970390  65.1796245  -6.7546016
  60.9070908  64.4210992  -6.6994473  61.6951738  53.0297472   2.9278116
  60.8828420  52.7223362   3.0091289  62.1541672  52.5496472   3.4920828
  61.6432123  52.9133964   3.0232710  61.1056992  60.9077144  -6.6244940
  60.7471647  61.0791787  -5.8480907  60.6195703  61.3690349  -7.1816941
  60.9815689  61.0016115  -6.5919670  58.7905245  54.4357543   7.7106818
  59.2604876  55.0599659   8.0974692  58.8367125  53.7674519   8.2700033
  58.8673121  54.4292223   7.8506890  58.0168752  47.0807531   0.2648475
  57.6300506  47.1056562   1.0462005  57.5301690  46.5149209  -0.1877009
  57.8881261  47.0003281   0.3136378  62.2661732  61.7981040   4.3222261
  62.9041452  61.3041235   3.9884717  61.6235823  61.7258440   3.7374488
  62.2655958  61.7140048   4.1864616  63.9918732  53.6470186  -1.1111823
  63.5646340  53.5596534  -1.8663724  63.3544785  53.7547961  -0.5256979
  63.8348339  53.6502845  -1.1366382  57.6825894  43.9674516   2.5558735
  58.3119012  44.5034816   2.2779805  57.8511757  43.8751875   3.4072300
  57.8003689  44.0335878   2.6407263  57.4839809  48.7545711   4.8285146
  58.3113238  48.4830860   4.8843761  57.5047655  49.5506553   5.1848964
  57.6092659  48.8325465   4.8900329  62.3215988  62.4900848   0.9627618
  63.1108367  62.1389913   1.0829700  62.4959586  63.3037236   0.7004252
  62.4636270  62.5586705   0.9415486  52.0609299  55.9009574  -1.9844593
  51.2197305  55.8013448  -1.7765699  52.2699307  56.6705054  -1.6330272
  51.9673991  56.0001617  -1.9017278  55.8725964  53.8290973  -2.7346996
  55.5689101  53.2746961  -2.1336588  55.1705384  54.0083183  -3.2218961
  55.7242173  53.7735755  -2.7177290  53.9344315  61.0440694   1.9725102
  53.8264670  61.0542756   2.8387160  54.1440096  61.8695474   1.7830056
  53.9494426  61.1681768   2.0729194  64.4283500  47.0542169  -4.9953198
  63.8157814  47.5412571  -4.6099466  64.5247675  46.3785660  -4.4515547
  64.3521398  47.0260478  -4.8574340  51.9518107  58.2953336  -0.5652960
  51.3606040  58.9362834  -0.5949945  52.7139130  58.7190953  -0.5921661
  51.9766367  58.4529174  -0.5737813  52.3478729  49.4555334   0.1015057
  52.8080211  49.5294263   0.8390181  52.3934836  50.2536588  -0.2485121
  52.4229285  49.5849481   0.1587814  53.9962079  50.1222029   4.6687085
  53.6047644  49.4755376   5.1042862  54.1647942  50.7133464   5.2881340
  53.9632990  50.1136296   4.8249790  68.0708528  58.1259106   0.4324318
  68.1291652  58.5745754   1.1784295  67.4374996  58.5357918  -0.0045602
  67.9859823  58.2532840   0.4776866  61.7107623  63.7462648  -3.1320936
  61.5127312  64.2353462  -3.8264724  61.0895334  63.9503889  -2.5536802
  61.5895187  63.8479186  -3.1497712  58.7593477  51.0873018  -2.8916772
  58.2853431  50.5614780  -2.3811461  59.1311613  50.5402490  -3.4601911
  58.7443366  50.9289014  -2.9001625  49.1366507  53.0844524   2.4766774
  49.9992120  52.9840234   2.3904103  48.8058290  52.5039234   1.9152346
  49.2151704  52.9836151   2.3812179  65.0230208  56.1475393  -1.4809992
  64.7828431  55.3081808  -1.4767565  65.5022215  56.2275560  -0.7569218
  65.0582391  56.0356793  -1.3735189  67.0235395  52.9276851  -3.5280733
  66.7845165  52.8872685  -4.3659948  67.1869296  53.7748003  -3.4015011
  67.0125698  53.0468936  -3.6327251  63.6281425  57.3126800   2.4024313
  64.3515624  56.8599326   2.2235333  63.3631387  57.5931465   1.6196640
  63.6962698  57.2877768   2.2603028  52.4968293  51.9086973  -0.8622808
  51.8721363  51.9205365  -1.4696855  52.1613888  52.3847148  -0.2131568
  52.3553785  51.9805490  -0.8566240  49.2093969  59.9687433   0.5780956
  48.6793893  59.2779872   0.6275931  49.4819062  59.9597619  -0.2506335
  49.1718691  59.8654565   0.4628372  59.4100214  57.4110678   0.5519328
  58.7957207  56.8668728   0.8467963  59.9267499  56.8974915   0.0725144
  59.3955877  57.2547087   0.5243556  58.6496512  58.4814948  -1.7136374
  58.2224120  57.8564667  -2.1470938  58.6421456  58.1989870  -0.8877366
  58.5855653  58.3467729  -1.6556546  51.7659039  53.5180121   1.3552060
  51.9252525  52.7623445   1.7603782  51.5851932  54.0671061   2.0092798
  51.7624398  53.4873935   1.5114766  59.7079342  45.6841357   1.9102850
  59.2119903  45.8805031   1.2194416  60.4648404  46.0834025   1.7391651
  59.7466166  45.7719091   1.7822987  56.9782221  49.3583703  -1.4993840
  57.0024708  48.8243815  -2.1881060  57.2293695  48.8501011  -0.8368249
  57.0192140  49.2044607  -1.5029195  55.4413156  57.6515261   5.9832199
  54.5908787  57.7886975   6.1189844  55.6041284  56.9179039   6.4279901
  55.3397020  57.5629362   6.0687798  54.6797907  54.6015031   0.1785804
  53.8489836  54.7688849  -0.0278948  54.6249424  54.2250981   0.9634689
  54.5487322  54.5704762   0.2634332  52.4881690  48.0923924   5.8142214
  53.1134393  47.5486056   6.0871647  52.0332170  47.6118841   5.2450005
  52.5129951  47.9413405   5.7703808  66.0616739  56.2753211   0.9054862
  66.6534579  56.9150461   0.9373060  66.4975733  55.5776247   1.1946929
  66.2135170  56.2671561   0.9535695  57.8910129  60.6970583   1.5312756
  57.3835220  61.2506430   1.9753387  57.5936775  60.7578873   0.7131531
  57.7715014  60.7876894   1.4761213  60.0572311  49.0623903   0.3737419
  60.4827382  48.6096429  -0.2379054  59.4429304  48.5083973   0.6502207
  60.0300956  48.9137879   0.3242445  60.5017909  64.6133841 -10.5383300
  59.7847219  64.4394703 -11.0036063  61.1524647  64.3786413 -11.0707814
  60.4919759  64.5529633 -10.6854082  63.0865880  53.4898429  -6.7941995
  62.4157070  54.0328132  -6.9228930  63.7805630  53.9593285  -7.0360300
  63.0894748  53.6396700  -6.8486467  57.1352614  65.6295141  -1.5630237
  56.9118268  64.8713971  -1.1946211  56.6462457  65.6593162  -2.2849797
  57.0296063  65.5217366  -1.6153496  63.2494008  49.9454313  -3.8851622
  63.6021618  49.5184036  -3.2105823  62.3908809  49.8605156  -3.7550546
  63.1743452  49.8699054  -3.7656611  61.2477273  53.2089681   0.0633220
  61.2275201  53.0272977   0.9167999  61.2956474  54.0801700   0.0392804
  61.2511914  53.3106220   0.1856515  59.1923603  59.7976873   5.9881697
  59.1519458  59.1526550   5.4026853  60.0046922  59.7413491   6.3007109
  59.3066757  59.6935840   5.9478646  55.7831071  65.8495599  -4.1093152
  55.3691470  65.1869730  -4.4989311  56.4678445  65.9973458  -4.6297458
  55.8229443  65.7736258  -4.2436655  59.1496365  65.0085685  -3.3569536
  58.7512648  65.1187955  -4.1248715  58.5347585  65.2167751  -2.7742976
  58.9995254  65.0559253  -3.3838236  64.6818068  45.0672725  -2.9567309
  64.1748932  44.3601864  -3.0246132  65.4785501  44.7365914  -2.8266233
  64.7245307  44.9145876  -2.9468314  54.8801312  53.4273810   2.5431455
  54.3680215  52.8194993   2.9016486  54.7080808  54.1430403   3.0105430
  54.7790949  53.4437109   2.6647678  49.7267027  51.8711385   5.1933816
  49.5569617  52.5312760   4.6482023  49.2832977  52.0817947   5.9146305
  49.6366360  51.9997367   5.2195446  66.8838208  59.5837651  -9.9726445
  67.2671813  60.3329007  -9.7428348  66.0882321  59.8303471 -10.2314456
  66.8231990  59.7307345  -9.9768871  58.7570382  51.3498055   4.9833710
  59.3141813  51.1211864   4.3512175  58.4331447  52.1103720   4.7068922
  58.7916793  51.4281891   4.8490207  46.6269091  54.7758251   0.4522306
  46.0795811  54.1058896   0.5703174  47.4161469  54.4088099   0.5165773
  46.6621275  54.6223237   0.4791007  56.4753500  54.4365708   5.9485717
  57.2264827  54.7517385   6.2625271  56.6676076  54.2344879   5.1219639
  56.6144914  54.4533090   5.8729113  61.0479642  55.2436776  -3.1554281
  61.5433307  54.5259771  -3.1950260  60.2379418  54.9407574  -3.2699794
  61.0023535  55.0934422  -3.1780555  63.1131461  57.9940464  -0.4677152
  63.5386532  57.4714885  -1.0206727  62.7488381  58.5921301  -0.9888529
  63.1218063  58.0050691  -0.6268142  52.7485541  66.2904681  -1.7079806
  53.0632099  67.1041069  -1.7002025  53.1578954  65.9054900  -1.0397647
  52.8553639  66.3533383  -1.6075715  59.7010060  61.7074728  -4.1375994
  60.1721238  62.4214990  -3.9686009  60.0370239  61.1073478  -3.6016125
  59.8205175  61.7246192  -4.0343618  61.7887045  63.3176041   8.0416078
  61.8984010  62.5284602   8.3972825  62.1177941  63.2281977   7.2390416
  61.8539451  63.1881894   7.9758469  56.6179555  46.4802198   2.8182101
  56.7507461  45.6833192   3.1463076  57.0024708  47.0068601   3.3980376
  56.6935884  46.4402115   2.9525603  60.3384006  61.4992662   2.6251698
  59.7904952  60.8750546   2.3571764  60.7997035  61.6886934   1.9095778
  60.3251216  61.4351712   2.4802129  63.1477871  49.5678016   0.0102891
  62.5640860  50.0687223  -0.4019542  63.4682165  49.0607573  -0.6232786
  63.1091046  49.5669851  -0.1438602  54.2768002  46.4761373   1.0659994
  54.8212415  46.1352500   1.6564336  54.3304938  47.3346835   1.2081279
  54.3657121  46.5516633   1.1741868  50.0898561  60.2377789  -2.0601198
  50.6943418  60.1973624  -2.6887377  49.8825873  61.0848942  -2.0297142
  50.1487458  60.3565792  -2.1485081  59.9042333  62.5043735  -0.8438960
  60.7240707  62.3606701  -0.5822665  59.6236410  63.1289934  -0.3022523
  59.9839076  62.5754087  -0.7251021  45.3249843  59.2212407  -2.1902275
  45.2274121  58.4108679  -1.8812218  46.1078713  59.2004200  -2.5756007
  45.4265979  59.0979497  -2.2015412  69.5755668  69.2484237  -3.1243154
  68.7193564  69.4092736  -3.0734037  69.6223322  68.3776301  -3.1038093
  69.4554779  69.1435039  -3.1137088  72.8849385  75.5170763   6.4817302
  73.5916152  75.0222794   6.6104237  73.0737320  75.9579845   5.7519960
  73.0177290  75.5089113   6.3926348  72.4207489  71.3076281  -0.4811502
  72.9663449  71.9861368  -0.4217532  72.3624365  71.1663742  -1.3409921
  72.4923403  71.3868283  -0.5999441  58.7346608  74.8185634  -5.4690816
  58.4996793  73.9853286  -5.5758547  58.8732249  75.0990300  -6.2829615
  58.7202271  74.7369137  -5.6048461  61.0336696  66.9871365  -2.5706508
  60.4141727  66.3964012  -2.7396493  60.9320559  67.5782800  -3.2042185
  60.9274371  66.9875447  -2.6901519  60.7605829  70.5323646  -0.3262939
  60.6364526  71.1186092   0.3086880  61.4124113  70.0383842  -0.0250664
  60.8379478  70.5462451  -0.1877010  65.7864170  73.7085363  -1.0475428
  66.4313172  73.2157806  -1.3664480  66.0265947  73.8510150  -0.2209350
  65.9174755  73.6562805  -0.9725895  68.3250261  76.5540269  -1.3968536
  68.6073504  75.7591675  -1.6181780  69.0536421  77.0320857  -1.3763475
  68.4739825  76.5074866  -1.4265520  66.3031455  64.0963303  -4.1552770
  65.9734785  64.5474447  -4.8249072  65.6276457  64.0179466  -3.6079764
  66.1541891  64.1514438  -4.1729547  73.5107863  60.0848826  -5.9103160
  73.1961304  60.7752305  -5.4782737  72.9934804  60.0293608  -6.6117659
  73.3872333  60.1783714  -5.9506211  60.2963933  79.6971305  -4.1934610
  59.8131511  80.4221794  -4.2175026  61.1087251  79.9947435  -4.0824452
  60.3454681  79.8473658  -4.1807331  66.3678087  78.4903485  -1.5884795
  65.8505029  78.1310900  -2.1923487  67.0652478  77.9665660  -1.5778729
  66.3943668  78.3601173  -1.6754537  70.0241679  78.9398300   4.3731378
  70.1125025  78.7524440   5.2209588  70.4531391  78.2935729   3.9736225
  70.1003781  78.8161307   4.4403129  67.5912139  78.2229459   3.3549040
  67.0282973  77.8102069   3.8788701  68.3533162  78.1482365   3.7742183
  67.6206587  78.1506860   3.4942040  64.5087409  62.1575591  -8.6729823
  65.2633377  62.5253909  -8.9112773  64.3314944  62.5315146  -7.9050643
  64.5941887  62.2673779  -8.5944934  77.8022308  68.3070032  -0.6282283
  76.9650729  68.3772219  -0.3934689  77.7710539  68.3094527  -1.5007981
  77.6740590  68.3180259  -0.7222735  64.1987037  70.4503068   5.0866085
  64.3707540  70.3408962   5.9351367  64.7356394  71.0957473   4.8497277
  64.3032041  70.5295069   5.1771182  62.8644474  64.5645910 -11.9751710
  62.6820047  64.7817791 -12.8010717  63.7270087  64.6784923 -11.9193095
  62.9649063  64.6135808 -12.0897223  62.4758906  76.4033833  -4.5328722
  63.3147805  76.6356765  -4.4854960  62.5070675  75.5338144  -4.6021686
  62.6040623  76.3090779  -4.5364077  63.1011609  76.8234708  -0.2315416
  63.6409834  76.6805839   0.4387956  62.4181555  77.2231459   0.1368610
  63.0803762  76.8614379  -0.0780995  68.5444193  61.5672321  -8.9402686
  69.2730353  61.3888276  -9.3864530  68.6339086  62.4090401  -8.7295508
  68.6650855  61.6656200  -8.9749168  70.1361738  78.3707319   7.0375161
  70.9202155  78.4838166   7.4030903  69.9358333  77.5448456   7.2333847
  70.2227764  78.2654038   7.1209547  58.5048754  73.0434999  -0.0780995
  58.2387169  72.2274115   0.0809995  58.5187318  73.0888154  -0.9485479
  58.4673476  72.9291903  -0.1827513  75.4830147  63.3712814  -2.0438561
  76.1256056  63.4410918  -1.4576646  75.7353168  62.7042036  -2.5459019
  75.6152280  63.2839162  -2.0311282  63.2547360  66.5813377   2.5686013
  62.5619157  66.1110357   2.8146744  63.8707687  66.3551681   3.1427720
  63.2431890  66.4780509   2.6895165  70.2932132  80.2817421   0.6841617
  69.4947377  80.0416921   0.9415486  70.7418143  80.3331813   1.4308665
  70.2406743  80.2539812   0.8326541  58.9142167  73.8293778  -2.7969251
  58.7317741  73.8040664  -3.6496958  59.6491836  74.2992716  -2.7580342
  58.9956231  73.8955140  -2.9171332  61.9787919  70.5478781   3.7112858
  62.7027891  70.5331812   4.1977753  62.0804055  71.2574136   3.2134826
  62.1006128  70.6503484   3.7091645  69.3532868  74.0277866   8.5761805
  68.5605849  74.3421377   8.7614425  69.4681795  74.2429334   7.7382590
  69.2528279  74.1061702   8.4800140  70.2816661  73.9298069   3.5147102
  70.8555523  73.2925313   3.6695666  70.2031465  73.9302152   2.6456759
  70.3549896  73.8363181   3.4093513  58.8813078  70.7087279  -2.6470184
  59.4586580  70.5723730  -2.0077939  58.1827139  70.2523063  -2.3924600
  58.8634099  70.6209545  -2.5147894  65.6380380  72.3621334  -4.4331701
  65.3799624  71.5293069  -4.4600401  65.6928863  72.5878947  -5.2739200
  65.6080158  72.2719106  -4.5611564  70.7181430  64.4649785  -4.3327608
  70.0137757  63.9758971  -4.1743689  70.7666404  64.4772260  -5.2039164
  70.6211482  64.3939433  -4.4388268  64.6115092  69.9159097  -3.9466806
  64.0364683  70.0751265  -3.3102845  64.2350768  69.2794506  -4.4098355
  64.4717904  69.8456910  -3.9212248  68.2788381  68.3882446   0.9125572
  67.8902813  67.9636664   0.2577764  67.6143079  68.6364596   1.4202599
  68.1235308  68.3621167   0.8913440  54.3571911  69.5599172  -5.9322365
  54.4432163  69.1831040  -5.1508835  54.9847708  69.1859617  -6.4102407
  54.4628462  69.4484654  -5.8876888  72.1014742  62.0857075  -1.5750443
  72.4825254  61.4035246  -1.1882569  71.2978026  61.7966677  -1.7574779
  72.0391204  61.9424123  -1.5446387  75.6036809  75.3007047   3.5231955
  75.3675446  74.4695112   3.4044016  76.2480038  75.2492654   4.1086799
  75.6631480  75.1704735   3.5917849  59.9447870  78.3290905  -1.8791005
  59.9852015  78.6005756  -2.7071225  60.5042394  78.8532813  -1.4633217
  60.0331215  78.4466660  -1.9399117  66.0606583  64.5911273   8.2912165
  65.7460024  65.3610836   8.0281728  65.7396515  64.0281529   7.7064392
  65.9665502  64.6221542   8.1653515  76.6273230  75.0851496  -0.4139750
  76.3219047  75.8179552  -0.0526435  75.9079445  74.6789425  -0.6946964
  76.4760572  75.1333229  -0.4026613  63.6138480  62.9801795  -6.0941639
  62.7460905  63.0524394  -6.0284029  63.9013684  63.7823874  -5.9053664
  63.5278228  63.1095942  -6.0566872  72.7371368  63.1279654   2.2369683
  73.4824960  62.9389464   1.8233109  72.3208673  63.6537892   1.6783540
  72.7856342  63.1781799   2.0934256  66.7656030  74.3327480   1.7335082
  66.2667724  75.0443247   1.8119970  67.5756254  74.6528146   1.6953244
  66.8112137  74.4854328   1.7391650  63.0284148  73.5950433  -4.0202197
  62.7397396  72.9687904  -3.4856470  63.8967496  73.5370720  -3.9537517
  63.1144399  73.4937977  -3.9311243  73.8162045  68.7385216  -3.7020216
  73.4726811  68.0175551  -3.3512966  73.9155088  68.5299067  -4.5441857
  73.7804088  68.6009419  -3.7748536  65.6923088  67.1908524   7.0297380
  64.8822864  67.4966304   6.9187222  66.1697775  67.9114107   7.1449964
  65.6426567  67.3423125   7.0304451  64.5514648  76.4054245  -2.7219717
  64.0295401  76.5454537  -2.0367852  64.9388668  75.6464909  -2.5317600
  64.5318348  76.3139769  -2.5918641  61.5405832  66.4560054  -8.6524762
  61.2530627  66.0861324  -9.3892815  62.2276300  66.9254909  -8.9141057
  61.5994729  66.4707023  -8.8009687  64.3759503  70.3213002  -7.2057358
  65.0982155  70.4854160  -7.6653552  63.8967496  71.0422667  -7.3118018
  64.4123234  70.4511232  -7.2891744  72.3353011  66.6576801  -1.8260673
  71.4964111  66.6838080  -2.0622409  72.4057378  67.3047536  -1.2455326
  72.2221404  66.7572927  -1.7751556  62.0267120  72.7271075   1.8996782
  62.5388217  73.0055328   1.2505542  61.7403462  73.4660369   2.2659595
  62.0601983  72.8773428   1.8586660  70.7822289  63.5562178  -7.0933057
  71.4848642  63.3569926  -7.5713099  70.5166478  62.7838120  -6.7864213
  70.8468921  63.4125144  -7.1187615  59.1134026  67.2341266  -7.8039481
  59.2150163  68.0367428  -7.4758506  59.9089913  67.0328602  -8.1016401
  59.2461932  67.3227165  -7.8004126  65.5450845  64.8197463   1.9597824
  65.3534042  64.8352598   2.8097247  66.3949441  65.0161137   1.9364479
  65.6426567  64.8511814   2.0821119  59.9297758  67.3488445  -0.0618360
  59.7883250  66.4972385   0.0626148  60.2138322  67.3917105  -0.8856154
  59.9505604  67.2288195  -0.1650736  70.0836351  69.1855535  -5.9173871
  69.8371065  69.1051286  -5.0837083  70.4121474  68.4009003  -6.1111344
  70.0957594  69.0581800  -5.8226348  72.3162485  72.1935270   4.1235291
  72.3110523  71.3215086   4.1277718  73.0223478  72.3923439   3.6504747
  72.4207489  72.0939144   4.0542327  66.0433378  71.9212253   3.4949112
  66.1876754  72.5013462   2.8592222  66.3909026  72.2988550   4.1998966
  66.1160839  72.0632957   3.5048107  68.2153295  71.1202422   1.2774243
  67.4676609  71.3133436   0.8722521  68.3694821  70.2947641   1.0398365
  68.1275723  71.0267533   1.1819649  65.1161133  80.1115025   0.3610138
  65.2650697  79.5517941  -0.2916457  65.8961135  80.1907027   0.7442657
  65.2535227  80.0400591   0.3207088  67.6414434  80.2829668   1.6394629
  67.5658105  79.6138479   2.1945418  67.5704293  80.9847456   2.1535296
  67.6195040  80.2874575   1.7971477  68.4555072  65.0152972   2.1669647
  68.9127686  65.7476947   2.2942439  68.5311401  64.5919438   2.9256903
  68.5346042  65.0610211   2.2970723  60.6988064  65.2618792   3.2559091
  60.1630253  64.6499150   3.5719858  60.7605828  65.8366928   3.9092757
  60.6283696  65.2565720   3.3994517  72.9282398  58.1942848  -3.9636510
  73.0465966  58.6519311  -4.6969207  72.7544574  57.3888109  -4.2500293
  72.9201569  58.1436620  -4.1135576  66.3337450  67.0055076  -0.9888529
  65.5433525  66.8246537  -0.6671193  66.7298073  66.2282029  -1.0058235
  66.2754326  66.8642537  -0.9435981  71.7181137  74.6397507  -3.2629083
  71.0426138  74.4082739  -2.7615696  71.7273513  74.0318690  -3.8886978
  71.6199641  74.5156432  -3.2812931  68.8475281  69.4815336   3.4934970
  68.7834422  70.3425292   3.3655107  68.9872468  69.1647329   2.6930521
  68.8590751  69.5615502   3.3563183  67.5294374  72.1747475  -2.3648827
  67.1056624  72.3751974  -3.1009809  67.3539230  71.3276323  -2.2524527
  67.4405255  72.0796256  -2.4575137  67.0306068  83.6897988   0.0972630
  67.5201998  82.9908777  -0.0851705  66.4590300  83.3921858   0.6848687
  67.0190598  83.5424212   0.1573671  62.8176819  72.6699526  -6.9320855
  62.9741439  72.6046329  -6.0764863  63.1577412  73.4448079  -7.1442175
  62.8910054  72.7748724  -6.8366261  73.2273071  76.2560057   9.0499421
  74.0407937  75.9845206   9.2104553  73.0668038  75.9567597   8.2459617
  73.3243020  76.1714983   8.9544827  70.5045233  66.9393714   1.9894809
  70.7187203  66.3004629   1.4358163  69.8879133  67.3839538   1.5602671
  70.4450563  66.9103858   1.8445240  59.3911081  69.8534477  -6.6160088
  59.7710046  70.2719022  -7.2799820  58.8166446  70.4347932  -6.3091244
  59.3622406  70.0012336  -6.6683347  72.6684321  68.5482780   2.9278116
  71.8561003  68.2408670   3.0091289  73.1274256  68.0681780   3.4920828
  72.6164706  68.4319272   3.0232710  69.8959962  60.0493650  -3.0217848
  69.0253520  60.0232371  -3.0684539  70.1500303  59.8770842  -3.8392003
  69.8053522  60.0203794  -3.1497711  69.7637829  69.9542851   7.7106818
  70.2337460  70.5784967   8.0974692  69.8099709  69.2859827   8.2700033
  69.8405705  69.9477531   7.8506890  66.9209103  62.0599878  -1.5644378
  66.4047591  61.3680070  -1.4392799  66.3603031  62.7270656  -1.6181779
  66.7615616  62.0563136  -1.5538312  68.9901336  62.5992839   0.2648475
  68.6033089  62.6241870   1.0462005  68.5034273  62.0334517  -0.1877009
  68.8613845  62.5188589   0.3136378  73.2394315  77.3166348   4.3222261
  73.8774036  76.8226543   3.9884717  72.5968407  77.2443748   3.7374488
  73.2388542  77.2325356   4.1864616  74.9651315  69.1655493  -1.1111823
  74.5378924  69.0781842  -1.8663724  74.3277368  69.2733269  -0.5256979
  74.8080923  69.1688153  -1.1366382  68.6558478  59.4859824   2.5558735
  69.2851596  60.0220124   2.2779805  68.8244340  59.3937183   3.4072300
  68.7736272  59.5521186   2.6407263  68.4572393  64.2731019   4.8285146
  69.2845822  64.0016168   4.8843761  68.4780239  65.0691860   5.1848964
  68.5825243  64.3510773   4.8900329  73.2948572  78.0086156   0.9627618
  74.0840950  77.6575221   1.0829700  73.4692170  78.8222544   0.7004252
  73.4368854  78.0772013   0.9415486  63.0341882  71.4194882  -1.9844593
  62.1929889  71.3198756  -1.7765699  63.2431890  72.1890362  -1.6330272
  62.9406575  71.5186925  -1.9017278  60.5117449  69.0414418  -4.1559842
  60.1174147  69.1157430  -4.9309733  59.9557566  69.4272365  -3.6051481
  60.3720262  69.1096193  -4.1892183  72.1482396  62.0195712  -4.4755964
  72.3531990  61.9518020  -3.6298966  71.8208820  62.8254534  -4.5434786
  72.1297644  62.1281653  -4.3596308  66.8458547  69.3476281  -2.7346996
  66.5421685  68.7932269  -2.1336588  66.1437968  69.5268491  -3.2218961
  66.6974757  69.2921063  -2.7177290  65.9024644  66.6576801  -8.1702294
  66.1784379  65.9395713  -8.5824726  66.5023314  67.2561720  -8.3781188
  66.0317909  66.6397171  -8.2621533  64.9076898  76.5626001   1.9725102
  64.7997253  76.5728064   2.8387160  65.1172680  77.3880782   1.7830056
  64.9227009  76.6867076   2.0729194  75.4016084  62.5727477  -4.9953198
  74.7890397  63.0597879  -4.6099466  75.4980259  61.8970968  -4.4515547
  75.3253981  62.5445785  -4.8574340  69.4035165  64.3290318  -9.8955699
  69.8578911  64.5000878  -9.1707854  69.8775211  63.7158429 -10.2957923
  69.5403485  64.2641203  -9.8481937  62.9250690  73.8138644  -0.5652960
  62.3338624  74.4548142  -0.5949945  63.6871714  74.2376261  -0.5921661
  62.9498951  73.9714482  -0.5737813  63.3211313  64.9740642   0.1015057
  63.7812795  65.0479571   0.8390181  63.3667420  65.7721896  -0.2485121
  63.3961868  65.1034789   0.1587814  64.9694663  65.6407336   4.6687085
  64.5780228  64.9940684   5.1042862  65.1380526  66.2318772   5.2881340
  64.9365573  65.6321604   4.8249790  79.0441112  73.6444414   0.4324318
  79.1024236  74.0931062   1.1784295  78.4107579  74.0543226  -0.0045602
  78.9592407  73.7718148   0.4776866  68.6627760  62.8283111  -3.7578830
  67.8163805  63.0005919  -3.8837480  68.6598893  62.0232455  -3.4213002
  68.5374910  62.7344140  -3.7267703  69.7326061  66.6058326  -2.8916772
  69.2586015  66.0800088  -2.3811461  70.1044197  66.0587798  -3.4601911
  69.7175950  66.4474322  -2.9001625  60.1099091  68.6029832   2.4766774
  60.9724704  68.5025541   2.3904103  59.7790874  68.0224542   1.9152346
  60.1884287  68.5021459   2.3812179  75.9962791  71.6660701  -1.4809992
  75.7561014  70.8267116  -1.4767565  76.4754798  71.7460868  -0.7569218
  76.0314975  71.5542101  -1.3735189  77.9967978  68.4462158  -3.5280733
  77.7577748  68.4057993  -4.3659948  78.1601880  69.2933310  -3.4015011
  77.9858282  68.5654243  -3.6327251  74.6014008  72.8312108   2.4024313
  75.3248207  72.3784634   2.2235333  74.3363971  73.1116773   1.6196640
  74.6695282  72.8063076   2.2603028  63.4700877  67.4272281  -0.8622808
  62.8453947  67.4390673  -1.4696855  63.1346472  67.9032456  -0.2131568
  63.3286369  67.4990798  -0.8566240  60.1826552  75.4872741   0.5780956
  59.6526477  74.7965180   0.6275931  60.4551646  75.4782927  -0.2506335
  60.1451275  75.3839873   0.4628372  70.3832798  72.9295986   0.5519328
  69.7689791  72.3854036   0.8467963  70.9000083  72.4160222   0.0725144
  70.3688460  72.7732395   0.5243556  69.6229095  74.0000256  -1.7136374
  69.1956703  73.3749975  -2.1470938  69.6154039  73.7175178  -0.8877366
  69.5588236  73.8653037  -1.6556546  62.7391622  69.0365429   1.3552060
  62.8985109  68.2808753   1.7603782  62.5584516  69.5856369   2.0092798
  62.7356981  69.0059243   1.5114766  70.6811925  61.2026665   1.9102850
  70.1852486  61.3990339   1.2194416  71.4380987  61.6019333   1.7391651
  70.7198750  61.2904398   1.7822987  67.9514805  64.8769011  -1.4993840
  67.9757292  64.3429123  -2.1881060  68.2026278  64.3686319  -0.8368249
  67.9924723  64.7229914  -1.5029195  55.4622395  72.1600506  -2.0650696
  55.3565844  72.1147350  -2.9298612  54.7122615  72.5054286  -1.7836411
  55.3357998  72.2041414  -2.1513366  64.2316127  63.6039829  -2.1188095
  64.2714499  64.1049035  -1.4053388  63.4065792  63.6950222  -2.3882172
  64.1155653  63.6921645  -2.0537557  66.4145740  73.1700569   5.9832199
  65.5641370  73.3072283   6.1189844  66.5773868  72.4364347   6.4279901
  66.3129603  73.0814670   6.0687798  65.6530490  70.1200339   0.1785804
  64.8222420  70.2874157  -0.0278948  65.5982008  69.7436289   0.9634689
  65.5219905  70.0890070   0.2634332  63.4614274  63.6109232   5.8142214
  64.0866977  63.0671364   6.0871647  63.0064754  63.1304149   5.2450005
  63.4862534  63.4598713   5.7703808  64.0266534  68.3955930  -9.2924079
  64.1669495  68.8928394  -8.5895437  64.5249067  67.6942225  -9.1509865
  64.1207615  68.3657909  -9.1672500  77.0349322  71.7938519   0.9054862
  77.6267163  72.4335769   0.9373060  77.4708317  71.0961555   1.1946929
  77.1867754  71.7856869   0.9535695  68.8642712  76.2155891   1.5312756
  68.3567803  76.7691738   1.9753387  68.5669358  76.2764181   0.7131531
  68.7447597  76.3062202   1.4761213  71.0304894  64.5809211   0.3737419
  71.4559966  64.1281737  -0.2379054  70.4161888  64.0269281   0.6502207
  71.0033540  64.4323187   0.3242445  60.5619745  71.4590882  -8.6941956
  61.0711974  72.0555389  -8.3130650  61.0354017  71.1916856  -9.3765536
  60.7063120  71.5076697  -8.7387433  69.4699117  61.0524310  -6.2172004
  68.8267435  60.9021957  -5.6486865  69.1298524  60.8066656  -6.9822899
  69.3244195  60.9936433  -6.2468989  74.2226591  65.4639621  -3.8851622
  74.5754201  65.0369344  -3.2105823  73.3641393  65.3790464  -3.7550546
  74.1476036  65.3884361  -3.7656611  62.9210276  68.0947140  -5.8268775
  62.2022265  68.5111273  -5.5595912  63.2922639  68.6601379  -6.3777137
  62.8702208  68.2396422  -5.8685968  72.2209857  68.7274989   0.0633220
  72.2007784  68.5458285   0.9167999  72.2689058  69.5987008   0.0392804
  72.2244498  68.8291528   0.1856515  70.1656187  75.3162181   5.9881697
  70.1252042  74.6711858   5.4026853  70.9779505  75.2598799   6.3007109
  70.2799340  75.2121148   5.9478646  75.6550651  60.5858033  -2.9567309
  75.1481516  59.8787172  -3.0246132  76.4518085  60.2551221  -2.8266233
  75.6977891  60.4331184  -2.9468314  71.5714667  67.0924645  -7.0593646
  71.3428360  67.1157346  -7.9015287  71.8312743  66.2682112  -6.9398635
  71.5760855  66.9740725  -7.1668448  65.8533896  68.9459118   2.5431455
  65.3412799  68.3380301   2.9016486  65.6813392  69.6615710   3.0105430
  65.7523533  68.9622417   2.6647678  60.6999610  67.3896693   5.1933816
  60.5302201  68.0498068   4.6482023  60.2565560  67.6003254   5.9146305
  60.6098944  67.5182675   5.2195446  64.6259430  65.6301191  -5.7639450
  65.1016796  65.9918271  -6.3989269  64.1248029  66.2857659  -5.4839307
  64.6224789  65.7795380  -5.8162709  69.7302966  66.8683363   4.9833710
  70.2874396  66.6397172   4.3512175  69.4064031  67.6289028   4.7068922
  69.7649376  66.9467199   4.8490207  57.6001675  70.2943559   0.4522306
  57.0528394  69.6244204   0.5703174  58.3894053  69.9273407   0.5165773
  57.6353859  70.1408545   0.4791007  67.4486083  69.9551016   5.9485717
  68.1997410  70.2702693   6.2625271  67.6408660  69.7530187   5.1219639
  67.5877497  69.9718398   5.8729113  74.2971373  66.0824582  -6.8090487
  74.2965600  65.9273239  -5.9506211  74.0927553  66.9287569  -6.8649102
  74.2671151  66.1845203  -6.6902548  56.3588644  69.5064367  -2.3931671
  56.1810405  69.0540976  -1.6676755  56.0707666  70.3090528  -2.2093193
  56.2901598  69.5586924  -2.2588168  72.0212225  70.7622084  -3.1554281
  72.5165891  70.0445079  -3.1950260  71.2112001  70.4592882  -3.2699794
  71.9756119  70.6119730  -3.1780555  58.0961114  72.0392090  -5.2809912
  57.2306634  72.0277781  -5.3927141  58.1959930  71.8522313  -4.4338772
  57.9835281  72.0098152  -5.1720967  74.0864044  73.5125771  -0.4677152
  74.5119116  72.9900193  -1.0206727  73.7220964  74.1106609  -0.9888529
  74.0950647  73.5235999  -0.6268142  63.7218124  81.8089989  -1.7079806
  64.0364683  82.6226377  -1.7002025  64.1311537  81.4240208  -1.0397647
  63.8286222  81.8718691  -1.6075715  72.7619628  78.8361349   8.0416078
  72.8716594  78.0469910   8.3972825  73.0910525  78.7467285   7.2390416
  72.8272034  78.7067202   7.9758469  67.5912139  61.9987506   2.8182101
  67.7240044  61.2018500   3.1463076  67.9757291  62.5253909   3.3980376
  67.6668468  61.9587423   2.9525603  71.3116590  77.0177970   2.6251698
  70.7637536  76.3935854   2.3571764  71.7729619  77.2072242   1.9095778
  71.2983800  76.9537020   2.4802129  70.6644494  58.9217832  -0.5836806
  69.8590458  58.8115562  -0.2668968  70.5351229  59.0230288  -1.4406940
  70.5264627  58.9201503  -0.6628766  74.1210454  65.0863324   0.0102891
  73.5373443  65.5872531  -0.4019542  74.4414748  64.5792881  -0.6232786
  74.0823630  65.0855159  -0.1438602  66.6605254  64.0003919  -9.7138435
  67.4820948  64.1702232  -9.9556740  66.1974904  64.1551180 -10.4372137
  66.7136416  64.0485652  -9.8566790  65.2500585  61.9946681   1.0659994
  65.7944998  61.6537808   1.6564336  65.3037521  62.8532143   1.2081279
  65.3389705  62.0701941   1.1741868  61.0631144  75.7563097  -2.0601198
  61.6676002  75.7158932  -2.6887377  60.8558457  76.6034249  -2.0297142
  61.1220042  75.8751100  -2.1485081  70.8774916  78.0229043  -0.8438960
  71.6973290  77.8792009  -0.5822665  70.5968994  78.6475241  -0.3022523
  70.9571660  78.0939395  -0.7251021  56.2982427  74.7397715  -2.1902275
  56.2006705  73.9293986  -1.8812218  57.0811296  74.7189508  -2.5756007
  56.3998563  74.6164805  -2.2015412  75.1719620  85.9688376   5.0866085
  75.3440124  85.8594270   5.9351367  75.7088978  86.6142781   4.8497277
  75.2764624  86.0480377   5.1771182  74.2279944  82.0998685   2.5686013
  73.5351740  81.6295665   2.8146744  74.8440271  81.8736989   3.1427720
  74.2164474  81.9965817   2.6895165  77.0339166  80.1096581   8.2912165
  76.7192607  80.8796144   8.0281728  76.7129099  79.5466837   7.7064392
  76.9398085  80.1406850   8.1653515  76.6655672  82.7093832   7.0297380
  75.8555447  83.0151612   6.9187222  77.1430358  83.4299414   7.1449964
  76.6159150  82.8608433   7.0304451  71.6720647  80.7804100   3.2559091
  71.1362837  80.1684458   3.5719858  71.7338412  81.3552236   3.9092757
  71.6016280  80.7751028   3.3994517  80.7370412  85.4728159   7.7106818
  81.2070044  86.0970275   8.0974692  80.7832293  84.8045134   8.2700033
  80.8138288  85.4662839   7.8506890  79.6291061  75.0045132   2.5558735
  80.2584179  75.5405432   2.2779805  79.7976924  74.9122491   3.4072300
  79.7468856  75.0706494   2.6407263  79.4304976  79.7916327   4.8285146
  80.2578405  79.5201476   4.8843761  79.4512822  80.5877168   5.1848964
  79.5557826  79.8696081   4.8900329  75.9427246  81.1592644   4.6687085
  75.5512812  80.5125991   5.1042862  76.1113109  81.7504080   5.2881340
  75.9098157  81.1506912   4.8249790  71.0831674  84.1215140   2.4766774
  71.9457287  84.0210849   2.3904103  70.7523457  83.5409849   1.9152346
  71.1616871  84.0206767   2.3812179  74.4346857  79.1294539   5.8142214
  75.0599561  78.5856672   6.0871647  73.9797337  78.6489457   5.2450005
  74.4595118  78.9784021   5.7703808  71.6732194  82.9082001   5.1933816
  71.5034784  83.5683376   4.6482023  71.2298144  83.1188562   5.9146305
  71.5831528  83.0367983   5.2195446  78.5644722  77.5172814   2.8182101
  78.6972628  76.7203808   3.1463076  78.9489875  78.0439217   3.3980376
  78.6401051  77.4772731   2.9525603  76.2233169  77.5131989   1.0659994
  76.7677582  77.1723116   1.6564336  76.2770105  78.3717451   1.2081279
  76.3122288  77.5887249   1.1741868  72.5800208  52.4548894  -6.5842651
  73.2866976  51.9600925  -6.4555716  72.7688144  52.8957976  -7.3139993
  72.7128114  52.4467245  -6.6733605  69.7192503  55.8776431  -8.6928575
  69.8075849  55.6902571  -7.8450365  70.1482215  55.2313860  -9.0923729
  69.7954605  55.7539438  -8.6256824  67.2862963  55.1607591  -9.7110913
  66.7233797  54.7480200  -9.1871252  68.0483986  55.0860496  -9.2917770
  67.3157411  55.0884991  -9.5717913  69.8312562  55.3085450  -6.0284792
  70.6152979  55.4216298  -5.6629050  69.6309157  54.4826587  -5.8326106
  69.9178588  55.2032169  -5.9450406  69.9882955  57.2195552 -12.3818336
  69.1898201  56.9795052 -12.1244468  70.4368967  57.2709945 -11.6351289
  69.9357567  57.1917943 -12.2333412  69.0483692  50.9655997  -4.4898148
  68.2556673  51.2799509  -4.3045528  69.1632619  51.1807465  -5.3277363
  68.9479103  51.0439833  -4.5859813  75.2987633  52.2385178  -9.5427998
  75.0626270  51.4073243  -9.6615938  75.9430862  52.1870785  -8.9573154
  75.3582304  52.1082866  -9.4742105  67.3365257  57.2207799 -11.4265324
  67.2608929  56.5516610 -10.8714536  67.2655117  57.9225587 -10.9124658
  67.3145864  57.2252707 -11.2688476  66.7256892  60.6276119 -12.9687323
  67.2152822  59.9286908 -13.1511659  66.1541124  60.3299989 -12.3811266
  66.7141422  60.4802343 -12.9086282  72.9223895  53.1938188  -4.0160532
  73.7358761  52.9223337  -3.8555400  72.7618862  52.8945728  -4.8200337
  73.0193844  53.1093114  -4.1115127  69.4588653  46.8920982  -5.3553135
  69.9288284  47.5163099  -4.9685261  69.5050533  46.2237958  -4.7959920
  69.5356529  46.8855662  -5.2153063  72.9345139  54.2544479  -8.7437692
  73.5724860  53.7604674  -9.0775236  72.2919231  54.1821879  -9.3285465
  72.9339366  54.1703487  -8.8795337  72.9899396  54.9464287 -12.1032335
  73.7791774  54.5953352 -11.9830254  73.1642994  55.7600675 -12.3655701
  73.1319678  55.0150144 -12.1244467  66.1096564  50.1078700  -7.0827754
  65.2592194  50.2450414  -6.9470109  66.2724692  49.3742478  -6.6380052
  66.0080427  50.0192801  -6.9972155  69.8607011  52.2540313  -7.0778256
  69.8202866  51.6089990  -7.6633100  70.6730329  52.1976930  -6.7652844
  69.9750164  52.1499279  -7.1181307  72.4570452  55.7739480  -5.0243875
  72.5667418  54.9848041  -4.6687128  72.7861349  55.6845416  -5.8269537
  72.5222858  55.6445333  -5.0901485  71.0067414  53.9556101 -10.4408255
  70.4588360  53.3313985 -10.7088190  71.4680443  54.1450373 -11.1564175
  70.9934623  53.8915151 -10.5857824  74.8670444  62.9066507  -7.9793868
  75.0390948  62.7972401  -7.1308587  75.4039802  63.5520912  -8.2162676
  74.9715448  62.9858508  -7.8888771  73.9230768  59.0376816 -10.4973940
  73.2302564  58.5673796 -10.2513209  74.5391095  58.8115121  -9.9232233
  73.9115297  58.9343948 -10.3764788  76.7289990  57.0474712  -4.7747788
  76.4143431  57.8174275  -5.0378225  76.4079923  56.4844968  -5.3595561
  76.6348909  57.0784981  -4.9006438  76.3606495  59.6471963  -6.0362573
  75.5506271  59.9529743  -6.1472731  76.8381182  60.3677546  -5.9209989
  76.3109974  59.7986564  -6.0355502  76.2134253  57.2760902 -11.1062129
  76.0217450  57.2916037 -10.2562706  77.0632849  57.4724577 -11.1295475
  76.3109975  57.3075253 -10.9838835  71.3671471  57.7182231  -9.8100863
  70.8313661  57.1062589  -9.4940095  71.4289236  58.2930367  -9.1567196
  71.2967104  57.7129159  -9.6665436  80.4321236  62.4106290  -5.3553135
  80.9020868  63.0348407  -4.9685261  80.4783117  61.7423266  -4.7959920
  80.5089112  62.4040970  -5.2153063  79.3241885  51.9423263 -10.5101219
  79.9535003  52.4783563 -10.7880148  79.4927748  51.8500622  -9.6587653
  79.4419680  52.0084625 -10.4252690  79.1255800  56.7294458  -8.2374807
  79.9529229  56.4579607  -8.1816192  79.1463646  57.5255300  -7.8810989
  79.2508650  56.8074212  -8.1759624  75.6378070  58.0970776  -8.3972869
  75.2463635  57.4504123  -7.9617091  75.8063933  58.6882211  -7.7778613
  75.6048981  58.0885043  -8.2410163  70.7782498  61.0593271 -10.5893180
  71.6408111  60.9588981 -10.6755850  70.4474281  60.4787981 -11.1507607
  70.8567695  60.9584898 -10.6847774  81.3495333  53.6590104 -11.1557103
  80.8535894  53.8553778 -11.8465537  82.1064395  54.0582772 -11.3268302
  81.3882157  53.7467838 -11.2836967  74.1297681  56.0672671  -7.2517739
  74.7550385  55.5234803  -6.9788307  73.6748161  55.5867588  -7.8209948
  74.1545942  55.9162152  -7.2956145  71.3683018  59.8460132  -7.8726137
  71.1985608  60.5061507  -8.4177930  70.9248968  60.0566694  -7.1513648
  71.2782351  59.9746114  -7.8464507  80.3986373  59.3246802  -8.0826243
  80.9557804  59.0960611  -8.7147778  80.0747439  60.0852467  -8.3591031
  80.4332784  59.4030638  -8.2169746  78.1169491  62.4114455  -7.1174236
  78.8680818  62.7266132  -6.8034682  78.3092067  62.2093626  -7.9440314
  78.2560905  62.4281837  -7.1930840  78.2595546  54.4550945 -10.2477853
  78.3923452  53.6581939  -9.9196877  78.6440699  54.9817348  -9.6679577
  78.3351875  54.4150862 -10.1134350  75.9183993  54.4510121 -11.9999959
  76.4628406  54.1101247 -11.4095617  75.9720929  55.3095582 -11.8578674
  76.0073112  54.5265380 -11.8918086   1.1690136 100.0621485  44.1109089
   1.1384140 100.9166122  44.2827359   1.7671484  99.7616778  44.6695233
   1.2527294 100.1437982  44.2183891   3.1002502 105.5612530  47.5672468
   2.2700205 105.7723174  47.7305885   3.0511754 104.7349585  47.2914752
   2.9709237 105.4702136  47.5509834   2.5956460  98.2082931  51.3622890
   1.7584881  98.2785118  51.5970484   2.5644691  98.2107426  50.4897192
   2.4674743  98.2193158  51.2682438   3.4911163 102.9492804  46.5956821
   4.1527597 102.3883473  46.4952730   2.8502575 102.4544835  46.9209513
   3.4940031 102.7929213  46.6289162   1.6066451 102.8059853  44.1738414
   1.9374668 103.3387493  43.5678509   2.1799539 102.8598741  44.8300365
   1.7400130 102.8929422  44.1816196   2.7145802  98.0470350  45.6778576
   2.4582367  97.2350291  45.4876458   3.5575116  98.0547917  45.4508763
   2.8011828  97.9282347  45.6163393   1.4207382 104.9864394  51.5765423
   1.1153199 105.7192451  51.9378738   0.7013598 104.5802324  51.2958209
   1.2694724 105.0346127  51.5878560   7.1209174 101.6257395  50.9033767
   7.0533675 101.6453354  50.0336354   7.1064837 102.4687722  51.1289438
   7.1087931 101.7531130  50.8086244   4.9067792 100.4001781  49.1780361
   5.4575713  99.7669850  49.4177453   4.8911907 100.9317174  49.8695866
   4.9852988 100.3850729  49.3159220   3.8375264 103.5457312  52.4229491
   3.8958388 103.9943961  53.1689468   3.2041732 103.9556125  51.9859571
   3.7526559 103.6731047  52.4682040   2.7902131  98.3475057  48.4624441
   2.5511901  98.3070891  47.6245225   2.9536032  99.1946209  48.5890162
   2.7792434  98.4667142  48.3577923   1.8283475 101.6951417  52.8960036
   2.4201315 102.3348668  52.9278234   2.2642469 100.9974454  53.1852102
   1.9801906 101.6869768  52.9440868   2.6504944 105.0035858  42.0178728
   3.0338550 105.7527214  42.2476825   1.8549057 105.2501678  41.7590717
   2.5898726 105.1505552  42.0136302   9.2774599 105.5047033  46.0802013
   8.9628040 106.1950511  46.5122436   8.7601540 105.4491815  45.3787514
   9.1539069 105.5981921  46.0398962   4.3110929 106.9870528  43.0502487
   5.0397089 106.8086483  42.6040643   4.4005822 107.8288608  43.2609665
   4.4317591 107.0854406  43.0156005  11.2496884 108.7911020  49.9466612
  11.8922792 108.8609125  50.5328527  11.5019904 108.1240243  49.4446154
  11.3819016 108.7037369  49.9593891   7.8681478 107.5055282  50.4154730
   8.2491990 106.8233453  50.8022604   7.0644762 107.2164884  50.2330394
   7.8057940 107.3622330  50.4458786   8.5038104 108.5477861  54.2274856
   9.2491696 108.3587671  53.8138282   8.0875409 109.0736099  53.6688713
   8.5523079 108.5980006  54.0839430   6.5489025 108.9760385  44.8972116
   7.2515378 108.7768133  44.4192075   6.2833214 108.2036327  45.2040960
   6.6135657 108.8323351  44.8717558   8.6949134 103.6141054  48.0268663
   8.8132702 104.0717518  47.2935966   8.5211310 102.8086316  47.7404881
   8.6868305 103.5634827  47.8769597   5.6626698 105.4691857  48.9687325
   4.7920256 105.4430578  48.9220634   5.9167039 105.2969049  48.1513171
   5.5720258 105.4402001  48.8407462   4.7568072 108.0191045  52.2553648
   4.3699825 108.0440077  53.0367178   4.2701009 107.4532724  51.8028165
   4.6280581 107.9386796  52.3041552   4.4225214 104.9058031  54.5463908
   5.0518332 105.4418331  54.2684978   4.5911076 104.8135390  55.3977474
   4.5403008 104.9719393  54.6312436   7.9149132 107.4393919  47.5149210
   8.1198726 107.3716227  48.3606207   7.5875556 108.2452740  47.4470387
   7.8964380 107.5479860  47.6308865  11.1682820 107.9925683  46.9951975
  10.5557134 108.4796086  47.3805707  11.2646995 107.3169174  47.5389626
  11.0920718 107.9643992  47.1330833   4.4294496 108.2481318  48.2326343
   3.5830541 108.4204126  48.1067693   4.4265629 107.4430662  48.5692171
   4.3041646 108.1542347  48.2637470   6.4478661 106.6224871  53.9008023
   5.9519223 106.8188546  53.2099590   7.2047723 107.0217540  53.7296825
   6.4865486 106.7102605  53.7728160   5.2365853 106.4722517  45.7733169
   4.5934171 106.3220163  46.3418308   4.8965260 106.2264862  45.0082274
   5.0910931 106.4134640  45.7436185  11.4217387 106.0056239  49.0337864
  10.9148252 105.2985379  48.9659041  12.2184821 105.6749428  49.1638940
  11.4644627 105.8529391  49.0436859   3.3578875 107.4185713  54.8087274
   3.4906780 106.6216706  55.1368249   3.7424028 107.9452116  55.3885549
   3.4335204 107.3785630  54.9430777   6.4311230 104.3416039  51.4068367
   5.6257194 104.2313769  51.7236205   6.3017965 104.4428495  50.5498233
   6.2931363 104.3399709  51.3276407   0.8640960  76.9999616  31.0449136
   0.8334964  77.8544253  31.2167405   1.4622308  76.6994909  31.6035280
   0.9478117  77.0816113  31.1523938   2.7953326  82.4990661  34.5012515
   1.9651029  82.7101305  34.6645932   2.7462578  81.6727716  34.2254799
   2.6660061  82.4080268  34.4849881   2.2907284  75.1461062  38.2962937
   1.4535705  75.2163249  38.5310531   2.2595515  75.1485557  37.4237239
   2.1625566  75.1571289  38.2022485   3.1861987  79.8870936  33.5296868
   3.8478421  79.3261604  33.4292777   2.5453399  79.3922966  33.8549559
   3.1890855  79.7307345  33.5629208   1.3017275  79.7437984  31.1078461
   1.6325492  80.2765624  30.5018556   1.8750363  79.7976872  31.7640412
   1.4350954  79.8307553  31.1156243   2.4096626  74.9848481  32.6118622
   2.1533191  74.1728422  32.4216505   3.2525940  74.9926048  32.3848810
   2.4962652  74.8660478  32.5503440   6.8159998  78.5635526  37.8373814
   6.7484498  78.5831485  36.9676400   6.8015661  79.4065853  38.0629484
   6.8038755  78.6909261  37.7426291   4.6018616  77.3379912  36.1120408
   5.1526537  76.7047982  36.3517500   4.5862731  77.8695305  36.8035912
   4.6803812  77.3228861  36.2499266   3.5326088  80.4835443  39.3569538
   3.5909212  80.9322092  40.1029515   2.8992556  80.8934256  38.9199618
   3.4477383  80.6109178  39.4022086   2.4852955  75.2853188  35.3964487
   2.2462725  75.2449023  34.5585272   2.6486856  76.1324340  35.5230209
   2.4743258  75.4045273  35.2917969   1.5234299  78.6329549  39.8300082
   2.1152139  79.2726799  39.8618280   1.9593293  77.9352585  40.1192149
   1.6752730  78.6247899  39.8780915   2.3455768  81.9413989  28.9518775
   2.7289373  82.6905345  29.1816872   1.5499881  82.1879809  28.6930764
   2.2849550  82.0883683  28.9476349  11.8373543  92.5184924  31.0449136
  11.8067548  93.3729561  31.2167405  12.4354892  92.2180217  31.6035280
  11.9210701  92.6001421  31.1523938   5.0373228  91.6060575  35.8002066
   4.1811124  91.7669074  35.8511183   5.0840882  90.7352639  35.8207127
   4.9172339  91.5011377  35.8108132   8.3466945  97.8747101  45.4062522
   9.0533712  97.3799132  45.5349457   8.5354880  98.3156182  44.6765180
   8.4794850  97.8665451  45.3171568   4.4143619 103.5162931  32.9335957
   4.7982998 104.0849830  32.3940732   4.3502760 102.7912442  32.4541773
   4.4617046 103.4938395  32.7829819   7.8825049  93.6652619  38.4433718
   8.4281009  94.3437706  38.5027688   7.8241925  93.5240080  37.5835300
   7.9540963  93.7444621  38.3245779   9.6590118  95.0937226  29.3167446
   9.5429644  95.8444912  29.7459584  10.4546004  94.8361180  29.5663533
   9.7594707  95.1672073  29.4171537   3.5922151  91.0847244  30.6871175
   4.2902316  91.2635372  31.1792638   3.9074484  90.5617584  30.0641564
   3.7417488  91.0341016  30.6673185   3.7810087  97.4717689  30.6750966
   4.2203722  96.8634790  31.1205739   3.6314750  97.0925063  29.9036431
   3.8231552  97.3256160  30.6270134   1.2481730  96.0661701  37.8769792
   1.8930732  95.5734144  37.5580740   1.4883507  96.2086488  38.7035870
   1.3792315  96.0139143  37.9519325   3.7867821  98.9116607  37.5276684
   4.0691064  98.1168013  37.3063440   4.5153981  99.3897194  37.5481745
   3.9357385  98.8651204  37.4979700   1.7649015  86.4539641  34.7692450
   1.4352345  86.9050784  34.0996148   1.0894017  86.3755804  35.3165456
   1.6159451  86.5090776  34.7515673   7.3819423  95.8244871  27.6281736
   7.2970718  96.6805837  27.7731304   7.8703806  95.5489195  28.2963895
   7.4408320  95.9102192  27.7483817   8.9725423  82.4425164  33.0142060
   8.6578864  83.1328642  33.4462483   8.4552364  82.3869946  32.3127561
   8.8489893  82.5360052  32.9739009   8.3137856  92.4429665  29.1279471
   7.7849328  92.6589298  29.7876777   8.8362876  93.1365803  29.0480440
   8.3126309  92.5772802  29.2135070  13.7685909  98.0175969  34.5012515
  12.9383612  98.2286613  34.6645932  13.7195162  97.1913024  34.2254799
  13.6392645  97.9265575  34.4849881   1.8295647 100.8479823  37.3360425
   1.3122589 100.4887238  36.7321733   2.5270038 100.3241998  37.3466491
   1.8561228 100.7177511  37.2490683   5.4859239 101.2974637  43.2976598
   5.5742585 101.1100778  44.1454808   5.9148951 100.6512067  42.8981445
   5.5621341 101.1737645  43.3648349   3.0529699 100.5805797  42.2794260
   2.4900533 100.1678407  42.8033921   3.8150722 100.5058703  42.6987403
   3.0824147 100.5083198  42.4187260   4.6614679  92.5858534  26.4055859
   4.9010682  92.7936517  25.5931202   4.9830520  91.7816042  26.5144804
   4.7451837  92.4972635  26.3016412  13.2639868  90.6646370  38.2962937
  12.4268289  90.7348557  38.5310531  13.2328099  90.6670865  37.4237239
  13.1358150  90.6756597  38.2022485   4.0061753  83.9248659  29.9842534
   4.7347913  83.7464614  29.5380690   4.0956646  84.7666739  30.1949712
   4.1268415  84.0232537  29.9496052   7.9870053  94.8602046  33.8874828
   8.7427568  95.2933561  33.9263737   8.0932378  94.2106816  34.4609464
   8.1140224  94.8279530  33.9772854  11.0250225  98.6875324  34.6377231
  10.5885456  98.6912066  35.3936202  10.6913140  99.3680823  34.2056808
  10.9112845  98.7887779  34.6858064   5.5979298 100.7283656  45.9620381
   6.3819715 100.8414504  46.3276123   5.3975893  99.9024794  46.1579067
   5.6845324 100.6230376  46.0454767  10.9447707  85.7289151  36.8806659
  11.5873616  85.7987256  37.4668574  11.1970728  85.0618374  36.3786201
  11.0769840  85.6415500  36.8933938   5.7549692 102.6393758  39.6086837
   4.9564937 102.3993259  39.8660706   6.2035703 102.6908151  40.3553885
   5.7024303 102.6116150  39.7571761  14.1594571  95.4056243  33.5296868
  14.8211005  94.8446912  33.4292777  13.5185983  94.9108274  33.8549559
  14.1623438  95.2492653  33.5629208  10.4459401  96.4221626  33.2708857
  10.6814991  96.5666825  32.4435708  10.5948965  97.1864034  33.6640371
  10.5025205  96.5560680  33.2072461  12.2749858  95.2623292  31.1078461
  12.6058075  95.7950932  30.5018556  12.8482946  95.3162180  31.7640412
  12.4083537  95.3492861  31.1156243   4.8150428  96.3854203  47.5007025
   4.0223409  96.6997715  47.6859645   4.9299355  96.6005672  46.6627810
   4.7145839  96.4638040  47.4045360   7.4881747  93.1088195  31.7902041
   7.5828602  93.8477489  32.2441666   6.8640591  92.6805670  32.2236605
   7.4090777  93.1549515  31.9210188   5.7434221  96.2874407  42.4392322
   6.3173083  95.6501651  42.5940886   5.6649025  96.2878490  41.5701979
   5.8167456  96.1939519  42.3338733   7.7404769  94.9536934  25.0238993
   7.6584931  95.0239121  25.8893980   8.3784489  95.5166678  24.8322734
   7.8224606  95.0475905  25.1228942   1.0997940  94.7197672  34.4913519
   0.8417184  93.8869407  34.4644819   1.1546423  94.9455285  33.6506020
   1.0697718  94.6295444  34.3633656   6.1798990  86.8226123  34.5917612
   5.4755317  86.3335308  34.7501531   6.2283964  86.8348597  33.7206056
   6.0829042  86.7515771  34.4856952   3.7405941  90.7458784  39.8370792
   3.3520373  90.3213002  39.1822984   3.0760639  90.9940934  40.3447819
   3.5852868  90.7197505  39.8158660  13.3829210  90.5033789  32.6118622
  13.1265775  89.6913730  32.4216505  14.2258524  90.5111356  32.3848810
  13.4695235  90.3845786  32.5503440   7.5632302  84.4433413  37.3494777
   7.9442814  83.7611584  37.7362651   6.7595586  84.1543015  37.1670441
   7.5008764  84.3000461  37.3798833   4.8444879  94.9757389  28.0347599
   5.6585518  95.2672281  27.9230371   4.7804020  94.3217251  27.4605892
   4.9547618  94.9222583  27.9336437  11.0654369  97.6583385  42.4477175
  10.8293006  96.8271450  42.3289236  11.7097598  97.6068992  43.0332019
  11.1249040  97.5281073  42.5163069   0.7152787  98.4478906  33.1619911
   1.3526734  98.2090654  33.7071705   1.1407859  98.6516065  32.4273072
   0.8728953  98.4429916  33.1337069   1.5224143  86.9487611  47.2157385
   1.2077584  87.7187174  46.9526948   1.2014075  86.3857867  46.6309612
   1.4283062  86.9797880  47.0898735  12.0890790  97.4427834  38.5105470
  11.7836607  98.1755890  38.8718785  11.3697005  97.0365763  38.2298256
  11.9378132  97.4909567  38.5218607   3.0974259  98.9251329  34.8413698
   3.1713267  98.7626501  35.6955548   3.9143765  99.1141518  34.5974179
   3.2290618  98.9288071  34.9311723  17.7892582  94.0820834  37.8373814
  17.7217082  94.1016793  36.9676400  17.7748244  94.9251161  38.0629484
  17.7771338  94.2094569  37.7426291   8.1988928  85.4855992  41.1614903
   8.9442520  85.2965802  40.7478329   7.7826233  86.0114230  40.6028760
   8.2473903  85.5358137  41.0179476  15.5751199  92.8565220  36.1120408
  16.1259121  92.2233289  36.3517500  15.5595314  93.3880613  36.8035912
  15.6536395  92.8414169  36.2499266   2.2273590  96.6903818  40.6580302
   1.7285284  97.4019585  40.7365190   3.0373814  97.0104484  40.6198464
   2.2729697  96.8430666  40.6636870   9.2779605  91.0961554  35.2225004
   8.9344371  90.3751889  35.5732254   9.3772648  90.8875405  34.3803363
   9.2421648  90.9585757  35.1496684   9.7392634  97.5587258  30.7648993
  10.3050667  98.2180468  30.6807535   9.0920538  97.9036956  31.2365395
   9.7271391  97.7069199  30.8221749   6.2099213 100.5026042  30.1886072
   5.9685888  99.7693903  29.7813137   6.3900545 101.0512899  29.5352405
   6.2006836 100.4748433  30.0316295   1.4398533  95.7934602  31.6006994
   1.2441316  96.4009337  31.0067297   1.6632879  95.1002546  31.1198668
   1.4433174  95.7812128  31.4423075   7.7970571  89.0153139  37.0984547
   6.9581671  89.0414418  36.8622811   7.8674938  89.6623874  37.6789894
   7.6838964  89.1149265  37.1493664   6.2439849  85.9138516  31.8312163
   6.9466202  85.7146264  31.3532121   5.9784038  85.1414458  32.1381007
   6.3086481  85.7701482  31.8057605  11.6728095  94.2221126  34.3845789
  11.5862069  94.3776552  35.2380568  11.2178575  94.8659201  34.0105194
  11.5931351  94.3396881  34.4552896   1.0068405  87.1773801  40.8843044
   0.8151602  87.1928935  41.7342467   1.8567001  87.3737475  40.8609699
   1.1044127  87.2088152  41.0066339   5.5453911  91.5431873  33.0071349
   5.2988625  91.4627624  33.8408137   5.8739034  90.7585341  32.8133876
   5.5575154  91.4158138  33.1018872   9.4401959  98.2515232  36.7958130
   9.3016319  98.9496278  37.3006872   8.6601957  98.0963889  36.4394312
   9.3045186  98.3315399  36.8184404   7.7780045  94.5511607  43.0480511
   7.7728083  93.6791424  43.0522938   8.4841038  94.7499777  42.5749967
   7.8825049  94.4515482  42.9787547   1.5050938  94.2788591  42.4194332
   1.6494314  94.8589799  41.7837442   1.8526586  94.6564888  43.1244186
   1.5778399  94.4209295  42.4293327   3.6770855  93.4778760  40.2019463
   2.9294169  93.6709774  39.7967741   3.8312381  92.6523979  39.9643585
   3.5893283  93.3843871  40.1064869  10.9355332  97.6093486  27.5574629
  10.5562141  96.8230624  27.5503918  10.2721578  98.1580343  27.4146273
  10.7813807  97.5738310  27.5355426   3.1031994 102.6406006  40.5639849
   3.0275665 101.9714817  41.1190638   3.0321853 103.3423794  41.0780516
   3.0812600 102.6450913  40.7216697   3.9172632  87.3729310  41.0914867
   4.3745246  88.1053285  41.2187659   3.9928961  86.9495776  41.8502123
   3.9963602  87.4186548  41.2215943   8.3899958  80.5519186  34.9608710
   8.5083526  81.0095649  34.2276013   8.2162134  79.7464447  34.6744927
   8.3819129  80.5012958  34.8109644   3.7602240 101.1607005  31.3963455
   4.5252132 100.8916649  31.0746119   3.6580330 100.6757015  32.1133518
   3.8583736 101.0496570  31.4543283   1.7955010  89.3631414  37.9356691
   1.0051085  89.1822874  38.2574027   2.1915633  88.5858367  37.9186985
   1.7371886  89.2218875  37.9809239   7.1798697  96.9973844  35.6616137
   6.5043698  96.7659077  36.1629524   7.1891073  96.3895027  35.0358242
   7.0817201  96.8732770  35.6432289   4.3092841  91.8391673  42.4180190
   4.2451982  92.7001630  42.2900327   4.4490028  91.5223667  41.6175741
   4.3208311  91.9191840  42.2808403   9.1815431  99.8538977  27.8926315
   9.2635269 100.6605963  27.5687766   9.6665173  99.8734936  28.6167088
   9.2652589  99.9759639  27.9513213   2.9911934  94.5323813  36.5596393
   2.5674184  94.7328312  35.8235411   2.8156790  93.6852661  36.6720693
   2.9022815  94.4372594  36.4670083   2.4923628 106.0474326  39.0217850
   2.9819558 105.3485115  38.8393515   1.9207860 105.7498196  39.6093907
   2.4808158 105.9000549  39.0818891   4.8173524  94.4033748  30.8617729
   5.3589069  93.9004129  31.3256349   5.1320083  94.3498942  30.0507214
   4.9437921  94.3213169  30.8101541   8.6890631  98.6136395  47.9744641
   9.5025497  98.3421544  48.1349773   8.5285598  98.3143935  47.1704837
   8.7860580  98.5291321  47.8790047   5.9662793  89.2970052  40.9140029
   6.1804763  88.6580967  40.3603383   5.3496693  89.7415876  40.4847891
   5.9068123  89.2680196  40.7690460   7.3767461 102.2188801  32.3594250
   6.9847253 101.9155516  31.6417116   7.5320534 103.0557891  32.1699204
   7.3421051 102.2972637  32.2250747   8.1301881  90.9059117  41.8523336
   7.3178563  90.5985008  41.9336509   8.5891816  90.4258118  42.4166048
   8.0782266  90.7895610  41.9477930   7.5407136  98.7838789  32.3000280
   7.1821791  98.9553432  33.0764313   7.0545847  99.2451995  31.7428279
   7.4165833  98.8777761  32.3325550   5.3577522  82.4069988  35.9027372
   4.4871080  82.3808709  35.8560681   5.6117863  82.2347180  35.0853217
   5.2671082  82.3780132  35.7747509   5.2255389  92.3119189  46.6352038
   5.6955020  92.9361305  47.0219913   5.2717269  91.6436164  47.1945253
   5.3023265  92.3053869  46.7752110   2.3826663  84.4176216  37.3600842
   1.8665151  83.7256408  37.4852421   1.8220591  85.0846993  37.3063441
   2.2233176  84.4139474  37.3706908   4.4518896  84.9569176  39.1893695
   4.0650649  84.9818208  39.9707225   3.9651833  84.3910855  38.7368211
   4.3231405  84.8764927  39.2381598   8.7011875  99.6742685  43.2467481
   9.3391596  99.1802881  42.9129937   8.0585967  99.6020086  42.6619708
   8.7006102  99.5901694  43.1109836  10.4268875  91.5231831  37.8133397
   9.9996484  91.4358180  37.0581496   9.7894928  91.6309607  38.3988241
  10.2698483  91.5264491  37.7878838   4.1176038  81.8436162  41.4803955
   4.7469156  82.3796462  41.2025025   4.2861900  81.7513521  42.3317520
   4.2353832  81.9097524  41.5652483   3.9189953  86.6307357  43.7530366
   4.7463382  86.3592506  43.8088981   3.9397799  87.4268198  44.1094184
   4.0442803  86.7087111  43.8145549   8.7566132 100.3662494  39.8872838
   9.5458510 100.0151558  40.0074920   8.9309730 101.1798882  39.6249472
   8.8986414 100.4348351  39.8660706   7.6099956  84.3772050  34.4489256
   7.8149550  84.3094358  35.2946254   7.2826380  85.1830872  34.3810434
   7.5915204  84.4857991  34.5648912   2.3076107  91.7052619  36.1898224
   2.0039245  91.1508607  36.7908632   1.6055528  91.8844829  35.7026259
   2.1592317  91.6497401  36.2067930   1.3642204  89.0153138  30.7542926
   1.6401939  88.2972051  30.3420494   1.9640874  89.6138058  30.5464032
   1.4935469  88.9973509  30.6623687  10.8633644  84.9303815  33.9292022
  10.2507957  85.4174217  34.3145754  10.9597819  84.2547306  34.4729673
  10.7871542  84.9022123  34.0670880   4.8652725  86.6866656  29.0289521
   5.3196471  86.8577216  29.7537366   5.3392771  86.0734766  28.6287297
   5.0021045  86.6217541  29.0763283  14.5058672  96.0020751  39.3569538
  14.5641796  96.4507400  40.1029515  13.8725139  96.4119564  38.9199618
  14.4209967  96.1294486  39.4022086   8.1457767 101.6224293  35.7924284
   7.9477455 102.1115108  35.0980496   7.5245478 101.8265535  36.3708418
   8.0245331 101.7240832  35.7747508   2.2065745  93.3909190  30.1334529
   2.9507790  93.7783466  30.3717478   2.3526441  92.5466615  30.2975016
   2.3376330  93.3239663  30.1928498   4.1245320  85.1859449  35.1666390
   3.2781365  85.3582257  35.0407740   4.1216453  84.3808793  35.5032218
   3.9992470  85.0920478  35.1977517   5.1943621  88.9634663  36.0328448
   4.7203575  88.4376425  36.5433759   5.5661757  88.4164136  35.4643309
   5.1793510  88.8050660  36.0243595  11.4580351  94.0237039  37.4435228
  11.2178574  93.1843454  37.4477655  11.9372358  94.1037206  38.1676002
  11.4932535  93.9118439  37.5510031   7.1227120  89.8571218  29.0954202
   6.5950139  89.9399962  28.4059911   7.5822829  90.5989089  29.0918846
   7.1128971  89.9791880  28.9928897  13.4585538  90.8038496  35.3964487
  13.2195308  90.7634330  34.5585272  13.6219440  91.6509648  35.5230209
  13.4475842  90.9230581  35.2917969  10.0631568  95.1888446  41.3269533
  10.7865767  94.7360972  41.1480553   9.7981531  95.4693111  40.5441860
  10.1312842  95.1639414  41.1848248   5.8450358  95.2872324  39.4764548
   5.2307351  94.7430374  39.7713183   6.3617643  94.7736560  38.9970364
   5.8306020  95.1308733  39.4488776   5.0846655  96.3576594  37.2108846
   4.6574263  95.7326313  36.7774282   5.0771600  96.0751516  38.0367854
   5.0205796  96.2229375  37.2688674   6.1429485  83.5603003  40.8348070
   5.6470046  83.7566677  40.1439637   6.8998547  83.9595671  40.6636871
   6.1816310  83.6480736  40.7068207   3.4132365  87.2345348  37.4251380
   3.4374852  86.7005461  36.7364160   3.6643838  86.7262657  38.0876971
   3.4542283  87.0806252  37.4216025   1.8763300  95.5276907  44.9077419
   1.0258930  95.6648621  45.0435064   2.0391428  94.7940685  45.3525121
   1.7747163  95.4391008  44.9933018  12.4966882  94.1514856  39.8300082
  13.0884723  94.7912107  39.8618280  12.9325877  93.4537893  40.1192149
  12.6485314  94.1433207  39.8780915   1.0963299  87.5513354  26.9359160
   1.4179141  87.0716437  26.2818423   1.3590243  88.3613001  26.7449972
   1.1829325  87.6003252  26.8114652   4.3260272  98.5732229  40.4557976
   3.8185363  99.1268076  40.8998607   4.0286918  98.6340519  39.6376751
   4.2065157  98.6638540  40.4006433   6.4922454  86.9385548  39.2982639
   6.9177526  86.4858075  38.6866166   5.8779448  86.3845619  39.5747427
   6.4651100  86.7899525  39.2487665   4.9316677  83.4100648  32.7073216
   4.2884995  83.2598295  33.2758355   4.5916084  83.1642993  31.9422321
   4.7861755  83.3512771  32.6776231   9.5216024  91.3660075  32.1303225
   8.8507214  91.9089777  32.0016290  10.2155774  91.8354930  31.8884920
   9.5244891  91.5158346  32.0758753   3.5702758 103.5056787  37.3614983
   3.3468412 102.7475616  37.7299010   3.0812601 103.5354808  36.6395423
   3.4646207 103.3979012  37.3091724   9.6844151  87.8215959  35.0393598
  10.0371761  87.3945682  35.7139397   8.8258953  87.7366802  35.1694674
   9.6093596  87.7460699  35.1588609   7.6827417  91.0851327  38.9878440
   7.6625344  90.9034622  39.8413219   7.7306618  91.9563346  38.9638024
   7.6862058  91.1867866  39.1101735   5.6273747  97.6738519  44.9126917
   5.5869602  97.0288196  44.3272073   6.4397065  97.6175137  45.2252329
   5.7416900  97.5697486  44.8723866   2.2181214 103.7257245  34.8152068
   1.8041613 103.0631375  34.4255909   2.9028589 103.8735104  34.2947762
   2.2579586 103.6497903  34.6808565   5.5846509 102.8847330  35.5675684
   5.1862792 102.9949601  34.7996505   4.9697728 103.0929397  36.1502244
   5.4345398 102.9320898  35.5406984   4.1574411  89.4921478  28.4349824
   3.5639250  89.8138475  27.8834391   4.1949688  88.6462574  28.2270930
   4.0748800  89.4145807  28.3232595  11.1168211  82.9434371  35.9677911
  10.6099076  82.2363510  35.8999088  11.9135645  82.6127559  36.0978987
  11.1595451  82.7907522  35.9776906   7.0332227  89.4500983  31.8651574
   6.8045920  89.4733684  31.0229933   7.2930303  88.6258450  31.9846585
   7.0378415  89.3317063  31.7576772   1.3151456  91.3035456  41.4676675
   0.8030359  90.6956639  41.8261706   1.1430952  92.0192048  41.9350650
   1.2141093  91.3198755  41.5892898  13.3188351  97.4599297  28.9518775
  13.7021957  98.2090653  29.1816872  12.5232465  97.7065117  28.6930764
  13.2582134  97.6068991  28.9476349   5.1920526  89.2259700  43.9078930
   5.7491956  88.9973510  43.2757396   4.8681591  89.9865366  43.6314142
   5.2266936  89.3043537  43.7735427   2.9103643  92.3127354  44.8730937
   3.6614970  92.6279031  45.1870491   3.1026220  92.1106525  44.0464859
   3.0495057  92.3294736  44.7974333   9.7588933  88.4400920  32.1154733
   9.7583160  88.2849577  32.9739009   9.5545113  89.2863907  32.0596118
   9.7288711  88.5421541  32.2342672   7.4829785  93.1198422  35.7690940
   7.9783451  92.4021417  35.7294960   6.6729561  92.8169220  35.6545426
   7.4373679  92.9696068  35.7464665   9.5481604  95.8702109  38.4568068
   9.9736676  95.3476531  37.9038493   9.1838524  96.4682947  37.9356691
   9.5568207  95.8812336  38.2977078   6.1360204  99.5836374  34.7869226
   6.6071382 100.2976636  34.9559211   6.4720382  98.9835124  35.3229095
   6.2555319  99.6007838  34.8901602   8.2237188 101.1937687  46.9661298
   8.3334154 100.4046248  47.3218045   8.5528085 101.1043623  46.1635636
   8.2889594 101.0643540  46.9003689   3.0529699  84.3563844  41.7427321
   3.1857604  83.5594838  42.0708296   3.4374851  84.8830247  42.3225596
   3.1286028  84.3163761  41.8770823   6.7734150  99.3754308  41.5496918
   6.2255096  98.7512191  41.2816984   7.2347179  99.5648580  40.8340998
   6.7601360  99.3113358  41.4047349   6.1262054  81.2794170  38.3408414
   5.3208018  81.1691900  38.6576252   5.9968789  81.3806626  37.4838280
   5.9882187  81.2777840  38.2616454   9.5828014  87.4439662  38.9348111
   8.9991003  87.9448869  38.5225678   9.9032308  86.9369218  38.3012434
   9.5441190  87.4431497  38.7806618   2.1222814  86.3580257  29.2106785
   2.9438508  86.5278570  28.9688480   1.6592464  86.5127518  28.4873083
   2.1753976  86.4061990  29.0678430   0.7118145  84.3523019  39.9905214
   1.2562558  84.0114146  40.5809556   0.7655081  85.2108481  40.1326499
   0.8007265  84.4278279  40.0987088   6.3392476 100.3805380  38.0806260
   7.1590850 100.2368347  38.3422555   6.0586554 101.0051579  38.6222697
   6.4189220 100.4515733  38.1994199  22.8106127 108.0370232  31.0449136
  22.7800131 108.8914869  31.2167405  23.4087475 107.7365525  31.6035280
  22.8943285 108.1186729  31.1523938  16.0105812 107.1245883  35.8002066
  15.1543707 107.2854381  35.8511183  16.0573465 106.2537947  35.8207127
  15.8904923 107.0196685  35.8108132  19.3199528 113.3932409  45.4062522
  20.0266295 112.8984440  45.5349457  19.5087464 113.8341490  44.6765180
  19.4527434 113.3850759  45.3171568  18.8557633 109.1837927  38.4433718
  19.4013593 109.8623014  38.5027688  18.7974509 109.0425388  37.5835300
  18.9273547 109.2629929  38.3245779  20.6322701 110.6122534  29.3167446
  20.5162227 111.3630220  29.7459584  21.4278588 110.3546488  29.5663533
  20.7327291 110.6857381  29.4171537   7.4686839 104.8633010  36.3538712
   6.8491871 104.2725658  36.1848727   7.3670703 105.4544446  35.7203035
   7.3624515 104.8637093  36.2343701  14.5654735 106.6032552  30.6871175
  15.2634900 106.7820680  31.1792638  14.8807067 106.0802892  30.0641564
  14.7150072 106.5526324  30.6673185   7.1955972 108.4085292  38.5982281
   7.0714669 108.9947738  39.2332100   7.8474257 107.9145488  38.8994556
   7.2729622 108.4224097  38.7368210  12.7381598 101.9724949  34.7692450
  12.4084928 102.4236092  34.0996148  12.0626600 101.8941112  35.3165456
  12.5892035 102.0276084  34.7515673  18.3552007 111.3430178  27.6281736
  18.2703302 112.1991145  27.7731304  18.8436390 111.0674503  28.2963895
  18.4140904 111.4287500  27.7483817  19.9458006  97.9610472  33.0142060
  19.6311447  98.6513950  33.4462483  19.4284948  97.9055254  32.3127561
  19.8222477  98.0545360  32.9739009  19.2870440 107.9614973  29.1279471
  18.7581911 108.1774606  29.7876777  19.8095460 108.6551111  29.0480440
  19.2858893 108.0958110  29.2135070  24.7418493 113.5361277  34.5012515
  23.9116196 113.7471921  34.6645932  24.6927745 112.7098332  34.2254799
  24.6125228 113.4450883  34.4849881  15.6347262 108.1043842  26.4055859
  15.8743266 108.3121825  25.5931202  15.9563103 107.3001350  26.5144804
  15.7184420 108.0157943  26.3016412  10.9437553 100.0337237  30.2515397
  11.6983521 100.4015554  30.0132447  10.7665087 100.4076792  31.0194577
  11.0292031 100.1435425  30.3300286  24.2372451 106.1831678  38.2962937
  23.4000872 106.2533865  38.5310531  24.2060682 106.1856173  37.4237239
  24.1090734 106.1941905  38.2022485  10.6337180 108.3264713  44.0111305
  10.8057684 108.2170608  44.8596587  11.1706538 108.9719119  43.7742497
  10.7382184 108.4056715  44.1016402  14.9794336  99.4433967  29.9842534
  15.7080497  99.2649922  29.5380690  15.0689229 100.2852047  30.1949712
  15.1000998  99.5417845  29.9496052  18.9602637 110.3787354  33.8874828
  19.7160152 110.8118869  33.9263737  19.0664961 109.7292124  34.4609464
  19.0872808 110.3464838  33.9772854  21.9180291 101.2474459  36.8806659
  22.5606199 101.3172564  37.4668574  22.1703312 100.5803682  36.3786201
  22.0502423 101.1600808  36.8933938   9.6897504 104.4575023  41.4931233
   8.9969300 103.9872002  41.7391964  10.3057831 104.2313327  42.0672940
   9.6782034 104.3542155  41.6140385  25.1327154 110.9241551  33.5296868
  25.7943588 110.3632220  33.4292777  24.4918566 110.4293582  33.8549559
  25.1356022 110.7677960  33.5629208  21.4191985 111.9406934  33.2708857
  21.6547574 112.0852133  32.4435708  21.5681549 112.7049342  33.6640371
  21.4757788 112.0745988  33.2072461   8.4138063 108.4240427  42.6358078
   9.1378035 108.4093457  43.1222973   8.5154199 109.1335782  42.1380046
   8.5356272 108.5265130  42.6336865  23.2482442 110.7808600  31.1078461
  23.5790659 111.3136240  30.5018556  23.8215530 110.8347488  31.7640412
  23.3816121 110.8678169  31.1156243  15.7883012 111.9039511  47.5007025
  14.9955993 112.2183023  47.6859645  15.9031939 112.1190980  46.6627810
  15.6878423 111.9823348  47.4045360  18.4614331 108.6273502  31.7902041
  18.5561185 109.3662797  32.2441666  17.8373174 108.1990978  32.2236605
  18.3823361 108.6734823  31.9210188  16.7166805 111.8059715  42.4392322
  17.2905666 111.1686959  42.5940886  16.6381608 111.8063798  41.5701979
  16.7900040 111.7124827  42.3338733   5.3163221 108.5848925  36.2775036
   5.8936724 108.4485375  36.9167281   4.6177283 108.1284709  36.5320620
   5.2984243 108.4971191  36.4097326  18.7137352 110.4722242  25.0238993
  18.6317515 110.5424429  25.8893980  19.3517073 111.0351986  24.8322734
  18.7957190 110.5661213  25.1228942  12.0730523 110.2382980  34.4913519
  11.8149768 109.4054715  34.4644819  12.1279006 110.4640593  33.6506020
  12.0430301 110.1480751  34.3633656  17.1531574 102.3411431  34.5917612
  16.4487900 101.8520616  34.7501531  17.2016548 102.3533905  33.7206056
  17.0561625 102.2701079  34.4856952  11.0465236 107.7920743  34.9778414
  10.4714827 107.9512911  35.6142375  10.6700912 107.1556152  34.5146865
  10.9068048 107.7218556  35.0032972  14.7138524 106.2644092  39.8370792
  14.3252957 105.8398310  39.1822984  14.0493223 106.5126242  40.3447819
  14.5585452 106.2382813  39.8158660  24.3561793 106.0219097  32.6118622
  24.0998358 105.2099038  32.4216505  25.1991107 106.0296664  32.3848810
  24.4427819 105.9031094  32.5503440  18.5364886  99.9618721  37.3494777
  18.9175397  99.2796892  37.7362651  17.7328170  99.6728323  37.1670441
  18.4741347  99.8185769  37.3798833  15.8177462 110.4942697  28.0347599
  16.6318101 110.7857589  27.9230371  15.7536604 109.8402559  27.4605892
  15.9280201 110.4407891  27.9336437  22.0386953 113.1768693  42.4477175
  21.8025590 112.3456757  42.3289236  22.6830182 113.1254300  43.0332019
  22.0981623 113.0466381  42.5163069  12.4956726 102.4672919  47.2157385
  12.1810167 103.2372482  46.9526948  12.1746659 101.9043175  46.6309612
  12.4015645 102.4983188  47.0898735  23.0623373 112.9613141  38.5105470
  22.7569190 113.6941198  38.8718785  22.3429589 112.5551071  38.2298256
  22.9110716 113.0094874  38.5218607  28.7625165 109.6006142  37.8373814
  28.6949666 109.6202101  36.9676400  28.7480828 110.4436469  38.0629484
  28.7503922 109.7279877  37.7426291  10.0488623 100.8563440  32.8303581
   9.1811049 100.9286040  32.8961191  10.3363827 101.6585519  33.0191556
   9.9628371 100.9857588  32.8678348  19.1721512 101.0041300  41.1614903
  19.9175104 100.8151110  40.7478329  18.7558816 101.5299538  40.6028760
  19.2206486 101.0543445  41.0179476  26.5483783 108.3750528  36.1120408
  27.0991704 107.7418597  36.3517500  26.5327898 108.9065921  36.8035912
  26.6268979 108.3599476  36.2499266  20.2512189 106.6146862  35.2225004
  19.9076955 105.8937197  35.5732254  20.3505231 106.4060713  34.3803363
  20.2154232 106.4771065  35.1496684  20.7125218 113.0772566  30.7648993
  21.2783251 113.7365776  30.6807535  20.0653121 113.4222264  31.2365395
  20.7003974 113.2254507  30.8221749  12.1273232 105.0670170  45.9542600
  11.3173007 105.3727950  45.8432442  12.6047918 105.7875752  46.0695184
  12.0776710 105.2184771  45.9549671   7.9755975 104.3321700  30.2720458
   7.6880771 103.9622970  29.5352405   8.6626443 104.8016555  30.0104163
   8.0344872 104.3468669  30.1235533  10.8109647 108.1974648  31.7187862
  11.5332299 108.3615806  31.2591668  10.3317640 108.9184313  31.6127202
  10.8473377 108.3272878  31.6353476  18.7703154 104.5338447  37.0984547
  17.9314255 104.5599726  36.8622811  18.8407522 105.1809182  37.6789894
  18.6571548 104.6334573  37.1493664  17.2172433 101.4323824  31.8312163
  17.9198785 101.2331572  31.3532121  16.9516621 100.6599766  32.1381007
  17.2819065 101.2886790  31.8057605  22.6460678 109.7406434  34.3845789
  22.5594653 109.8961860  35.2380568  22.1911158 110.3844509  34.0105194
  22.5663935 109.8582189  34.4552896  11.9800989 102.6959109  40.8843044
  11.7884186 102.7114243  41.7342467  12.8299585 102.8922783  40.8609699
  12.0776711 102.7273460  41.0066339   6.3647902 105.2250090  38.8626860
   6.2233394 104.3734031  38.9871368   6.6488465 105.2678751  38.0389066
   6.3855748 105.1049840  38.7594484  16.5186494 107.0617181  33.0071349
  16.2721209 106.9812932  33.8408137  16.8471617 106.2770648  32.8133876
  16.5307738 106.9343446  33.1018872  18.7512628 110.0696915  43.0480511
  18.7460667 109.1976732  43.0522938  19.4573622 110.2685084  42.5749967
  18.8557632 109.9700790  42.9787547  12.4783522 109.7973899  42.4194332
  12.6226897 110.3775107  41.7837442  12.8259170 110.1750196  43.1244186
  12.5510983 109.9394603  42.4293327  14.6503439 108.9964068  40.2019463
  13.9026753 109.1895082  39.7967741  14.8044964 108.1709287  39.9643585
  14.5625866 108.9029179  40.1064869  21.9087916 113.1278794  27.5574629
  21.5294725 112.3415932  27.5503918  21.2454161 113.6765651  27.4146273
  21.7546391 113.0923618  27.5355426  14.8905216 102.8914618  41.0914867
  15.3477830 103.6238593  41.2187659  14.9661545 102.4681084  41.8502123
  14.9696186 102.9371856  41.2215943   7.1338207 103.1380438  42.1804311
   6.5980397 102.5260796  42.4965078   7.1955972 103.7128574  42.8337977
   7.0633840 103.1327366  42.3239737  19.3632542  96.0704494  34.9608710
  19.4816110  96.5280957  34.2276013  19.1894718  95.2649755  34.6744927
  19.3551713  96.0198266  34.8109644  12.7687594 104.8816722  37.9356691
  11.9783669 104.7008182  38.2574027  13.1648217 104.1043675  37.9186985
  12.7104470 104.7404183  37.9809239  18.1531280 112.5159152  35.6616137
  17.4776282 112.2844385  36.1629524  18.1623656 111.9080335  35.0358242
  18.0549785 112.3918078  35.6432289  15.2825424 107.3576981  42.4180190
  15.2184565 108.2186938  42.2900327  15.4222612 107.0408975  41.6175741
  15.2940894 107.4377148  42.2808403  13.9644518 110.0509121  36.5596393
  13.5406767 110.2513620  35.8235411  13.7889373 109.2037969  36.6720693
  13.8755399 109.9557902  36.4670083  15.7906108 109.9219056  30.8617729
  16.3321653 109.4189437  31.3256349  16.1052667 109.8684250  30.0507214
  15.9170505 109.8398477  30.8101541  19.6623215 114.1321703  47.9744641
  20.4758080 113.8606852  48.1349773  19.5018181 113.8329243  47.1704837
  19.7593163 114.0476629  47.8790047  16.9395377 104.8155360  40.9140029
  17.1537347 104.1766274  40.3603383  16.3229276 105.2601184  40.4847891
  16.8800706 104.7865504  40.7690460  19.1034465 106.4244425  41.8523336
  18.2911147 106.1170316  41.9336509  19.5624400 105.9443426  42.4166048
  19.0514850 106.3080918  41.9477930  16.3310106  97.9255296  35.9027372
  15.4603664  97.8994017  35.8560681  16.5850447  97.7532488  35.0853217
  16.2403666  97.8965440  35.7747509  16.1987972 107.8304497  46.6352038
  16.6687604 108.4546613  47.0219913  16.2449853 107.1621472  47.1945253
  16.2755848 107.8239177  46.7752110  13.3559246  99.9361524  37.3600842
  12.8397735  99.2441716  37.4852421  12.7953175 100.6032301  37.3063441
  13.1965759  99.9324782  37.3706908  15.4251480 100.4754484  39.1893695
  15.0383233 100.5003516  39.9707225  14.9384417  99.9096163  38.7368211
  15.2963988 100.3950235  39.2381598  21.4001459 107.0417139  37.8133397
  20.9729067 106.9543488  37.0581496  20.7627512 107.1494915  38.3988241
  21.2431066 107.0449799  37.7878838  15.0908621  97.3621470  41.4803955
  15.7201739  97.8981770  41.2025025  15.2594484  97.2698829  42.3317520
  15.2086416  97.4282832  41.5652483  14.8922536 102.1492665  43.7530366
  15.7195965 101.8777813  43.8088981  14.9130382 102.9453506  44.1094184
  15.0175386 102.2272419  43.8145549   9.4692026 109.2956527  36.9400627
   8.6280033 109.1960402  37.1479521   9.6782034 110.0652008  37.2914948
   9.3756719 109.3948571  37.0227942   6.9467593 106.9176064  34.7685378
   6.5524291 106.9919076  33.9935487   6.3907710 107.3034011  35.3193739
   6.8070405 106.9857839  34.7353037  18.5832540  99.8957358  34.4489256
  18.7882133  99.8279666  35.2946254  18.2558964 100.7016180  34.3810434
  18.5647788 100.0043299  34.5648912  13.2808691 107.2237927  36.1898224
  12.9771828 106.6693915  36.7908632  12.5788112 107.4030137  35.7026259
  13.1324901 107.1682709  36.2067930  12.3374788 104.5338446  30.7542926
  12.6134522 103.8157359  30.3420494  12.9373457 105.1323366  30.5464032
  12.4668053 104.5158817  30.6623687  21.8366227 100.4489123  33.9292022
  21.2240541 100.9359525  34.3145754  21.9330402  99.7732613  34.4729673
  21.7604125 100.4207431  34.0670880  15.8385308 102.2051964  29.0289521
  16.2929055 102.3762524  29.7537366  16.3125354 101.5920074  28.6287297
  15.9753629 102.1402849  29.0763283   9.7561457 102.8502287  39.0260277
  10.2162938 102.9241217  39.7635401   9.8017563 103.6483541  38.6760099
   9.8312012 102.9796434  39.0833034  11.4044806 103.5168982  43.5932305
  11.0130372 102.8702329  44.0288082  11.5730669 104.1080418  44.2126560
  11.3715717 103.5083250  43.7495011  25.4791255 111.5206059  39.3569538
  25.5374379 111.9692708  40.1029515  24.8457723 111.9304872  38.9199618
  25.3942551 111.6479794  39.4022086  13.1798328 108.9094498  30.1334529
  13.9240373 109.2968774  30.3717478  13.3259025 108.0651923  30.2975016
  13.3108914 108.8424971  30.1928498  15.0977904 100.7044757  35.1666390
  14.2513949 100.8767565  35.0407740  15.0949036  99.8994101  35.5032218
  14.9725054 100.6105786  35.1977517  16.1676204 104.4819971  36.0328448
  15.6936159 103.9561733  36.5433759  16.5394340 103.9349444  35.4643309
  16.1526093 104.3235968  36.0243595   6.5449234 106.4791478  41.4011994
   7.4074847 106.3787187  41.3149323   6.2141017 105.8986187  40.8397566
   6.6234431 106.3783105  41.3057400  22.4312935 109.5422347  37.4435228
  22.1911158 108.7028762  37.4477655  22.9104942 109.6222514  38.1676002
  22.4665119 109.4303747  37.5510031  18.0959704 105.3756526  29.0954202
  17.5682723 105.4585270  28.4059911  18.5555412 106.1174397  29.0918846
  18.0861554 105.4977188  28.9928897  24.4318122 106.3223804  35.3964487
  24.1927892 106.2819638  34.5585272  24.5952023 107.1694956  35.5230209
  24.4208425 106.4415889  35.2917969  21.0364152 110.7073754  41.3269533
  21.7598351 110.2546280  41.1480553  20.7714114 110.9878419  40.5441860
  21.1045425 110.6824722  41.1848248   9.9051020 105.3033927  38.0622412
   9.2804091 105.3152319  37.4548365   9.5696615 105.7794102  38.7113652
   9.7636512 105.3752444  38.0678980  16.8182942 110.8057632  39.4764548
  16.2039935 110.2615682  39.7713183  17.3350226 110.2921868  38.9970364
  16.8038604 110.6494041  39.4488776  16.0579239 111.8761902  37.2108846
  15.6306847 111.2511620  36.7774282  16.0504183 111.5936824  38.0367854
  15.9938380 111.7414682  37.2688674   9.1741766 106.9127075  40.2797280
   9.3335253 106.1570399  40.6849002   8.9934659 107.4618014  40.9338018
   9.1707125 106.8820889  40.4359986  17.1162069  99.0788310  40.8348070
  16.6202630  99.2751985  40.1439637  17.8731131  99.4780979  40.6636871
  17.1548893  99.1666044  40.7068207  14.3864948 102.7530656  37.4251380
  14.4107436 102.2190769  36.7364160  14.6376422 102.2447965  38.0876971
  14.4274867 102.5991560  37.4216025  10.6666271 101.4801475  36.8057125
  10.7064642 101.9810681  37.5191832   9.8415935 101.5711868  36.5363048
  10.5505797 101.5683291  36.8707663  12.8495884 111.0462215  44.9077419
  11.9991514 111.1833929  45.0435064  13.0124011 110.3125993  45.3525121
  12.7479747 110.9576316  44.9933018  12.0880634 107.9961984  39.1031024
  11.2572564 108.1635802  38.8966272  12.0332151 107.6197935  39.8879909
  11.9570049 107.9651716  39.1879552   9.8964417 101.4870877  44.7387434
  10.5217121 100.9433010  45.0116867   9.4414897 101.0065795  44.1695225
   9.9212678 101.3360359  44.6949028  10.4616678 106.2717576  29.6321141
  10.6019639 106.7690040  30.3349783  10.9599211 105.5703870  29.7735355
  10.5557759 106.2419555  29.7572720  23.4699466 109.6700164  39.8300082
  24.0617306 110.3097415  39.8618280  23.9058461 108.9723201  40.1192149
  23.6217897 109.6618515  39.8780915  12.0695883 103.0698662  26.9359160
  12.3911724 102.5901745  26.2818423  12.3322827 103.8798308  26.7449972
  12.1561908 103.1188560  26.8114652  17.4655038 102.4570856  39.2982639
  17.8910110 102.0043383  38.6866166  16.8512031 101.9030927  39.5747427
  17.4383683 102.3084833  39.2487665  15.9049261  98.9285956  32.7073216
  15.2617579  98.7783603  33.2758355  15.5648668  98.6828301  31.9422321
  15.7594338  98.8698079  32.6776231  20.4948607 106.8845383  32.1303225
  19.8239797 107.4275085  32.0016290  21.1888358 107.3540238  31.8884920
  20.4977475 107.0343654  32.0758753  20.6576735 103.3401267  35.0393598
  21.0104345 102.9130990  35.7139397  19.7991536 103.2552110  35.1694674
  20.5826179 103.2646007  35.1588609   9.3560420 105.9708786  33.0976445
   8.6372409 106.3872919  33.3649308   9.7272782 106.5363025  32.5468083
   9.3052352 106.1158068  33.0559252  18.6560001 106.6036635  38.9878440
  18.6357928 106.4219930  39.8413219  18.7039201 107.4748654  38.9638024
  18.6594642 106.7053173  39.1101735  15.1306994 105.0106786  28.4349824
  14.5371833 105.3323783  27.8834391  15.1682272 104.1647882  28.2270930
  15.0481383 104.9331114  28.3232595  22.0900795  98.4619678  35.9677911
  21.5831660  97.7548818  35.8999088  22.8868229  98.1312867  36.0978987
  22.1328034  98.3092830  35.9776906  18.0064811 104.9686291  31.8651574
  17.7778504 104.9918992  31.0229933  18.2662887 104.1443758  31.9846585
  18.0110999 104.8502371  31.7576772  12.2884039 106.8220764  41.4676675
  11.7762942 106.2141947  41.8261706  12.1163535 107.5377356  41.9350650
  12.1873676 106.8384063  41.5892898   7.1349754 105.2658339  44.1179036
   6.9652344 105.9259714  43.5727243   6.6915704 105.4764900  44.8391525
   7.0449088 105.3944321  44.1440666  11.0609573 103.5062837  33.1605770
  11.5366940 103.8679917  32.5255951  10.5598173 104.1619305  33.4405913
  11.0574932 103.6557026  33.1082511  24.2920935 112.9784605  28.9518775
  24.6754541 113.7275961  29.1816872  23.4965048 113.2250425  28.6930764
  24.2314717 113.1254299  28.9476349  16.1653110 104.7445008  43.9078930
  16.7224540 104.5158818  43.2757396  15.8414175 105.5050674  43.6314142
  16.1999520 104.8228845  43.7735427   4.0351818 108.1705205  39.3767526
   3.4878538 107.5005850  39.4948394   4.8244197 107.8035052  39.4410993
   4.0704002 108.0170191  39.4036227  13.8836227 107.8312662  44.8730937
  14.6347554 108.1464339  45.1870491  14.0758803 107.6291833  44.0464859
  14.0227641 107.8480043  44.7974333  20.7321517 103.9586228  32.1154733
  20.7315743 103.8034885  32.9739009  20.5277697 104.8049215  32.0596118
  20.7021295 104.0606849  32.2342672  18.4562369 108.6383730  35.7690940
  18.9516034 107.9206725  35.7294960  17.6462145 108.3354527  35.6545426
  18.4106262 108.4881376  35.7464665  20.5214188 111.3887417  38.4568068
  20.9469259 110.8661839  37.9038493  20.1571108 111.9868255  37.9356691
  20.5300790 111.3997644  38.2977078  14.0262282  99.8749152  41.7427321
  14.1590188  99.0780146  42.0708296  14.4107435 100.4015555  42.3225596
  14.1018611  99.8349069  41.8770823  17.0994637  96.7979478  38.3408414
  16.2940601  96.6877208  38.6576252  16.9701373  96.8991934  37.4838280
  16.9614770  96.7963148  38.2616454  20.5560598 102.9624970  38.9348111
  19.9723587 103.4634177  38.5225678  20.8764892 102.4554526  38.3012434
  20.5173773 102.9616805  38.7806618  13.0955397 101.8765565  29.2106785
  13.9171091 102.0463878  28.9688480  12.6325048 102.0312826  28.4873083
  13.1486559 101.9247298  29.0678430  11.6850729  99.8708327  39.9905214
  12.2295142  99.5299454  40.5809556  11.7387665 100.7293789  40.1326499
  11.7739848  99.9463587  40.0987088  30.9190590 113.4795780  33.0142060
  30.6044031 114.1699258  33.4462483  30.4017531 113.4240562  32.3127561
  30.7955060 113.5730668  32.9739009  25.9526920 114.9619275  29.9842534
  26.6813080 114.7835230  29.5380690  26.0421813 115.8037355  30.1949712
  26.0733582 115.0603153  29.9496052  32.8912875 116.7659767  36.8806659
  33.5338783 116.8357872  37.4668574  33.1435895 116.0988990  36.3786201
  33.0235007 116.6786116  36.8933938  29.5097469 115.4804029  37.3494777
  29.8907981 114.7982200  37.7362651  28.7060754 115.1913631  37.1670441
  29.4473931 115.3371077  37.3798833  30.1454095 116.5226608  41.1614903
  30.8907687 116.3336418  40.7478329  29.7291400 117.0484846  40.6028760
  30.1939070 116.5728753  41.0179476  28.1905016 116.9509132  31.8312163
  28.8931369 116.7516880  31.3532121  27.9249205 116.1785074  32.1381007
  28.2551648 116.8072098  31.8057605  30.3365125 111.5889801  34.9608710
  30.4548694 112.0466265  34.2276013  30.1627301 110.7835063  34.6744927
  30.3284296 111.5383574  34.8109644  27.3042689 113.4440604  35.9027372
  26.4336247 113.4179325  35.8560681  27.5583030 113.2717796  35.0853217
  27.2136249 113.4150748  35.7747509  26.3984063 115.9939792  39.1893695
  26.0115816 116.0188824  39.9707225  25.9117000 115.4281471  38.7368211
  26.2696572 115.9135543  39.2381598  26.0641205 112.8806778  41.4803955
  26.6934323 113.4167078  41.2025025  26.2327068 112.7884137  42.3317520
  26.1818999 112.9468140  41.5652483  29.5565123 115.4142666  34.4489256
  29.7614717 115.3464974  35.2946254  29.2291547 116.2201487  34.3810434
  29.5380371 115.5228607  34.5648912  32.8098811 115.9674431  33.9292022
  32.1973125 116.4544833  34.3145754  32.9062986 115.2917921  34.4729673
  32.7336709 115.9392739  34.0670880  28.0894652 114.5973618  40.8348070
  27.5935214 114.7937293  40.1439637  28.8463714 114.9966287  40.6636871
  28.1281477 114.6851352  40.7068207  26.8781844 114.4471264  32.7073216
  26.2350162 114.2968910  33.2758355  26.5381251 114.2013609  31.9422321
  26.7326922 114.3883387  32.6776231  33.0633379 113.9804986  35.9677911
  32.5564243 113.2734126  35.8999088  33.8600812 113.6498175  36.0978987
  33.1060618 113.8278138  35.9776906  24.9994866 115.3934460  41.7427321
  25.1322771 114.5965453  42.0708296  25.3840019 115.9200863  42.3225596
  25.0751195 115.3534377  41.8770823  28.0727221 112.3164786  38.3408414
  27.2673185 112.2062516  38.6576252  27.9433956 112.4177242  37.4838280
  27.9347354 112.3148456  38.2616454   2.4904150  59.4368792  21.4352562
   1.6601853  59.6479436  21.5985979   2.4413402  58.6105847  21.1594846
   2.3610885  59.3458399  21.4189927   1.9858108  52.0839193  25.2302983
   1.1486529  52.1541380  25.4650578   1.9546339  52.0863688  24.3577286
   1.8576390  52.0949420  25.1362531   2.8812811  56.8249067  20.4636915
   3.5429245  56.2639735  20.3632824   2.2404223  56.3301097  20.7889606
   2.8841679  56.6685476  20.4969255   0.9968099  56.6816115  18.0418508
   1.3276316  57.2143755  17.4358602   1.5701187  56.7355003  18.6980459
   1.1301778  56.7685684  18.0496289   2.1047450  51.9226612  19.5458669
   1.8484015  51.1106553  19.3556552   2.9476764  51.9304179  19.3188857
   2.1913476  51.8038609  19.4843486   6.5110822  55.5013657  24.7713861
   6.4435322  55.5209617  23.9016447   6.4966485  56.3443985  24.9969531
   6.4989579  55.6287392  24.6766337   4.2969439  54.2758044  23.0460455
   4.8477361  53.6426113  23.2857547   4.2813555  54.8073436  23.7375959
   4.3754636  54.2606992  23.1839313   3.2276912  57.4213575  26.2909585
   3.2860036  57.8700223  27.0369561   2.5943380  57.8312387  25.8539665
   3.1428207  57.5487309  26.3362133   2.1803779  52.2231320  22.3304534
   1.9413549  52.1827154  21.4925319   2.3437680  53.0702472  22.4570255
   2.1694082  52.3423405  22.2258016   1.2185123  55.5707680  26.7640129
   1.8102963  56.2104930  26.7958327   1.6544117  54.8730716  27.0532196
   1.3703554  55.5626030  26.8120962   2.0406592  58.8792120  15.8858822
   2.4240197  59.6283477  16.1156919   1.2450705  59.1257940  15.6270811
   1.9800374  59.0261814  15.8816395  11.5324367  69.4563055  17.9789183
  11.5018371  70.3107692  18.1507452  12.1305716  69.1558348  18.5375326
  11.6161525  69.5379552  18.0863985   4.7324052  68.5438706  22.7342113
   3.8761947  68.7047205  22.7851230   4.7791706  67.6730770  22.7547174
   4.6123163  68.4389508  22.7448179   8.0417768  74.8125232  32.3402569
   8.7484536  74.3177263  32.4689504   8.2305704  75.2534314  31.6105227
   8.1745674  74.8043582  32.2511615   4.1094443  80.4541063  19.8676003
   4.4933822  81.0227961  19.3280779   4.0453584  79.7290573  19.3881819
   4.1567870  80.4316526  19.7169866   7.5775873  70.6030750  25.3773765
   8.1231833  71.2815837  25.4367734   7.5192749  70.4618211  24.5175346
   7.6491787  70.6822752  25.2585825   9.3540942  72.0315357  16.2507493
   9.2380468  72.7823044  16.6799631  10.1496828  71.7739311  16.5003580
   9.4545531  72.1050204  16.3511584   3.2872975  68.0225375  17.6211222
   3.9853140  68.2013503  18.1132685   3.6025308  67.4995715  16.9981611
   3.4368312  67.9719148  17.6013232   3.4760911  74.4095820  17.6091013
   3.9154546  73.8012921  18.0545786   3.3265573  74.0303194  16.8376478
   3.5182376  74.2634292  17.5610181   0.9432554  73.0039832  24.8109839
   1.5881556  72.5112275  24.4920787   1.1834331  73.1464619  25.6375917
   1.0743139  72.9517274  24.8859372   3.4818645  75.8494738  24.4616731
   3.7641888  75.0546144  24.2403487   4.2104805  76.3275326  24.4821792
   3.6308209  75.8029335  24.4319746   1.4599839  63.3917772  21.7032496
   1.1303169  63.8428916  21.0336195   0.7844841  63.3133935  22.2505503
   1.3110275  63.4468907  21.6855720   7.0770247  72.7623002  14.5621782
   6.9921542  73.6183968  14.7071351   7.5654630  72.4867326  15.2303942
   7.1359144  72.8480323  14.6823864   8.6676247  59.3803295  19.9482107
   8.3529688  60.0706774  20.3802529   8.1503188  59.3248077  19.2467608
   8.5440717  59.4738184  19.9079056   8.0088680  69.3807796  16.0619518
   7.4800152  69.5967429  16.7216824   8.5313700  70.0743934  15.9820487
   8.0077133  69.5150933  16.1475117  13.4636733  74.9554100  21.4352562
  12.6334436  75.1664744  21.5985979  13.4145986  74.1291155  21.1594846
  13.3343469  74.8643707  21.4189927   1.5246471  77.7857955  24.2700472
   1.0073413  77.4265370  23.6661780   2.2220862  77.2620129  24.2806538
   1.5512052  77.6555642  24.1830730   5.1810063  78.2352769  30.2316645
   5.2693409  78.0478909  31.0794855   5.6099775  77.5890198  29.8321491
   5.2572165  78.1115776  30.2988396   2.7480523  77.5183929  29.2134307
   2.1851357  77.1056538  29.7373968   3.5101546  77.4436834  29.6327450
   2.7774971  77.4461329  29.3527307   4.3565503  69.5236665  13.3395906
   4.5961506  69.7314649  12.5271249   4.6781344  68.7194173  13.4484851
   4.4402661  69.4350766  13.2356459  12.9590692  67.6024501  25.2302983
  12.1219113  67.6726688  25.4650578  12.9278923  67.6048996  24.3577286
  12.8308974  67.6134728  25.1362531   3.7012577  60.8626790  16.9182581
   4.4298737  60.6842745  16.4720737   3.7907470  61.7044870  17.1289759
   3.8219239  60.9610669  16.8836099   7.6820877  71.7980178  20.8214875
   8.4378392  72.2311692  20.8603784   7.7883202  71.1484947  21.3949511
   7.8091048  71.7657661  20.9112900  10.7201048  75.6253455  21.5717278
  10.2836280  75.6290197  22.3276249  10.3863964  76.3058954  21.1396855
  10.6063668  75.7265911  21.6198110   5.2930122  77.6661788  32.8960428
   6.0770539  77.7792635  33.2616170   5.0926717  76.8402925  33.0919114
   5.3796148  77.5608507  32.9794814  10.6398531  62.6667283  23.8146706
  11.2824440  62.7365387  24.4008621  10.8921552  61.9996506  23.3126248
  10.7720664  62.5793631  23.8273985   5.4500515  79.5771890  26.5426884
   4.6515761  79.3371390  26.8000752   5.8986527  79.6286283  27.2893931
   5.3975127  79.5494281  26.6911808  13.8545395  72.3434375  20.4636915
  14.5161829  71.7825043  20.3632824  13.2136807  71.8486405  20.7889606
  13.8574262  72.1870784  20.4969255  10.1410225  73.3599757  20.2048904
  10.3765815  73.5044956  19.3775754  10.2899789  74.1242165  20.5980417
  10.1976029  73.4938811  20.1412508  11.9700682  72.2001423  18.0418508
  12.3008899  72.7329063  17.4358602  12.5433770  72.2540311  18.6980459
  12.1034361  72.2870992  18.0496289   4.5101252  73.3232335  34.4347072
   3.7174233  73.6375846  34.6199692   4.6250179  73.5383803  33.5967857
   4.4096663  73.4016171  34.3385407   7.1832571  70.0466326  18.7242088
   7.2779426  70.7855620  19.1781713   6.5591415  69.6183801  19.1576652
   7.1041601  70.0927646  18.8550235   5.4385045  73.2252538  29.3732369
   6.0123907  72.5879783  29.5280933   5.3599849  73.2256621  28.5042026
   5.5118280  73.1317650  29.2678780   7.4355593  71.8915066  11.9579040
   7.3535755  71.9617253  12.8234027   8.0735313  72.4544809  11.7662780
   7.5175430  71.9854037  12.0568989   5.8749814  63.7604254  21.5257659
   5.1706141  63.2713440  21.6841578   5.9234788  63.7726729  20.6546103
   5.7779865  63.6893902  21.4196999   3.4356765  67.6836915  26.7710839
   3.0471197  67.2591133  26.1163030   2.7711463  67.9319065  27.2787866
   3.2803692  67.6575636  26.7498707  13.0780034  67.4411920  19.5458669
  12.8216599  66.6291861  19.3556552  13.9209348  67.4489487  19.3188857
  13.1646059  67.3223917  19.4843486   7.2583126  61.3811544  24.2834823
   7.6393638  60.6989715  24.6702698   6.4546410  61.0921146  24.1010488
   7.1959588  61.2378592  24.3138879   4.5395703  71.9135520  14.9687646
   5.3536342  72.2050413  14.8570418   4.4754844  71.2595382  14.3945939
   4.6498442  71.8600715  14.8676484  10.7605193  74.5961516  29.3817222
  10.5243830  73.7649581  29.2629282  11.4048422  74.5447123  29.9672066
  10.8199864  74.4659204  29.4503115   1.2174966  63.8865742  34.1497432
   0.9028408  64.6565305  33.8866995   0.8964899  63.3235998  33.5649659
   1.1233886  63.9176011  34.0238782  11.7841614  74.3805965  25.4445516
  11.4787431  75.1134022  25.8058832  11.0647829  73.9743894  25.1638302
  11.6328956  74.4287698  25.4558653   2.7925083  75.8629460  21.7753745
   2.8664091  75.7004632  22.6295594   3.6094589  76.0519649  21.5314226
   2.9241442  75.8666202  21.8651770  17.4843406  71.0198965  24.7713861
  17.4167906  71.0394925  23.9016447  17.4699068  71.8629293  24.9969531
  17.4722162  71.1472700  24.6766337   7.8939752  62.4234123  28.0954950
   8.6393344  62.2343933  27.6818375   7.4777057  62.9492361  27.5368806
   7.9424726  62.4736268  27.9519523  15.2702023  69.7943352  23.0460455
  15.8209945  69.1611421  23.2857547  15.2546138  70.3258744  23.7375959
  15.3487219  69.7792300  23.1839313   1.9224414  73.6281949  27.5920348
   1.4236108  74.3397717  27.6705237   2.7324638  73.9482615  27.5538511
   1.9680521  73.7808797  27.5976917   8.9730429  68.0339685  22.1565051
   8.6295195  67.3130020  22.5072301   9.0723472  67.8253536  21.3143409
   8.9372472  67.8963889  22.0836731   9.4343458  74.4965389  17.6989039
  10.0001491  75.1558599  17.6147582   8.7871362  74.8415087  18.1705441
   9.4222215  74.6447331  17.7561796   5.9050036  77.4404174  17.1226119
   5.6636712  76.7072034  16.7153183   6.0851369  77.9891030  16.4692452
   5.8957660  77.4126565  16.9656341   1.1349357  72.7312733  18.5347041
   0.9392140  73.3387468  17.9407344   1.3583703  72.0380677  18.0538715
   1.1383998  72.7190259  18.3763122   7.4921395  65.9531270  24.0324594
   6.6532495  65.9792549  23.7962857   7.5625762  66.6002005  24.6129941
   7.3789788  66.0527396  24.0833711   5.9390673  62.8516647  18.7652210
   6.6417026  62.6524395  18.2872168   5.6734862  62.0792589  19.0721053
   6.0037305  62.7079613  18.7397652  11.3678919  71.1599257  21.3185836
  11.2812893  71.3154683  22.1720615  10.9129398  71.8037332  20.9445241
  11.2882175  71.2775012  21.3892943   5.2404735  68.4810004  19.9411395
   4.9939449  68.4005755  20.7748184   5.5689858  67.6963472  19.7473923
   5.2525978  68.3536269  20.0358918   9.1352783  75.1893363  23.7298177
   8.9967143  75.8874409  24.2346919   8.3552781  75.0342020  23.3734358
   8.9996010  75.2693530  23.7524451   7.4730869  71.4889739  29.9820558
   7.4678907  70.6169555  29.9862985   8.1791862  71.6877908  29.5090014
   7.5775873  71.3893613  29.9127594   1.2001762  71.2166722  29.3534378
   1.3445138  71.7967931  28.7177488   1.5477410  71.5943019  30.0584233
   1.2729223  71.3587427  29.3633373   3.3721679  70.4156891  27.1359510
   2.6244993  70.6087905  26.7307788   3.5263204  69.5902110  26.8983631
   3.2844107  70.3222002  27.0404916  10.6306156  74.5471617  14.4914676
  10.2512965  73.7608755  14.4843965   9.9672402  75.0958474  14.3486320
  10.4764631  74.5116441  14.4695473   2.7982818  79.5784137  27.4979896
   2.7226489  78.9092948  28.0530684   2.7272677  80.2801925  28.0120562
   2.7763424  79.5829045  27.6556744   3.6123456  64.3107442  28.0254914
   4.0696070  65.0431416  28.1527706   3.6879785  63.8873907  28.7842170
   3.6914426  64.3564680  28.1555990   8.0850782  57.4897317  21.8948757
   8.2034350  57.9473780  21.1616059   7.9112958  56.6842578  21.6084974
   8.0769953  57.4391089  21.7449690   3.4553064  78.0985136  18.3303502
   4.2202956  77.8294780  18.0086166   3.3531154  77.6135146  19.0473565
   3.5534560  77.9874701  18.3883330   1.4905834  66.3009545  24.8696738
   0.7001909  66.1201006  25.1914074   1.8866457  65.5236498  24.8527032
   1.4322710  66.1597006  24.9149286   6.8749520  73.9351976  22.5956184
   6.1994522  73.7037208  23.0969571   6.8841897  73.3273159  21.9698289
   6.7768025  73.8110901  22.5772336   4.0043664  68.7769805  29.3520237
   3.9402806  69.6379761  29.2240373   4.1440852  68.4601798  28.5515788
   4.0159135  68.8569971  29.2148450   8.8766255  76.7917108  14.8266362
   8.9586092  77.5984094  14.5027813   9.3615997  76.8113067  15.5507135
   8.9603413  76.9137770  14.8853260   2.6862758  71.4701944  23.4936440
   2.2625007  71.6706443  22.7575458   2.5107614  70.6230792  23.6060739
   2.5973639  71.3750725  23.4010130   2.1874452  82.9852457  25.9557897
   2.6770382  82.2863246  25.7733562   1.6158684  82.6876327  26.5433954
   2.1758982  82.8378681  26.0158938   4.5124348  71.3411879  17.7957775
   5.0539893  70.8382260  18.2596396   4.8270907  71.2877074  16.9847261
   4.6388745  71.2591300  17.7441587   8.3841455  75.5514526  34.9084688
   9.1976321  75.2799675  35.0689820   8.2236422  75.2522066  34.1044883
   8.4811404  75.4669452  34.8130093   5.6613617  66.2348183  27.8480076
   5.8755587  65.5959098  27.2943430   5.0447516  66.6794007  27.4187938
   5.6018947  66.2058327  27.7030507   7.0718285  79.1566932  19.2934297
   6.6798077  78.8533647  18.5757163   7.2271357  79.9936022  19.1039250
   7.0371875  79.2350769  19.1590794   7.8252705  67.8437249  28.7863383
   7.0129387  67.5363139  28.8676556   8.2842640  67.3636249  29.3506095
   7.7733090  67.7273741  28.8817977   7.2357960  75.7216921  19.2340327
   6.8772615  75.8931563  20.0104360   6.7496671  76.1830126  18.6768326
   7.1116657  75.8155892  19.2665596   5.0528346  59.3448119  22.8367419
   4.1821904  59.3186840  22.7900728   5.3068687  59.1725311  22.0193264
   4.9621906  59.3158263  22.7087555   4.9206213  69.2497320  33.5692085
   5.3905844  69.8739436  33.9559959   4.9668093  68.5814296  34.1285300
   4.9974089  69.2432000  33.7092157   2.0777486  61.3554348  24.2940889
   1.5615975  60.6634539  24.4192468   1.5171415  62.0225125  24.2403488
   1.9184000  61.3517605  24.3046955   4.1469720  61.8947308  26.1233742
   3.7601473  61.9196339  26.9047271   3.6602657  61.3288986  25.6708258
   4.0182229  61.8143058  26.1721645   8.3962699  76.6120817  30.1807528
   9.0342420  76.1181012  29.8469984   7.7536791  76.5398217  29.5959755
   8.3956926  76.5279825  30.0449883  10.1219699  68.4609963  24.7473444
   9.6947307  68.3736311  23.9921543   9.4845752  68.5687738  25.3328288
   9.9649307  68.4642622  24.7218885   3.8126862  58.7814293  28.4144001
   4.4419980  59.3174593  28.1365072   3.9812724  58.6891652  29.2657567
   3.9304656  58.8475655  28.4992530   3.6140777  63.5685488  30.6870413
   4.4414206  63.2970637  30.7429028   3.6348623  64.3646329  31.0434231
   3.7393627  63.6465242  30.7485596   8.4516956  77.3040625  26.8212885
   9.2409334  76.9529690  26.9414967   8.6260554  78.1177013  26.5589519
   8.5937238  77.3726482  26.8000753   7.3050780  61.3150182  21.3829303
   7.5100373  61.2472489  22.2286300   6.9777204  62.1209003  21.3150481
   7.2866028  61.4236122  21.4988958   2.0026931  68.6430750  23.1238271
   1.6990069  68.0886738  23.7248679   1.3006352  68.8222960  22.6366305
   1.8543141  68.5875532  23.1407977   1.0593028  65.9531270  17.6882973
   1.3352763  65.2350182  17.2760541   1.6591698  66.5516190  17.4804079
   1.1886293  65.9351640  17.5963734  10.5584468  61.8681946  20.8632069
   9.9458781  62.3552348  21.2485801  10.6548643  61.1925437  21.4069720
  10.4822365  61.8400255  21.0010927   4.5603549  63.6244787  15.9629568
   5.0147295  63.7955347  16.6877413   5.0343595  63.0112898  15.5627344
   4.6971869  63.5595672  16.0103330  14.2009496  72.9398883  26.2909585
  14.2592619  73.3885531  27.0369561  13.5675963  73.3497695  25.8539665
  14.1160791  73.0672617  26.3362133   7.8408590  78.5602424  22.7264331
   7.6428279  79.0493239  22.0320542   7.2196302  78.7643666  23.3048464
   7.7196155  78.6618963  22.7087554   1.9016569  70.3287321  17.0674575
   2.6458614  70.7161598  17.3057525   2.0477265  69.4844747  17.2315063
   2.0327154  70.2617794  17.1268545   3.8196144  62.1237580  22.1006437
   2.9732189  62.2960388  21.9747787   3.8167277  61.3186924  22.4372265
   3.6943294  62.0298609  22.1317564   4.8894445  65.9012795  22.9668495
   4.4154399  65.3754557  23.4773806   5.2612580  65.3542267  22.3983356
   4.8744334  65.7428791  22.9583642  11.1531175  70.9615170  24.3775275
  10.9129398  70.1221585  24.3817702  11.6323182  71.0415337  25.1016049
  11.1883359  70.8496570  24.4850078   6.8177944  66.7949349  16.0294248
   6.2900963  66.8778093  15.3399957   7.2773652  67.5367221  16.0258893
   6.8079795  66.9170012  15.9268944  13.1536362  67.7416627  22.3304534
  12.9146132  67.7012462  21.4925319  13.3170264  68.5887780  22.4570255
  13.1426666  67.8608712  22.2258016   9.7582392  72.1266577  28.2609579
  10.4816591  71.6739103  28.0820599   9.4932355  72.4071242  27.4781907
   9.8263666  72.1017545  28.1188295   5.5401182  72.2250455  26.4104595
   4.9258175  71.6808505  26.7053230   6.0568467  71.7114692  25.9310411
   5.5256844  72.0686864  26.3828823   4.7797479  73.2954725  24.1448893
   4.3525087  72.6704444  23.7114329   4.7722423  73.0129647  24.9707900
   4.7156620  73.1607506  24.2028721   5.8380309  60.4981134  27.7688117
   5.3420870  60.6944808  27.0779683   6.5949371  60.8973802  27.5976918
   5.8767134  60.5858868  27.6408253   3.1083189  64.1723480  24.3591427
   3.1325676  63.6383592  23.6704207   3.3594662  63.6640788  25.0217018
   3.1493107  64.0184384  24.3556072   1.5714124  72.4655038  31.8417466
   0.7209754  72.6026752  31.9775111   1.7342252  71.7318816  32.2865168
   1.4697987  72.3769139  31.9273065  12.1917706  71.0892988  26.7640129
  12.7835547  71.7290238  26.7958327  12.6276701  70.3916024  27.0532196
  12.3436138  71.0811338  26.8120962   0.7914123  64.4891486  13.8699207
   1.1129964  64.0094568  13.2158469   1.0541067  65.2991132  13.6790019
   0.8780149  64.5381384  13.7454699   4.0211096  75.5110360  27.3898023
   3.5136187  76.0646207  27.8338654   3.7237742  75.5718650  26.5716798
   3.9015981  75.6016671  27.3346480   6.1873278  63.8763680  26.2322686
   6.6128350  63.4236206  25.6206212   5.5730272  63.3223750  26.5087474
   6.1601924  63.7277656  26.1827711   4.6267501  60.3478779  19.6413263
   3.9835819  60.1976426  20.2098402   4.2866908  60.1021125  18.8762368
   4.4812579  60.2890902  19.6116278   9.2166848  68.3038206  19.0643272
   8.5458038  68.8467908  18.9356337   9.9106598  68.7733062  18.8224967
   9.2195715  68.4536477  19.0098799   3.2653581  80.4434918  24.2955030
   3.0419236  79.6853748  24.6639056   2.7763425  80.4732939  23.5735470
   3.1597030  80.3357143  24.2431771   9.3794975  64.7594090  21.9733645
   9.7322585  64.3323813  22.6479444   8.5209777  64.6744933  22.1034721
   9.3044420  64.6838831  22.0928655   7.3778241  68.0229458  25.9218487
   7.3576168  67.8412754  26.7753266   7.4257442  68.8941477  25.8978071
   7.3812882  68.1245997  26.0441782   5.3224571  74.6116650  31.8466964
   5.2820426  73.9666327  31.2612120   6.1347889  74.5553268  32.1592376
   5.4367724  74.5075617  31.8063913   1.9132038  80.6635376  21.7492115
   1.4992437  80.0009507  21.3595956   2.5979413  80.8113235  21.2287809
   1.9530410  80.5876035  21.6148612   5.2797333  79.8225462  22.5015731
   4.8813616  79.9327732  21.7336551   4.6648552  80.0307528  23.0842291
   5.1296222  79.8699030  22.4747031   3.8525235  66.4299609  15.3689871
   3.2590074  66.7516606  14.8174438   3.8900512  65.5840705  15.1610977
   3.7699624  66.3523938  15.2572642  10.8119035  59.8812502  22.9017957
  10.3049900  59.1741641  22.8339135  11.6086469  59.5505691  23.0319034
  10.8546274  59.7285653  22.9116952   6.7283051  66.3879114  18.7991621
   6.4996744  66.4111815  17.9569979   6.9881127  65.5636581  18.9186632
   6.7329239  66.2695194  18.6916819  13.0139175  74.3977428  15.8858822
  13.3972781  75.1468784  16.1156919  12.2183289  74.6443248  15.6270811
  12.9532957  74.5447122  15.8816395   4.8871350  66.1637832  30.8418977
   5.4442780  65.9351641  30.2097442   4.5632415  66.9243497  30.5654189
   4.9217760  66.2421668  30.7075474   2.6054467  69.2505485  31.8070984
   3.3565794  69.5657162  32.1210538   2.7977044  69.0484656  30.9804906
   2.7445881  69.2672867  31.7314380   9.4539757  65.3779051  19.0494779
   9.4533984  65.2227708  19.9079056   9.2495937  66.2242038  18.9936165
   9.4239535  65.4799672  19.1682719   7.1780609  70.0576553  22.7030986
   7.6734275  69.3399548  22.6635007   6.3680385  69.7547351  22.5885473
   7.1324503  69.9074199  22.6804712   9.2432428  72.8080241  25.3908115
   9.6687500  72.2854662  24.8378540   8.8789348  73.4061078  24.8696738
   9.2519031  72.8190468  25.2317125   5.8311028  76.5214505  21.7209273
   6.3022206  77.2354767  21.8899258   6.1671206  75.9213255  22.2569142
   5.9506143  76.5385969  21.8241648   7.9188012  78.1315818  33.9001345
   8.0284978  77.3424379  34.2558092   8.2478909  78.0421754  33.0975683
   7.9840418  78.0021671  33.8343735   2.7480523  61.2941975  28.6767367
   2.8808428  60.4972969  29.0048343   3.1325675  61.8208378  29.2565643
   2.8236851  61.2541892  28.8110870   6.4684974  76.3132439  28.4836965
   5.9205920  75.6890323  28.2157030   6.9298003  76.5026711  27.7681045
   6.4552183  76.2491489  28.3387396   5.8212878  58.2172302  25.2748461
   5.0158842  58.1070031  25.5916299   5.6919613  58.3184757  24.4178326
   5.6833011  58.2155972  25.1956501   9.2778838  64.3817793  25.8688157
   8.6941827  64.8827000  25.4565725   9.5983132  63.8747350  25.2352481
   9.2392014  64.3809628  25.7146665   1.8173638  63.2958388  16.1446832
   2.6389332  63.4656701  15.9028527   1.3543288  63.4505649  15.4213130
   1.8704800  63.3440121  16.0018477   6.0343300  77.3183512  25.0146306
   6.8541674  77.1746478  25.2762602   5.7537378  77.9429711  25.5562744
   6.1140044  77.3893864  25.1334246  22.5056951  84.9748363  17.9789183
  22.4750955  85.8293000  18.1507452  23.1038299  84.6743656  18.5375326
  22.5894109  85.0564860  18.0863985  15.7056636  84.0624014  22.7342113
  14.8494531  84.2232513  22.7851230  15.7524289  83.1916078  22.7547174
  15.5855747  83.9574816  22.7448179  19.0150352  90.3310540  32.3402569
  19.7217119  89.8362571  32.4689504  19.2038288  90.7719621  31.6105227
  19.1478258  90.3228890  32.2511615  15.0827026  95.9726370  19.8676003
  15.4666406  96.5413269  19.3280779  15.0186168  95.2475881  19.3881819
  15.1300454  95.9501834  19.7169866  18.5508457  86.1216058  25.3773765
  19.0964417  86.8001145  25.4367734  18.4925333  85.9803519  24.5175346
  18.6224371  86.2008060  25.2585825  20.3273525  87.5500665  16.2507493
  20.2113051  88.3008351  16.6799631  21.1229412  87.2924619  16.5003580
  20.4278115  87.6235512  16.3511584   7.1637663  81.8011142  23.2878759
   6.5442695  81.2103789  23.1188773   7.0621527  82.3922577  22.6543082
   7.0575339  81.8015224  23.1683748  14.2605559  83.5410683  17.6211222
  14.9585724  83.7198811  18.1132685  14.5757891  83.0181023  16.9981611
  14.4100896  83.4904455  17.6013232   6.8906796  85.3463423  25.5322328
   6.7665493  85.9325869  26.1672146   7.5425081  84.8523619  25.8334603
   6.9680446  85.3602228  25.6708257  14.4493494  89.9281128  17.6091013
  14.8887130  89.3198229  18.0545786  14.2998157  89.5488502  16.8376478
  14.4914960  89.7819600  17.5610181  11.9165137  88.5225140  24.8109839
  12.5614140  88.0297583  24.4920787  12.1566914  88.6649927  25.6375917
  12.0475722  88.4702582  24.8859372  14.4551229  91.3680046  24.4616731
  14.7374471  90.5731452  24.2403487  15.1837389  91.8460634  24.4821792
  14.6040792  91.3214643  24.4319746  12.4332422  78.9103080  21.7032496
  12.1035752  79.3614224  21.0336195  11.7577424  78.8319243  22.2505503
  12.2842859  78.9654215  21.6855720  18.0502831  88.2808310  14.5621782
  17.9654126  89.1369276  14.7071351  18.5387214  88.0052634  15.2303942
  18.1091728  88.3665631  14.6823864  19.6408830  74.8988603  19.9482107
  19.3262271  75.5892082  20.3802529  19.1235772  74.8433385  19.2467608
  19.5173301  74.9923491  19.9079056  18.9821264  84.8993104  16.0619518
  18.4532735  85.1152737  16.7216824  19.5046284  85.5929242  15.9820487
  18.9809717  85.0336241  16.1475117  24.4369317  90.4739408  21.4352562
  23.6067020  90.6850052  21.5985979  24.3878569  89.6476463  21.1594846
  24.3076052  90.3829015  21.4189927  12.4979054  93.3043262  24.2700472
  11.9805996  92.9450677  23.6661780  13.1953446  92.7805437  24.2806538
  12.5244636  93.1740950  24.1830730  16.1542646  93.7538077  30.2316645
  16.2425992  93.5664217  31.0794855  16.5832359  93.1075506  29.8321491
  16.2304749  93.6301084  30.2988396  13.7213106  93.0369236  29.2134307
  13.1583941  92.6241846  29.7373968  14.4834130  92.9622142  29.6327450
  13.7507555  92.9646637  29.3527307  15.3298086  85.0421973  13.3395906
  15.5694090  85.2499956  12.5271249  15.6513927  84.2379481  13.4484851
  15.4135244  84.9536074  13.2356459  10.6388376  76.9715368  17.1855444
  11.3934344  77.3393685  16.9472494  10.4615911  77.3454923  17.9534624
  10.7242855  77.0813556  17.2640333  23.9323275  83.1209809  25.2302983
  23.0951696  83.1911996  25.4650578  23.9011506  83.1234304  24.3577286
  23.8041558  83.1320036  25.1362531  10.3288004  85.2642845  30.9451352
  10.5008508  85.1548739  31.7936633  10.8657362  85.9097250  30.7082544
  10.4333008  85.3434846  31.0356449   9.2312576  91.6374485  25.6269850
   9.7710801  91.4945616  26.2973223   8.5482522  92.0371236  25.9953877
   9.2104730  91.6754156  25.7804272  14.6745160  76.3812098  16.9182581
  15.4031321  76.2028053  16.4720737  14.7640053  77.2230178  17.1289759
  14.7951822  76.4795976  16.8836099  18.6553461  87.3165485  20.8214875
  19.4110976  87.7497000  20.8603784  18.7615785  86.6670255  21.3949511
  18.7823632  87.2842969  20.9112900  21.6933632  91.1438763  21.5717278
  21.2568864  91.1475505  22.3276249  21.3596548  91.8244262  21.1396855
  21.5796252  91.2451219  21.6198110  16.2662706  93.1847096  32.8960428
  17.0503122  93.2977943  33.2616170  16.0659300  92.3588233  33.0919114
  16.3528731  93.0793815  32.9794814   4.6349721  87.8574776  25.7804272
   4.3688136  87.0413892  25.9395262   4.6488285  87.9027931  24.9099788
   4.5974443  87.7431680  25.6757754  21.6131115  78.1852591  23.8146706
  22.2557023  78.2550695  24.4008621  21.8654136  77.5181813  23.3126248
  21.7453247  78.0978939  23.8273985   9.3848328  81.3953154  28.4271280
   8.6920124  80.9250134  28.6732011  10.0008655  81.1691458  29.0012987
   9.3732857  81.2920286  28.5480432  16.4233099  95.0957198  26.5426884
  15.6248345  94.8556698  26.8000752  16.8719111  95.1471590  27.2893931
  16.3707710  95.0679589  26.6911808  24.8277978  87.8619683  20.4636915
  25.4894412  87.3010351  20.3632824  24.1869390  87.3671713  20.7889606
  24.8306846  87.7056092  20.4969255  21.1142809  88.8785065  20.2048904
  21.3498398  89.0230264  19.3775754  21.2632373  89.6427473  20.5980417
  21.1708612  89.0124119  20.1412508   8.1088886  85.3618558  29.5698125
   8.8328859  85.3471589  30.0563020   8.2105023  86.0713913  29.0720093
   8.2307096  85.4643261  29.5676912  22.9433266  87.7186731  18.0418508
  23.2741483  88.2514371  17.4358602  23.5166354  87.7725619  18.6980459
  23.0766945  87.8056300  18.0496289  15.4833836  88.8417643  34.4347072
  14.6906817  89.1561154  34.6199692  15.5982763  89.0569111  33.5967857
  15.3829246  88.9201479  34.3385407  18.1565155  85.5651634  18.7242088
  18.2512009  86.3040928  19.1781713  17.5323998  85.1369109  19.1576652
  18.0774185  85.6112954  18.8550235  16.4117629  88.7437846  29.3732369
  16.9856490  88.1065090  29.5280933  16.3332432  88.7441929  28.5042026
  16.4850864  88.6502958  29.2678780   5.0114045  85.5227056  23.2115083
   5.5887548  85.3863506  23.8507328   4.3128107  85.0662840  23.4660667
   4.9935067  85.4349322  23.3437373  18.4088176  87.4100373  11.9579040
  18.3268339  87.4802561  12.8234027  19.0467897  87.9730117  11.7662780
  18.4908014  87.5039345  12.0568989  11.7681347  87.1761111  21.4253566
  11.5100592  86.3432846  21.3984866  11.8229830  87.4018724  20.5846066
  11.7381125  87.0858883  21.2973703  16.8482397  79.2789562  21.5257659
  16.1438724  78.7898748  21.6841578  16.8967372  79.2912037  20.6546103
  16.7512449  79.2079210  21.4196999  10.7416059  84.7298874  21.9118461
  10.1665651  84.8891042  22.5482422  10.3651736  84.0934283  21.4486911
  10.6018872  84.6596687  21.9373019  14.4089348  83.2022223  26.7710839
  14.0203781  82.7776441  26.1163030  13.7444046  83.4504373  27.2787866
  14.2536276  83.1760944  26.7498707  24.0512617  82.9597228  19.5458669
  23.7949182  82.1477169  19.3556552  24.8941931  82.9674795  19.3188857
  24.1378643  82.8409225  19.4843486  18.2315710  76.8996852  24.2834823
  18.6126221  76.2175023  24.6702698  17.4278994  76.6106454  24.1010488
  18.1692171  76.7563900  24.3138879  15.5128286  87.4320828  14.9687646
  16.3268925  87.7235721  14.8570418  15.4487428  86.7780690  14.3945939
  15.6231025  87.3786022  14.8676484  21.7337777  90.1146824  29.3817222
  21.4976414  89.2834889  29.2629282  22.3781005  90.0632431  29.9672066
  21.7932447  89.9844512  29.4503115  11.3836195  90.9042345  20.0959958
  12.0210142  90.6654093  20.6411752  11.8091266  91.1079504  19.3613119
  11.5412361  90.8993355  20.0677116  12.1907550  79.4051050  34.1497432
  11.8760991  80.1750613  33.8866995  11.8697483  78.8421306  33.5649659
  12.0966469  79.4361319  34.0238782  22.7574197  89.8991273  25.4445516
  22.4520014  90.6319329  25.8058832  22.0380413  89.4929202  25.1638302
  22.6061539  89.9473006  25.4558653  13.7657667  91.3814768  21.7753745
  13.8396675  91.2189940  22.6295594  14.5827173  91.5704957  21.5314226
  13.8974025  91.3851510  21.8651770  28.4575989  86.5384273  24.7713861
  28.3900490  86.5580232  23.9016447  28.4431652  87.3814601  24.9969531
  28.4454746  86.6658008  24.6766337   9.7439447  77.7941572  19.7643628
   8.8761872  77.8664171  19.8301237  10.0314651  78.5963651  19.9531603
   9.6579195  77.9235719  19.8018395  18.8672336  77.9419431  28.0954950
  19.6125928  77.7529241  27.6818375  18.4509640  78.4677669  27.5368806
  18.9157310  77.9921576  27.9519523  26.2434607  85.3128660  23.0460455
  26.7942528  84.6796729  23.2857547  26.2278722  85.8444052  23.7375959
  26.3219803  85.2977608  23.1839313  12.8956997  89.1467257  27.5920348
  12.3968691  89.8583024  27.6705237  13.7057222  89.4667923  27.5538511
  12.9413104  89.2994105  27.5976917   9.1585115  88.4090210  21.8383069
   8.8698364  87.7827681  22.3728797  10.0268463  88.3510497  21.9047750
   9.2445367  88.3077754  21.9274024  19.9463013  83.5524993  22.1565051
  19.6027779  82.8315328  22.5072301  20.0456055  83.3438844  21.3143409
  19.9105056  83.4149196  22.0836731  20.4076042  90.0150697  17.6989039
  20.9734075  90.6743907  17.6147582  19.7603945  90.3600395  18.1705441
  20.3954798  90.1632639  17.7561796  11.8224055  82.0048301  32.8882647
  11.0123831  82.3106081  32.7772489  12.2998742  82.7253884  33.0035231
  11.7727534  82.1562902  32.8889718  10.6815615  91.2194022  23.1365550
  10.1596369  91.3594314  23.8217414  11.0689635  90.4604686  23.3267667
  10.6619316  91.1279546  23.2666626   7.6706799  81.2699831  17.2060504
   7.3831595  80.9001101  16.4692452   8.3577267  81.7394686  16.9444209
   7.7295696  81.2846800  17.0575580  16.8782620  92.9589481  17.1226119
  16.6369296  92.2257342  16.7153183  17.0583953  93.5076338  16.4692452
  16.8690244  92.9311873  16.9656341  12.1081941  88.2498041  18.5347041
  11.9124723  88.8572776  17.9407344  12.3316286  87.5565985  18.0538715
  12.1116582  88.2375567  18.3763122  10.5060471  85.1352779  18.6527909
  11.2283123  85.2993937  18.1931715  10.0268463  85.8562444  18.5467249
  10.5424201  85.2651009  18.5693523  18.4653978  81.4716578  24.0324594
  17.6265079  81.4977857  23.7962857  18.5358346  82.1187313  24.6129941
  18.3522372  81.5712704  24.0833711   8.1568087  87.5410852  27.7582049
   8.6689184  87.8195105  27.1090809   7.8704430  88.2800146  28.1244862
   8.1902951  87.6913205  27.7171927  16.9123257  78.3701955  18.7652210
  17.6149609  78.1709703  18.2872168  16.6467445  77.5977897  19.0721053
  16.9769889  78.2264921  18.7397652  22.3411502  86.6784565  21.3185836
  22.2545477  86.8339991  22.1720615  21.8861982  87.3222640  20.9445241
  22.2614759  86.7960320  21.3892943  11.6751813  79.6337240  27.8183091
  11.4835010  79.6492375  28.6682514  12.5250409  79.8300914  27.7949745
  11.7727535  79.6651591  27.9406385   6.0598726  82.1628222  25.7966907
   5.9184218  81.3112162  25.9211415   6.3439289  82.2056882  24.9729113
   6.0806572  82.0427972  25.6934531  16.2137318  83.9995312  19.9411395
  15.9672032  83.9191063  20.7748184  16.5422441  83.2148780  19.7473923
  16.2258562  83.8721577  20.0358918  20.1085367  90.7078671  23.7298177
  19.9699726  91.4059717  24.2346919  19.3285365  90.5527328  23.3734358
  19.9728594  90.7878838  23.7524451  18.4463452  87.0075047  29.9820558
  18.4411491  86.1354863  29.9862985  19.1524446  87.2063216  29.5090014
  18.5508456  86.9078921  29.9127594  12.1734345  86.7352030  29.3534378
  12.3177721  87.3153239  28.7177488  12.5209994  87.1128327  30.0584233
  12.2461807  86.8772734  29.3633373  14.3454263  85.9342199  27.1359510
  13.5977577  86.1273213  26.7307788  14.4995788  85.1087418  26.8983631
  14.2576690  85.8407310  27.0404916  11.2462100  94.9254802  26.2195405
  11.3951664  94.3657718  25.5668810  12.0262103  95.0046804  26.6027924
  11.3836194  94.8540368  26.1792354  21.6038740  90.0656925  14.4914676
  21.2245549  89.2794063  14.4843965  20.9404985  90.6143782  14.3486320
  21.4497215  90.0301749  14.4695473  13.7715401  95.0969445  27.4979896
  13.6959072  94.4278256  28.0530684  13.7005260  95.7987233  28.0120562
  13.7496008  95.1014352  27.6556744  14.5856040  79.8292749  28.0254914
  15.0428654  80.5616724  28.1527706  14.6612369  79.4059215  28.7842170
  14.6647010  79.8749988  28.1555990   6.8289031  80.0758569  29.1144357
   6.2931221  79.4638927  29.4305125   6.8906796  80.6506705  29.7678024
   6.7584664  80.0705497  29.2579784  19.0583366  73.0082625  21.8948757
  19.1766934  73.4659088  21.1616059  18.8845541  72.2027886  21.6084974
  19.0502537  72.9576397  21.7449690  14.4285648  93.6170444  18.3303502
  15.1935539  93.3480088  18.0086166  14.3263738  93.1320454  19.0473565
  14.5267143  93.5060009  18.3883330  12.4638418  81.8194853  24.8696738
  11.6734493  81.6386314  25.1914074  12.8599041  81.0421806  24.8527032
  12.4055294  81.6782314  24.9149286  17.8482104  89.4537284  22.5956184
  17.1727106  89.2222516  23.0969571  17.8574480  88.8458467  21.9698289
  17.7500609  89.3296209  22.5772336  14.9776248  84.2955113  29.3520237
  14.9135389  85.1565069  29.2240373  15.1173436  83.9787106  28.5515788
  14.9891718  84.3755279  29.2148450  19.8498839  92.3102416  14.8266362
  19.9318676  93.1169402  14.5027813  20.3348581  92.3298375  15.5507135
  19.9335997  92.4323078  14.8853260  13.6595342  86.9887252  23.4936440
  13.2357591  87.1891751  22.7575458  13.4840197  86.1416100  23.6060739
  13.5706223  86.8936033  23.4010130  13.1607035  98.5037765  25.9557897
  13.6502966  97.8048554  25.7733562  12.5891268  98.2061635  26.5433954
  13.1491565  98.3563989  26.0158938  15.4856931  86.8597187  17.7957775
  16.0272477  86.3567568  18.2596396  15.8003491  86.8062382  16.9847261
  15.6121329  86.7776608  17.7441587  19.3574039  91.0699834  34.9084688
  20.1708904  90.7984983  35.0689820  19.1969005  90.7707374  34.1044883
  19.4543987  90.9854760  34.8130093  16.6346201  81.7533491  27.8480076
  16.8488170  81.1144406  27.2943430  16.0180100  82.1979315  27.4187938
  16.5751530  81.7243635  27.7030507  18.0450869  94.6752240  19.2934297
  17.6530661  94.3718955  18.5757163  18.2003941  95.5121330  19.1039250
  18.0104459  94.7536076  19.1590794  18.7985289  83.3622557  28.7863383
  17.9861971  83.0548447  28.8676556  19.2575223  82.8821557  29.3506095
  18.7465674  83.2459049  28.8817977  18.2090544  91.2402229  19.2340327
  17.8505198  91.4116871  20.0104360  17.7229254  91.7015434  18.6768326
  18.0849240  91.3341200  19.2665596  16.0260930  74.8633427  22.8367419
  15.1554487  74.8372148  22.7900728  16.2801271  74.6910619  22.0193264
  15.9354490  74.8343571  22.7087555  15.8938796  84.7682628  33.5692085
  16.3638428  85.3924744  33.9559959  15.9400677  84.0999604  34.1285300
  15.9706672  84.7617308  33.7092157  13.0510070  76.8739655  24.2940889
  12.5348559  76.1819847  24.4192468  12.4903999  77.5410433  24.2403488
  12.8916583  76.8702913  24.3046955  15.1202303  77.4132616  26.1233742
  14.7334057  77.4381647  26.9047271  14.6335241  76.8474294  25.6708258
  14.9914812  77.3328366  26.1721645  19.3695283  92.1306125  30.1807528
  20.0075003  91.6366320  29.8469984  18.7269374  92.0583525  29.5959755
  19.3689509  92.0465133  30.0449883  21.0952283  83.9795270  24.7473444
  20.6679891  83.8921619  23.9921543  20.4578336  84.0873046  25.3328288
  20.9381890  83.9827930  24.7218885  14.7859445  74.2999601  28.4144001
  15.4152563  74.8359901  28.1365072  14.9545308  74.2076960  29.2657567
  14.9037240  74.3660963  28.4992530  14.5873360  79.0870796  30.6870413
  15.4146789  78.8155945  30.7429028  14.6081206  79.8831637  31.0434231
  14.7126210  79.1650550  30.7485596  19.4249540  92.8225933  26.8212885
  20.2141918  92.4714998  26.9414967  19.5993137  93.6362321  26.5589519
  19.5669821  92.8911790  26.8000753   9.1642850  86.2334659  23.8740674
   8.3230856  86.1338533  24.0819568   9.3732858  87.0030139  24.2254994
   9.0707542  86.3326702  23.9567989   6.6418417  83.8554195  21.7025424
   6.2475115  83.9297207  20.9275534   6.0858534  84.2412142  22.2533786
   6.5021229  83.9235970  21.6693084  18.2783364  76.8335489  21.3829303
  18.4832957  76.7657797  22.2286300  17.9509788  77.6394311  21.3150481
  18.2598612  76.9421430  21.4988958  12.9759515  84.1616058  23.1238271
  12.6722652  83.6072046  23.7248679  12.2738936  84.3408268  22.6366305
  12.8275725  84.1060840  23.1407977  12.0325612  81.4716578  17.6882973
  12.3085346  80.7535490  17.2760541  12.6324281  82.0701497  17.4804079
  12.1618877  81.4536948  17.5963734  11.0377866  91.3765778  27.8310369
  10.9298221  91.3867841  28.6972427  11.2473647  92.2020559  27.6415323
  11.0527977  91.5006853  27.9314461  21.5317051  77.3867254  20.8632069
  20.9191365  77.8737656  21.2485801  21.6281226  76.7110745  21.4069720
  21.4554949  77.3585562  21.0010927  15.5336132  79.1430095  15.9629568
  15.9879879  79.3140655  16.6877413  16.0076178  78.5298206  15.5627344
  15.6704453  79.0780980  16.0103330   9.0551658  88.6278421  25.2932307
   8.4639591  89.2687919  25.2635322   9.8172681  89.0516038  25.2663606
   9.0799918  88.7854259  25.2847454   9.4512281  79.7880419  25.9600324
   9.9113762  79.8619348  26.6975448   9.4968387  80.5861673  25.6100146
   9.5262836  79.9174566  26.0173081  11.0995630  80.4547113  30.5272351
  10.7081195  79.8080461  30.9628129  11.2681493  81.0458549  31.1466607
  11.0666541  80.4461381  30.6835057  25.1742079  88.4584191  26.2909585
  25.2325203  88.9070839  27.0369561  24.5408547  88.8683003  25.8539665
  25.0893374  88.5857925  26.3362133  18.8141174  94.0787732  22.7264331
  18.6160863  94.5678547  22.0320542  18.1928885  94.2828974  23.3048464
  18.6928738  94.1804271  22.7087554  12.8749152  85.8472629  17.0674575
  13.6191197  86.2346906  17.3057525  13.0209849  85.0030055  17.2315063
  13.0059737  85.7803102  17.1268545  14.7928728  77.6422888  22.1006437
  13.9464773  77.8145696  21.9747787  14.7899860  76.8372232  22.4372265
  14.6675878  77.5483917  22.1317564  15.8627028  81.4198103  22.9668495
  15.3886982  80.8939865  23.4773806  16.2345164  80.8727575  22.3983356
  15.8476917  81.2614099  22.9583642   6.2400058  83.4169609  28.3352040
   7.1025671  83.3165318  28.2489370   5.9091841  82.8364319  27.7737613
   6.3185255  83.3161236  28.2397446  22.1263759  86.4800478  24.3775275
  21.8861982  85.6406893  24.3817702  22.6055766  86.5600645  25.1016049
  22.1615942  86.3681878  24.4850078  17.7910528  82.3134657  16.0294248
  17.2633547  82.3963401  15.3399957  18.2506236  83.0552529  16.0258893
  17.7812378  82.4355320  15.9268944  24.1268946  83.2601935  22.3304534
  23.8878716  83.2197770  21.4925319  24.2902847  84.1073087  22.4570255
  24.1159249  83.3794020  22.2258016  20.7314976  87.6451885  28.2609579
  21.4549175  87.1924411  28.0820599  20.4664938  87.9256550  27.4781907
  20.7996249  87.6202853  28.1188295   9.6001844  82.2412058  24.9962459
   8.9754915  82.2530450  24.3888411   9.2647439  82.7172233  25.6453699
   9.4587336  82.3130575  25.0019027   6.3127520  90.3012518  26.4366223
   5.7827444  89.6104957  26.4861198   6.5852613  90.2922704  25.6078931
   6.2752242  90.1979650  26.3213639  16.5133765  87.7435763  26.4104595
  15.8990759  87.1993813  26.7053230  17.0301050  87.2299999  25.9310411
  16.4989428  87.5872172  26.3828823  15.7530063  88.8140033  24.1448893
  15.3257671  88.1889752  23.7114329  15.7455007  88.5314955  24.9707900
  15.6889204  88.6792814  24.2028721   8.8692590  83.8505206  27.2137327
   9.0286076  83.0948530  27.6189049   8.6885483  84.3996146  27.8678065
   8.8657949  83.8199020  27.3700033  16.8112893  76.0166442  27.7688117
  16.3153454  76.2130116  27.0779683  17.5681955  76.4159110  27.5976918
  16.8499717  76.1044175  27.6408253  14.0815772  79.6908788  24.3591427
  14.1058259  79.1568900  23.6704207  14.3327246  79.1826096  25.0217018
  14.1225691  79.5369691  24.3556072  10.3617095  78.4179606  23.7397171
  10.4015466  78.9188812  24.4531879   9.5366759  78.5089999  23.4703095
  10.2456620  78.5061422  23.8047710  12.5446707  87.9840346  31.8417466
  11.6942338  88.1212060  31.9775111  12.7074835  87.2504124  32.2865168
  12.4430571  87.8954447  31.9273065  11.7831458  84.9340116  26.0371070
  10.9523388  85.1013934  25.8306319  11.7282975  84.5576066  26.8219956
  11.6520873  84.9029847  26.1219599   9.5915241  78.4249009  31.6727481
  10.2167945  77.8811141  31.9456913   9.1365721  77.9443926  31.1035272
   9.6163502  78.2738490  31.6289075  10.1567502  83.2095707  16.5661188
  10.2970463  83.7068171  17.2689830  10.6550035  82.5082002  16.7075402
  10.2508583  83.1797686  16.6912767  23.1650290  86.6078296  26.7640129
  23.7568130  87.2475546  26.7958327  23.6009284  85.9101332  27.0532196
  23.3168721  86.5996646  26.8120962  11.7646707  80.0076794  13.8699207
  12.0862548  79.5279876  13.2158469  12.0273651  80.8176440  13.6790019
  11.8512732  80.0566691  13.7454699  14.9943680  91.0295668  27.3898023
  14.4868771  91.5831515  27.8338654  14.6970326  91.0903958  26.5716798
  14.8748565  91.1201979  27.3346480  17.1605862  79.3948988  26.2322686
  17.5860934  78.9421514  25.6206212  16.5462855  78.8409058  26.5087474
  17.1334507  79.2462964  26.1827711  15.6000085  75.8664087  19.6413263
  14.9568403  75.7161734  20.2098402  15.2599492  75.6206433  18.8762368
  15.4545162  75.8076210  19.6116278  20.1899431  83.8223514  19.0643272
  19.5190621  84.3653216  18.9356337  20.8839182  84.2918369  18.8224967
  20.1928299  83.9721785  19.0098799  14.2386165  95.9620226  24.2955030
  14.0151819  95.2039055  24.6639056  13.7496008  95.9918247  23.5735470
  14.1329614  95.8542451  24.2431771  20.3527559  80.2779398  21.9733645
  20.7055169  79.8509121  22.6479444  19.4942360  80.1930241  22.1034721
  20.2777003  80.2024138  22.0928655   9.0511244  82.9086917  20.0316491
   8.3323233  83.3251050  20.2989355   9.4223606  83.4741156  19.4808130
   9.0003176  83.0536199  19.9899298  18.3510825  83.5414766  25.9218487
  18.3308752  83.3598062  26.7753266  18.3990025  84.4126785  25.8978071
  18.3545466  83.6431305  26.0441782  16.2957154  90.1301958  31.8466964
  16.2553009  89.4851635  31.2612120  17.1080473  90.0738576  32.1592376
  16.4100308  90.0260925  31.8063913  12.8864622  96.1820684  21.7492115
  12.4725021  95.5194815  21.3595956  13.5711996  96.3298543  21.2287809
  12.9262994  96.1061342  21.6148612  16.2529916  95.3410770  22.5015731
  15.8546199  95.4513040  21.7336551  15.6381136  95.5492836  23.0842291
  16.1028805  95.3884338  22.4747031  14.8257818  81.9484917  15.3689871
  14.2322657  82.2701914  14.8174438  14.8633096  81.1026013  15.1610977
  14.7432207  81.8709246  15.2572642  21.7851619  75.3997810  22.9017957
  21.2782484  74.6926949  22.8339135  22.5819053  75.0690998  23.0319034
  21.8278858  75.2470961  22.9116952  17.7015635  81.9064422  18.7991621
  17.4729328  81.9297123  17.9569979  17.9613711  81.0821889  18.9186632
  17.7061823  81.7880502  18.6916819  11.9834863  83.7598895  28.4016721
  11.4713766  83.1520078  28.7601753  11.8114359  84.4755487  28.8690697
  11.8824500  83.7762194  28.5232945   6.8300578  82.2036470  31.0519083
   6.6603168  82.8637845  30.5067290   6.3866528  82.4143031  31.7731572
   6.7399911  82.3322452  31.0780713  10.7560397  80.4440968  20.0945817
  11.2317763  80.8058048  19.4595998  10.2548997  81.0997436  20.3745960
  10.7525756  80.5935157  20.0422558  23.9871759  89.9162736  15.8858822
  24.3705365  90.6654092  16.1156919  23.1915872  90.1628556  15.6270811
  23.9265541  90.0632430  15.8816395  15.8603933  81.6823140  30.8418977
  16.4175364  81.4536949  30.2097442  15.5364999  82.4428805  30.5654189
  15.8950344  81.7606976  30.7075474   3.7302642  85.1083336  26.3107573
   3.1829362  84.4383981  26.4288441   4.5195021  84.7413184  26.3751040
   3.7654826  84.9548322  26.3376274  13.5787051  84.7690793  31.8070984
  14.3298378  85.0842470  32.1210538  13.7709627  84.5669964  30.9804906
  13.7178465  84.7858175  31.7314380  20.4272341  80.8964359  19.0494779
  20.4266567  80.7413016  19.9079056  20.2228521  81.7427346  18.9936165
  20.3972119  80.9984980  19.1682719   2.4889612  84.3204144  23.4653596
   2.3111373  83.8680753  24.1908512   2.2008634  85.1230305  23.6492074
   2.4202565  84.3726701  23.5997099  18.1513193  85.5761861  22.7030986
  18.6466858  84.8584856  22.6635007  17.3412969  85.2732659  22.5885473
  18.1057086  85.4259507  22.6804712  20.2165012  88.3265548  25.3908115
  20.6420083  87.8039970  24.8378540  19.8521932  88.9246386  24.8696738
  20.2251614  88.3375776  25.2317125   9.8519092  96.6229766  24.1505461
  10.1665651  97.4366154  24.1583242  10.2612505  96.2379985  24.8187620
   9.9587190  96.6858468  24.2509552  16.8043611  92.0399813  21.7209273
  17.2754789  92.7540075  21.8899258  17.1403790  91.4398563  22.2569142
  16.9238726  92.0571277  21.8241648  18.8920596  93.6501126  33.9001345
  19.0017561  92.8609687  34.2558092  19.2211492  93.5607062  33.0975683
  18.9573002  93.5206979  33.8343735  13.7213106  76.8127283  28.6767367
  13.8541012  76.0158277  29.0048343  14.1058259  77.3393686  29.2565643
  13.7969435  76.7727200  28.8110870  17.4417558  91.8317747  28.4836965
  16.8938504  91.2075631  28.2157030  17.9030586  92.0212019  27.7681045
  17.4284767  91.7676797  28.3387396  16.7945461  73.7357609  25.2748461
  15.9891425  73.6255339  25.5916299  16.6652197  73.8370065  24.4178326
  16.6565594  73.7341280  25.1956501  20.2511422  79.9003101  25.8688157
  19.6674411  80.4012308  25.4565725  20.5715716  79.3932658  25.2352481
  20.2124597  79.8994936  25.7146665  12.7906221  78.8143696  16.1446832
  13.6121915  78.9842009  15.9028527  12.3275872  78.9690957  15.4213130
  12.8437383  78.8625429  16.0018477  11.3801553  76.8086458  26.9245261
  11.9245966  76.4677585  27.5149603  11.4338489  77.6671920  27.0666546
  11.4690672  76.8841718  27.0327134   7.1932112  90.5702874  23.7984069
   7.7976969  90.5298709  23.1697890   6.9859424  91.4174026  23.8288125
   7.2521009  90.6890877  23.7100186  17.0075884  92.8368820  25.0146306
  17.8274258  92.6931786  25.2762602  16.7269962  93.4615018  25.5562744
  17.0872627  92.9079172  25.1334246  33.4789534 100.4933671  17.9789183
  33.4483539 101.3478308  18.1507452  34.0770883 100.1928964  18.5375326
  33.5626692 100.5750168  18.0863985  26.6789219  99.5809322  22.7342113
  25.8227115  99.7417821  22.7851230  26.7256873  98.7101386  22.7547174
  26.5588331  99.4760124  22.7448179  29.9882936 105.8495848  32.3402569
  30.6949703 105.3547879  32.4689504  30.1770871 106.2904929  31.6105227
  30.1210841 105.8414198  32.2511615  26.0559610 111.4911678  19.8676003
  26.4398989 112.0598577  19.3280779  25.9918751 110.7661189  19.3881819
  26.1033037 111.4687142  19.7169866  29.5241040 101.6401366  25.3773765
  30.0697000 102.3186453  25.4367734  29.4657916 101.4988827  24.5175346
  29.5956954 101.7193368  25.2585825  31.3006109 103.0685973  16.2507493
  31.1845635 103.8193659  16.6799631  32.0961995 102.8109927  16.5003580
  31.4010698 103.1420820  16.3511584  18.1370247  97.3196450  23.2878759
  17.5175278  96.7289097  23.1188773  18.0354110  97.9107885  22.6543082
  18.0307922  97.3200532  23.1683748  25.2338142  99.0595991  17.6211222
  25.9318307  99.2384119  18.1132685  25.5490475  98.5366331  16.9981611
  25.3833480  99.0089763  17.6013232  17.8639380 100.8648731  25.5322328
  17.7398077 101.4511177  26.1672146  18.5157664 100.3708927  25.8334603
  17.9413029 100.8787536  25.6708257  25.4226078 105.4466436  17.6091013
  25.8619713 104.8383537  18.0545786  25.2730741 105.0673810  16.8376478
  25.4647543 105.3004907  17.5610181  22.8897721 104.0410448  24.8109839
  23.5346723 103.5482891  24.4920787  23.1299498 104.1835235  25.6375917
  23.0208306 103.9887890  24.8859372  25.4283812 106.8865354  24.4616731
  25.7107055 106.0916760  24.2403487  26.1569973 107.3645941  24.4821792
  25.5773376 106.8399951  24.4319746  23.4065006  94.4288388  21.7032496
  23.0768336  94.8799532  21.0336195  22.7310008  94.3504551  22.2505503
  23.2575442  94.4839523  21.6855720  29.0235414 103.7993618  14.5621782
  28.9386709 104.6554584  14.7071351  29.5119798 103.5237942  15.2303942
  29.0824312 103.8850939  14.6823864  30.6141414  90.4173911  19.9482107
  30.2994855  91.1077389  20.3802529  30.0968355  90.3618693  19.2467608
  30.4905884  90.5108799  19.9079056  29.9553848 100.4178412  16.0619518
  29.4265319 100.6338045  16.7216824  30.4778867 101.1114550  15.9820487
  29.9542301 100.5521549  16.1475117  35.4101900 105.9924716  21.4352562
  34.5799604 106.2035360  21.5985979  35.3611153 105.1661771  21.1594846
  35.2808636 105.9014323  21.4189927  23.4711638 108.8228570  24.2700472
  22.9538580 108.4635985  23.6661780  24.1686029 108.2990745  24.2806538
  23.4977219 108.6926258  24.1830730  27.1275230 109.2723384  30.2316645
  27.2158576 109.0849525  31.0794855  27.5564943 108.6260814  29.8321491
  27.2037332 109.1486392  30.2988396  24.6945690 108.5554544  29.2134307
  24.1316525 108.1427154  29.7373968  25.4566713 108.4807450  29.6327450
  24.7240138 108.4831945  29.3527307  26.3030670 100.5607281  13.3395906
  26.5426673 100.7685264  12.5271249  26.6246511  99.7564789  13.4484851
  26.3867828 100.4721382  13.2356459  21.6120960  92.4900676  17.1855444
  22.3666928  92.8578993  16.9472494  21.4348495  92.8640231  17.9534624
  21.6975438  92.5998864  17.2640333  34.9055859  98.6395117  25.2302983
  34.0684280  98.7097304  25.4650578  34.8744090  98.6419612  24.3577286
  34.7774141  98.6505344  25.1362531  21.3020588 100.7828153  30.9451352
  21.4741091 100.6734047  31.7936633  21.8389945 101.4282558  30.7082544
  21.4065592 100.8620154  31.0356449  20.2045160 107.1559793  25.6269850
  20.7443385 107.0130924  26.2973223  19.5215106 107.5556544  25.9953877
  20.1837314 107.1939464  25.7804272  25.6477744  91.8997406  16.9182581
  26.3763904  91.7213361  16.4720737  25.7372637  92.7415486  17.1289759
  25.7684406  91.9981284  16.8836099  29.6286045 102.8350793  20.8214875
  30.3843560 103.2682308  20.8603784  29.7348369 102.1855563  21.3949511
  29.7556215 102.8028277  20.9112900  32.6666216 106.6624071  21.5717278
  32.2301448 106.6660813  22.3276249  32.3329131 107.3429570  21.1396855
  32.5528836 106.7636526  21.6198110  27.2395289 108.7032403  32.8960428
  28.0235706 108.8163251  33.2616170  27.0391884 107.8773541  33.0919114
  27.3261315 108.5979123  32.9794814  15.6082305 103.3760084  25.7804272
  15.3420720 102.5599200  25.9395262  15.6220869 103.4213239  24.9099788
  15.5707027 103.2616988  25.6757754  32.5863699  93.7037898  23.8146706
  33.2289607  93.7736003  24.4008621  32.8386719  93.0367121  23.3126248
  32.7185831  93.6164247  23.8273985  20.3580911  96.9138462  28.4271280
  19.6652708  96.4435442  28.6732011  20.9741238  96.6876766  29.0012987
  20.3465441  96.8105594  28.5480432  27.3965683 110.6142506  26.5426884
  26.5980928 110.3742006  26.8000752  27.8451694 110.6656898  27.2893931
  27.3440294 110.5864897  26.6911808  35.8010562 103.3804991  20.4636915
  36.4626996 102.8195659  20.3632824  35.1601974 102.8857021  20.7889606
  35.8039429 103.2241400  20.4969255  32.0875393 104.3970373  20.2048904
  32.3230982 104.5415572  19.3775754  32.2364956 105.1612781  20.5980417
  32.1441196 104.5309427  20.1412508  19.0821470 100.8803866  29.5698125
  19.8061442 100.8656896  30.0563020  19.1837607 101.5899221  29.0720093
  19.2039679 100.9828569  29.5676912  33.9165849 103.2372039  18.0418508
  34.2474066 103.7699679  17.4358602  34.4898937 103.2910927  18.6980459
  34.0499528 103.3241608  18.0496289  26.4566419 104.3602950  34.4347072
  25.6639400 104.6746462  34.6199692  26.5715347 104.5754419  33.5967857
  26.3561830 104.4386787  34.3385407  29.1297738 101.0836942  18.7242088
  29.2244593 101.8226236  19.1781713  28.5056582 100.6554417  19.1576652
  29.0506769 101.1298262  18.8550235  27.3850212 104.2623154  29.3732369
  27.9589074 103.6250398  29.5280933  27.3065016 104.2627237  28.5042026
  27.4583447 104.1688266  29.2678780  15.9846629 101.0412364  23.2115083
  16.5620131 100.9048814  23.8507328  15.2860690 100.5848148  23.4660667
  15.9667650 100.9534630  23.3437373  29.3820760 102.9285681  11.9579040
  29.3000922 102.9987869  12.8234027  30.0200480 103.4915425  11.7662780
  29.4640597 103.0224652  12.0568989  22.7413931 102.6946419  21.4253566
  22.4833175 101.8618154  21.3984866  22.7962414 102.9204032  20.5846066
  22.7113709 102.6044191  21.2973703  27.8214981  94.7974870  21.5257659
  27.1171308  94.3084056  21.6841578  27.8699955  94.8097344  20.6546103
  27.7245033  94.7264518  21.4196999  21.7148643 100.2484182  21.9118461
  21.1398234 100.4076350  22.5482422  21.3384319  99.6119591  21.4486911
  21.5751455 100.1781995  21.9373019  25.3821932  98.7207531  26.7710839
  24.9936364  98.2961749  26.1163030  24.7176630  98.9689681  27.2787866
  25.2268859  98.6946252  26.7498707  35.0245201  98.4782536  19.5458669
  34.7681766  97.6662477  19.3556552  35.8674515  98.4860103  19.3188857
  35.1111226  98.3594533  19.4843486  29.2048293  92.4182160  24.2834823
  29.5858805  91.7360331  24.6702698  28.4011578  92.1291762  24.1010488
  29.1424755  92.2749208  24.3138879  26.4860870 102.9506136  14.9687646
  27.3001509 103.2421028  14.8570418  26.4220011 102.2965998  14.3945939
  26.5963609 102.8971330  14.8676484  32.7070360 105.6332132  29.3817222
  32.4708998 104.8020197  29.2629282  33.3513589 105.5817739  29.9672066
  32.7665031 105.5029820  29.4503115  22.3568778 106.4227653  20.0959958
  22.9942725 106.1839401  20.6411752  22.7823850 106.6264812  19.3613119
  22.5144944 106.4178663  20.0677116  23.1640134  94.9236358  34.1497432
  22.8493575  95.6935921  33.8866995  22.8430066  94.3606614  33.5649659
  23.0699053  94.9546627  34.0238782  33.7306781 105.4176581  25.4445516
  33.4252598 106.1504637  25.8058832  33.0112996 105.0114510  25.1638302
  33.5794123 105.4658314  25.4558653  24.7390250 106.9000076  21.7753745
  24.8129258 106.7375248  22.6295594  25.5559757 107.0890265  21.5314226
  24.8706609 106.9036818  21.8651770  39.4308573 102.0569581  24.7713861
  39.3633073 102.0765540  23.9016447  39.4164235 102.8999908  24.9969531
  39.4187329 102.1843316  24.6766337  20.7172031  93.3126880  19.7643628
  19.8494456  93.3849479  19.8301237  21.0047235  94.1148958  19.9531603
  20.6311779  93.4421027  19.8018395  29.8404919  93.4604739  28.0954950
  30.5858511  93.2714549  27.6818375  29.4242224  93.9862977  27.5368806
  29.8889894  93.5106884  27.9519523  37.2167190 100.8313967  23.0460455
  37.7675112 100.1982036  23.2857547  37.2011306 101.3629360  23.7375959
  37.2952387 100.8162916  23.1839313  23.8689581 104.6652565  27.5920348
  23.3701275 105.3768332  27.6705237  24.6789805 104.9853231  27.5538511
  23.9145688 104.8179413  27.5976917  20.1317699 103.9275518  21.8383069
  19.8430947 103.3012989  22.3728797  21.0001047 103.8695805  21.9047750
  20.2177951 103.8263062  21.9274024  30.9195596  99.0710301  22.1565051
  30.5760362  98.3500636  22.5072301  31.0188639  98.8624152  21.3143409
  30.8837639  98.9334504  22.0836731  31.3808626 105.5336005  17.6989039
  31.9466658 106.1929215  17.6147582  30.7336529 105.8785703  18.1705441
  31.3687382 105.6817946  17.7561796  22.7956639  97.5233609  32.8882647
  21.9856415  97.8291389  32.7772489  23.2731326  98.2439191  33.0035231
  22.7460118  97.6748210  32.8889718  21.6548199 106.7379330  23.1365550
  21.1328952 106.8779622  23.8217414  22.0422219 105.9789994  23.3267667
  21.6351900 106.6464854  23.2666626  18.6439383  96.7885139  17.2060504
  18.3564178  96.4186409  16.4692452  19.3309851  97.2579994  16.9444209
  18.7028280  96.8032108  17.0575580  27.8515204 108.4774789  17.1226119
  27.6101880 107.7442650  16.7153183  28.0316537 109.0261646  16.4692452
  27.8422828 108.4497181  16.9656341  23.0814524 103.7683349  18.5347041
  22.8857307 104.3758084  17.9407344  23.3048870 103.0751293  18.0538715
  23.0849165 103.7560875  18.3763122  21.4793054 100.6538087  18.6527909
  22.2015706 100.8179245  18.1931715  21.0001047 101.3747752  18.5467249
  21.5156785 100.7836317  18.5693523  29.4386562  96.9901886  24.0324594
  28.5997662  97.0163165  23.7962857  29.5090929  97.6372621  24.6129941
  29.3254955  97.0898012  24.0833711  19.1300671 103.0596159  27.7582049
  19.6421768 103.3380413  27.1090809  18.8437014 103.7985454  28.1244862
  19.1635534 103.2098513  27.7171927  27.8855840  93.8887263  18.7652210
  28.5882193  93.6895011  18.2872168  27.6200029  93.1163205  19.0721053
  27.9502472  93.7450229  18.7397652  33.3144086 102.1969873  21.3185836
  33.2278060 102.3525299  22.1720615  32.8594566 102.8407948  20.9445241
  33.2347342 102.3145628  21.3892943  22.6484396  95.1522548  27.8183091
  22.4567593  95.1677682  28.6682514  23.4982992  95.3486222  27.7949745
  22.7460118  95.1836899  27.9406385  17.0331309  97.6813530  25.7966907
  16.8916801  96.8297470  25.9211415  17.3171873  97.7242190  24.9729113
  17.0539155  97.5613280  25.6934531  27.1869902  99.5180620  19.9411395
  26.9404616  99.4376371  20.7748184  27.5155025  98.7334088  19.7473923
  27.1991145  99.3906885  20.0358918  31.0817951 106.2263979  23.7298177
  30.9432310 106.9245025  24.2346919  30.3017948 106.0712636  23.3734358
  30.9461177 106.3064146  23.7524451  29.4196036 102.5260354  29.9820558
  29.4144074 101.6540171  29.9862985  30.1257030 102.7248524  29.5090014
  29.5241040 102.4264229  29.9127594  23.1466929 102.2537338  29.3534378
  23.2910305 102.8338546  28.7177488  23.4942578 102.6313635  30.0584233
  23.2194390 102.3958042  29.3633373  25.3186846 101.4527507  27.1359510
  24.5710160 101.6458521  26.7307788  25.4728372 100.6272726  26.8983631
  25.2309274 101.3592618  27.0404916  22.2194684 110.4440110  26.2195405
  22.3684248 109.8843026  25.5668810  22.9994686 110.5232112  26.6027924
  22.3568778 110.3725676  26.1792354  32.5771323 105.5842233  14.4914676
  32.1978132 104.7979371  14.4843965  31.9137569 106.1329090  14.3486320
  32.4229798 105.5487057  14.4695473  24.7447985 110.6154753  27.4979896
  24.6691656 109.9463564  28.0530684  24.6737844 111.3172541  28.0120562
  24.7228592 110.6199660  27.6556744  25.5588623  95.3478057  28.0254914
  26.0161238  96.0802032  28.1527706  25.6344952  94.9244523  28.7842170
  25.6379593  95.3935295  28.1555990  17.8021615  95.5943877  29.1144357
  17.2663804  94.9824235  29.4305125  17.8639379  96.1692013  29.7678024
  17.7317247  95.5890805  29.2579784  30.0315949  88.5267933  21.8948757
  30.1499517  88.9844396  21.1616059  29.8578125  87.7213194  21.6084974
  30.0235120  88.4761705  21.7449690  25.4018232 109.1355752  18.3303502
  26.1668123 108.8665396  18.0086166  25.2996322 108.6505762  19.0473565
  25.4999727 109.0245317  18.3883330  23.4371001  97.3380161  24.8696738
  22.6467076  97.1571621  25.1914074  23.8331624  96.5607114  24.8527032
  23.3787878  97.1967622  24.9149286  28.8214688 104.9722592  22.5956184
  28.1459689 104.7407824  23.0969571  28.8307064 104.3643774  21.9698289
  28.7233192 104.8481517  22.5772336  25.9508832  99.8140420  29.3520237
  25.8867973 100.6750377  29.2240373  26.0906019  99.4972414  28.5515788
  25.9624302  99.8940587  29.2148450  30.8231422 107.8287724  14.8266362
  30.9051260 108.6354710  14.5027813  31.3081164 107.8483683  15.5507135
  30.9068580 107.9508386  14.8853260  24.6327926 102.5072560  23.4936440
  24.2090175 102.7077059  22.7575458  24.4572781 101.6601408  23.6060739
  24.5438806 102.4121341  23.4010130  24.1339619 114.0223073  25.9557897
  24.6235549 113.3233862  25.7733562  23.5623851 113.7246943  26.5433954
  24.1224149 113.8749296  26.0158938  26.4589515 102.3782495  17.7957775
  27.0005061 101.8752876  18.2596396  26.7736074 102.3247690  16.9847261
  26.5853912 102.2961916  17.7441587  30.3306622 106.5885142  34.9084688
  31.1441488 106.3170291  35.0689820  30.1701589 106.2892682  34.1044883
  30.4276571 106.5040068  34.8130093  27.6078784  97.2718799  27.8480076
  27.8220754  96.6329714  27.2943430  26.9912684  97.7164623  27.4187938
  27.5484114  97.2428943  27.7030507  29.0183452 110.1937548  19.2934297
  28.6263244 109.8904263  18.5757163  29.1736525 111.0306638  19.1039250
  28.9837042 110.2721384  19.1590794  29.7717872  98.8807865  28.7863383
  28.9594554  98.5733755  28.8676556  30.2307807  98.4006865  29.3506095
  29.7198257  98.7644357  28.8817977  29.1823127 106.7587536  19.2340327
  28.8237782 106.9302179  20.0104360  28.6961838 107.2200742  18.6768326
  29.0581824 106.8526508  19.2665596  26.9993513  90.3818735  22.8367419
  26.1287071  90.3557456  22.7900728  27.2533854  90.2095927  22.0193264
  26.9087073  90.3528879  22.7087555  26.8671380 100.2867936  33.5692085
  27.3371011 100.9110052  33.9559959  26.9133260  99.6184911  34.1285300
  26.9439256 100.2802616  33.7092157  24.0242654  92.3924963  24.2940889
  23.5081142  91.7005155  24.4192468  23.4636582  93.0595740  24.2403488
  23.8649167  92.3888221  24.3046955  26.0934887  92.9317923  26.1233742
  25.7066640  92.9566955  26.9047271  25.6067824  92.3659602  25.6708258
  25.9647396  92.8513674  26.1721645  30.3427866 107.6491432  30.1807528
  30.9807587 107.1551628  29.8469984  29.7001958 107.5768833  29.5959755
  30.3422093 107.5650441  30.0449883  32.0684867  99.4980578  24.7473444
  31.6412475  99.4106927  23.9921543  31.4310920  99.6058354  25.3328288
  31.9114474  99.5013238  24.7218885  25.7592029  89.8184909  28.4144001
  26.3885147  90.3545209  28.1365072  25.9277892  89.7262268  29.2657567
  25.8769823  89.8846271  28.4992530  25.5605944  94.6056104  30.6870413
  26.3879373  94.3341253  30.7429028  25.5813790  95.4016945  31.0434231
  25.6858794  94.6835858  30.7485596  30.3982123 108.3411241  26.8212885
  31.1874501 107.9900305  26.9414967  30.5725721 109.1547629  26.5589519
  30.5402405 108.4097098  26.8000753  20.1375434 101.7519966  23.8740674
  19.2963440 101.6523841  24.0819568  20.3465441 102.5215447  24.2254994
  20.0440126 101.8512010  23.9567989  17.6151000  99.3739503  21.7025424
  17.2207698  99.4482515  20.9275534  17.0591117  99.7597450  22.2533786
  17.4753813  99.4421278  21.6693084  29.2515947  92.3520797  21.3829303
  29.4565541  92.2843105  22.2286300  28.9242371  93.1579619  21.3150481
  29.2331195  92.4606738  21.4988958  23.9492098  99.6801366  23.1238271
  23.6455236  99.1257354  23.7248679  23.2471519  99.8593576  22.6366305
  23.8008308  99.6246148  23.1407977  23.0058195  96.9901885  17.6882973
  23.2817930  96.2720798  17.2760541  23.6056865  97.5886805  17.4804079
  23.1351460  96.9722256  17.5963734  22.0110449 106.8951086  27.8310369
  21.9030804 106.9053148  28.6972427  22.2206231 107.7205867  27.6415323
  22.0260560 107.0192161  27.9314461  32.5049635  92.9052562  20.8632069
  31.8923949  93.3922964  21.2485801  32.6013810  92.2296053  21.4069720
  32.4287533  92.8770870  21.0010927  26.5068716  94.6615403  15.9629568
  26.9612463  94.8325963  16.6877413  26.9808762  94.0483513  15.5627344
  26.6437036  94.5966288  16.0103330  20.0284241 104.1463729  25.2932307
  19.4372175 104.7873227  25.2635322  20.7905265 104.5701346  25.2663606
  20.0532502 104.3039567  25.2847454  20.4244864  95.3065726  25.9600324
  20.8846346  95.3804656  26.6975448  20.4700971  96.1046981  25.6100146
  20.4995419  95.4359874  26.0173081  22.0728214  95.9732421  30.5272351
  21.6813779  95.3265768  30.9628129  22.2414077  96.5643857  31.1466607
  22.0399124  95.9646689  30.6835057  36.1474663 103.9769498  26.2909585
  36.2057787 104.4256147  27.0369561  35.5141131 104.3868311  25.8539665
  36.0625958 104.1043233  26.3362133  29.7873758 109.5973040  22.7264331
  29.5893446 110.0863855  22.0320542  29.1661469 109.8014282  23.3048464
  29.6661322 109.6989579  22.7087554  23.8481736 101.3657937  17.0674575
  24.5923781 101.7532213  17.3057525  23.9942432 100.5215363  17.2315063
  23.9792321 101.2988410  17.1268545  25.7661311  93.1608196  22.1006437
  24.9197356  93.3331004  21.9747787  25.7632444  92.3557540  22.4372265
  25.6408461  93.0669225  22.1317564  26.8359612  96.9383410  22.9668495
  26.3619566  96.4125173  23.4773806  27.2077748  96.3912883  22.3983356
  26.8209501  96.7799407  22.9583642  17.2132642  98.9354917  28.3352040
  18.0758255  98.8350626  28.2489370  16.8824425  98.3549626  27.7737613
  17.2917838  98.8346544  28.2397446  33.0996342 101.9985786  24.3775275
  32.8594565 101.1592201  24.3817702  33.5788350 102.0785953  25.1016049
  33.1348526 101.8867186  24.4850078  28.7643111  97.8319965  16.0294248
  28.2366130  97.9148709  15.3399957  29.2238820  98.5737837  16.0258893
  28.7544962  97.9540627  15.9268944  35.1001529  98.7787243  22.3304534
  34.8611299  98.7383077  21.4925319  35.2635431  99.6258395  22.4570255
  35.0891833  98.8979328  22.2258016  31.7047560 103.1637193  28.2609579
  32.4281758 102.7109719  28.0820599  31.4397522 103.4441858  27.4781907
  31.7728833 103.1388161  28.1188295  20.5734428  97.7597366  24.9962459
  19.9487498  97.7715758  24.3888411  20.2380023  98.2357541  25.6453699
  20.4319920  97.8315883  25.0019027  17.2860103 105.8197826  26.4366223
  16.7560028 105.1290265  26.4861198  17.5585197 105.8108012  25.6078931
  17.2484826 105.7164958  26.3213639  27.4866349 103.2621071  26.4104595
  26.8723342 102.7179121  26.7053230  28.0033634 102.7485307  25.9310411
  27.4722011 103.1057480  26.3828823  26.7262646 104.3325341  24.1448893
  26.2990254 103.7075060  23.7114329  26.7187591 104.0500263  24.9707900
  26.6621787 104.1978122  24.2028721  19.8425173  99.3690514  27.2137327
  20.0018660  98.6133838  27.6189049  19.6618067  99.9181454  27.8678065
  19.8390532  99.3384328  27.3700033  27.7845476  91.5351750  27.7688117
  27.2886038  91.7315424  27.0779683  28.5414538  91.9344418  27.5976918
  27.8232301  91.6229483  27.6408253  25.0548356  95.2094095  24.3591427
  25.0790843  94.6754208  23.6704207  25.3059830  94.7011404  25.0217018
  25.0958275  95.0554999  24.3556072  21.3349678  93.9364914  23.7397171
  21.3748050  94.4374120  24.4531879  20.5099343  94.0275307  23.4703095
  21.2189204  94.0246730  23.8047710  23.5179291 103.5025654  31.8417466
  22.6674922 103.6397368  31.9775111  23.6807419 102.7689432  32.2865168
  23.4163155 103.4139755  31.9273065  22.7564042 100.4525424  26.0371070
  21.9255971 100.6199241  25.8306319  22.7015559 100.0761374  26.8219956
  22.6253456 100.4215155  26.1219599  20.5647825  93.9434316  31.6727481
  21.1900528  93.3996449  31.9456913  20.1098305  93.4629234  31.1035272
  20.5896085  93.7923798  31.6289075  21.1300085  98.7281015  16.5661188
  21.2703046  99.2253479  17.2689830  21.6282618  98.0267309  16.7075402
  21.2241166  98.6982994  16.6912767  34.1382874 102.1263603  26.7640129
  34.7300714 102.7660854  26.7958327  34.5741868 101.4286640  27.0532196
  34.2901305 102.1181954  26.8120962  22.7379291  95.5262101  13.8699207
  23.0595132  95.0465184  13.2158469  23.0006234  96.3361748  13.6790019
  22.8245316  95.5751999  13.7454699  25.9676263 106.5480976  27.3898023
  25.4601354 107.1016823  27.8338654  25.6702910 106.6089266  26.5716798
  25.8481148 106.6387287  27.3346480  28.1338446  94.9134295  26.2322686
  28.5593517  94.4606822  25.6206212  27.5195439  94.3594366  26.5087474
  28.1067091  94.7648272  26.1827711  26.5732668  91.3849395  19.6413263
  25.9300986  91.2347042  20.2098402  26.2332075  91.1391741  18.8762368
  26.4277746  91.3261518  19.6116278  31.1632015  99.3408822  19.0643272
  30.4923205  99.8838524  18.9356337  31.8571765  99.8103677  18.8224967
  31.1660882  99.4907093  19.0098799  25.2118749 111.4805534  24.2955030
  24.9884403 110.7224363  24.6639056  24.7228592 111.5103555  23.5735470
  25.1062198 111.3727759  24.2431771  31.3260142  95.7964706  21.9733645
  31.6787752  95.3694429  22.6479444  30.4674944  95.7115549  22.1034721
  31.2509587  95.7209446  22.0928655  20.0243827  98.4272225  20.0316491
  19.3055816  98.8436358  20.2989355  20.3956190  98.9926464  19.4808130
  19.9735759  98.5721507  19.9899298  29.3243408  99.0600074  25.9218487
  29.3041335  98.8783369  26.7753266  29.3722609  99.9312093  25.8978071
  29.3278049  99.1616613  26.0441782  27.2689738 105.6487266  31.8466964
  27.2285593 105.0036943  31.2612120  28.0813056 105.5923884  32.1592376
  27.3832892 105.5446233  31.8063913  23.8597206 111.7005992  21.7492115
  23.4457604 111.0380122  21.3595956  24.5444580 111.8483851  21.2287809
  23.8995577 111.6246650  21.6148612  27.2262500 110.8596077  22.5015731
  26.8278783 110.9698348  21.7336551  26.6113719 111.0678144  23.0842291
  27.0761389 110.9069645  22.4747031  25.7990402  97.4670225  15.3689871
  25.2055241  97.7887222  14.8174438  25.8365679  96.6211321  15.1610977
  25.7164791  97.3894554  15.2572642  32.7584202  90.9183118  22.9017957
  32.2515067  90.2112257  22.8339135  33.5551636  90.5876306  23.0319034
  32.8011442  90.7656269  22.9116952  28.6748218  97.4249730  18.7991621
  28.4461911  97.4482431  17.9569979  28.9346295  96.6007197  18.9186632
  28.6794406  97.3065810  18.6916819  22.9567447  99.2784203  28.4016721
  22.4446350  98.6705386  28.7601753  22.7846943  99.9940795  28.8690697
  22.8557084  99.2947502  28.5232945  17.8033161  97.7221778  31.0519083
  17.6335752  98.3823153  30.5067290  17.3599111  97.9328339  31.7731572
  17.7132495  97.8507760  31.0780713  21.7292981  95.9626276  20.0945817
  22.2050347  96.3243356  19.4595998  21.2281580  96.6182744  20.3745960
  21.7258340  96.1120465  20.0422558  34.9604342 105.4348044  15.8858822
  35.3437948 106.1839400  16.1156919  34.1648456 105.6813864  15.6270811
  34.8998125 105.5817738  15.8816395  26.8336517  97.2008447  30.8418977
  27.3907947  96.9722257  30.2097442  26.5097582  97.9614113  30.5654189
  26.8682927  97.2792284  30.7075474  14.7035226 100.6268644  26.3107573
  14.1561945  99.9569289  26.4288441  15.4927604 100.2598492  26.3751040
  14.7387410 100.4733630  26.3376274  24.5519634 100.2876101  31.8070984
  25.3030961 100.6027778  32.1210538  24.7442211 100.0855272  30.9804906
  24.6911049 100.3043483  31.7314380  31.4004924  96.4149667  19.0494779
  31.3999151  96.2598324  19.9079056  31.1961105  97.2612654  18.9936165
  31.3704702  96.5170288  19.1682719  13.4622195  99.8389452  23.4653596
  13.2843957  99.3866061  24.1908512  13.1741218 100.6415613  23.6492074
  13.3935149  99.8912009  23.5997099  29.1245777 101.0947169  22.7030986
  29.6199442 100.3770164  22.6635007  28.3145552 100.7917967  22.5885473
  29.0789670 100.9444815  22.6804712  31.1897595 103.8450856  25.3908115
  31.6152667 103.3225278  24.8378540  30.8254515 104.4431694  24.8696738
  31.1984198 103.8561083  25.2317125  20.8251675 112.1415074  24.1505461
  21.1398234 112.9551462  24.1583242  21.2345089 111.7565293  24.8187620
  20.9319773 112.2043776  24.2509552  27.7776195 107.5585121  21.7209273
  28.2487373 108.2725383  21.8899258  28.1136373 106.9583871  22.2569142
  27.8971310 107.5756585  21.8241648  29.8653179 109.1686434  33.9001345
  29.9750145 108.3794995  34.2558092  30.1944076 109.0792370  33.0975683
  29.9305585 109.0392287  33.8343735  24.6945690  92.3312591  28.6767367
  24.8273595  91.5343585  29.0048343  25.0790843  92.8578994  29.2565643
  24.7702019  92.2912508  28.8110870  28.4150141 107.3503055  28.4836965
  27.8671087 106.7260938  28.2157030  28.8763170 107.5397327  27.7681045
  28.4017351 107.2862105  28.3387396  27.7678045  89.2542917  25.2748461
  26.9624009  89.1440647  25.5916299  27.6384780  89.3555373  24.4178326
  27.6298178  89.2526587  25.1956501  31.2244006  95.4188409  25.8688157
  30.6406994  95.9197616  25.4565725  31.5448300  94.9117965  25.2352481
  31.1857181  95.4180244  25.7146665  23.7638805  94.3329004  16.1446832
  24.5854499  94.5027317  15.9028527  23.3008456  94.4876265  15.4213130
  23.8169967  94.3810737  16.0018477  22.3534137  92.3271766  26.9245261
  22.8978550  91.9862893  27.5149603  22.4071072  93.1857228  27.0666546
  22.4423256  92.4027026  27.0327134  18.1664695 106.0888182  23.7984069
  18.7709553 106.0484016  23.1697890  17.9592008 106.9359334  23.8288125
  18.2253593 106.2076185  23.7100186  27.9808467 108.3554128  25.0146306
  28.8006841 108.2117094  25.2762602  27.7002545 108.9800326  25.5562744
  28.0605211 108.4264480  25.1334246  44.4522118 116.0118979  17.9789183
  44.4216122 116.8663616  18.1507452  45.0503467 115.7114272  18.5375326
  44.5359276 116.0935476  18.0863985  37.6521803 115.0994630  22.7342113
  36.7959698 115.2603128  22.7851230  37.6989456 114.2286694  22.7547174
  37.5320914 114.9945432  22.7448179  40.4973624 117.1586674  25.3773765
  41.0429584 117.8371761  25.4367734  40.4390500 117.0174135  24.5175346
  40.5689538 117.2378676  25.2585825  42.2738692 118.5871281  16.2507493
  42.1578218 119.3378967  16.6799631  43.0694579 118.3295235  16.5003580
  42.3743282 118.6606128  16.3511584  29.1102830 112.8381757  23.2878759
  28.4907862 112.2474405  23.1188773  29.0086694 113.4293193  22.6543082
  29.0040506 112.8385840  23.1683748  36.2070726 114.5781299  17.6211222
  36.9050891 114.7569427  18.1132685  36.5223058 114.0551639  16.9981611
  36.3566063 114.5275071  17.6013232  28.8371963 116.3834039  25.5322328
  28.7130660 116.9696485  26.1672146  29.4890248 115.8894235  25.8334603
  28.9145613 116.3972844  25.6708257  34.3797590 109.9473696  21.7032496
  34.0500920 110.3984839  21.0336195  33.7042591 109.8689859  22.2505503
  34.2308026 110.0024831  21.6855720  39.9967998 119.3178926  14.5621782
  39.9119293 120.1739892  14.7071351  40.4852381 119.0423250  15.2303942
  40.0556895 119.4036247  14.6823864  41.5873997 105.9359219  19.9482107
  41.2727438 106.6262697  20.3802529  41.0700939 105.8804001  19.2467608
  41.4638468 106.0294107  19.9079056  40.9286431 115.9363720  16.0619518
  40.3997903 116.1523353  16.7216824  41.4511451 116.6299858  15.9820487
  40.9274884 116.0706857  16.1475117  46.3834484 121.5110024  21.4352562
  45.5532187 121.7220668  21.5985979  46.3343736 120.6847079  21.1594846
  46.2541219 121.4199630  21.4189927  37.2763253 116.0792589  13.3395906
  37.5159257 116.2870572  12.5271249  37.5979094 115.2750097  13.4484851
  37.3600411 115.9906690  13.2356459  32.5853544 108.0085984  17.1855444
  33.3399512 108.3764301  16.9472494  32.4081078 108.3825539  17.9534624
  32.6708022 108.1184172  17.2640333  45.8788442 114.1580425  25.2302983
  45.0416863 114.2282612  25.4650578  45.8476673 114.1604920  24.3577286
  45.7506725 114.1690652  25.1362531  32.2753171 116.3013460  30.9451352
  32.4473675 116.1919355  31.7936633  32.8122529 116.9467866  30.7082544
  32.3798175 116.3805462  31.0356449  36.6210327 107.4182714  16.9182581
  37.3496488 107.2398669  16.4720737  36.7105220 108.2600794  17.1289759
  36.7416990 107.5166592  16.8836099  40.6018628 118.3536101  20.8214875
  41.3576143 118.7867616  20.8603784  40.7080953 117.7040871  21.3949511
  40.7288799 118.3213585  20.9112900  43.5596282 109.2223206  23.8146706
  44.2022191 109.2921311  24.4008621  43.8119303 108.5552429  23.3126248
  43.6918414 109.1349555  23.8273985  31.3313495 112.4323770  28.4271280
  30.6385291 111.9620749  28.6732011  31.9473822 112.2062074  29.0012987
  31.3198025 112.3290902  28.5480432  46.7743145 118.8990298  20.4636915
  47.4359580 118.3380967  20.3632824  46.1334557 118.4042329  20.7889606
  46.7772013 118.7426708  20.4969255  43.0607976 119.9155681  20.2048904
  43.2963565 120.0600880  19.3775754  43.2097540 120.6798089  20.5980417
  43.1173779 120.0494735  20.1412508  30.0554054 116.3989174  29.5698125
  30.7794026 116.3842204  30.0563020  30.1570190 117.1084529  29.0720093
  30.1772263 116.5013877  29.5676912  44.8898433 118.7557347  18.0418508
  45.2206650 119.2884987  17.4358602  45.4631521 118.8096235  18.6980459
  45.0232112 118.8426916  18.0496289  40.1030322 116.6022250  18.7242088
  40.1977176 117.3411544  19.1781713  39.4789166 116.1739725  19.1576652
  40.0239352 116.6483570  18.8550235  38.3582796 119.7808462  29.3732369
  38.9321658 119.1435706  29.5280933  38.2797600 119.7812545  28.5042026
  38.4316031 119.6873574  29.2678780  26.9579212 116.5597672  23.2115083
  27.5352715 116.4234122  23.8507328  26.2593274 116.1033456  23.4660667
  26.9400234 116.4719938  23.3437373  40.3553343 118.4470989  11.9579040
  40.2733506 118.5173176  12.8234027  40.9933064 119.0100733  11.7662780
  40.4373181 118.5409960  12.0568989  33.7146514 118.2131727  21.4253566
  33.4565759 117.3803462  21.3984866  33.7694997 118.4389340  20.5846066
  33.6846292 118.1229499  21.2973703  38.7947565 110.3160178  21.5257659
  38.0903891 109.8269363  21.6841578  38.8432539 110.3282652  20.6546103
  38.6977616 110.2449826  21.4196999  32.6881227 115.7669490  21.9118461
  32.1130818 115.9261658  22.5482422  32.3116903 115.1304899  21.4486911
  32.5484039 115.6967303  21.9373019  36.3554515 114.2392839  26.7710839
  35.9668948 113.8147057  26.1163030  35.6909214 114.4874989  27.2787866
  36.2001443 114.2131560  26.7498707  45.9977784 113.9967844  19.5458669
  45.7414349 113.1847785  19.3556552  46.8407098 114.0045411  19.3188857
  46.0843810 113.8779841  19.4843486  40.1780877 107.9367468  24.2834823
  40.5591389 107.2545639  24.6702698  39.3744161 107.6477070  24.1010488
  40.1157339 107.7934516  24.3138879  37.4593454 118.4691444  14.9687646
  38.2734092 118.7606336  14.8570418  37.3952595 117.8151306  14.3945939
  37.5696193 118.4156638  14.8676484  43.6802944 121.1517440  29.3817222
  43.4441581 120.3205505  29.2629282  44.3246173 121.1003047  29.9672066
  43.7397614 121.0215128  29.4503115  34.1372717 110.4421666  34.1497432
  33.8226158 111.2121229  33.8866995  33.8162650 109.8791922  33.5649659
  34.0431636 110.4731935  34.0238782  44.7039364 120.9361888  25.4445516
  44.3985181 121.6689945  25.8058832  43.9845580 120.5299818  25.1638302
  44.5526707 120.9843621  25.4558653  50.4041156 117.5754889  24.7713861
  50.3365657 117.5950848  23.9016447  50.3896819 118.4185216  24.9969531
  50.3919913 117.7028624  24.6766337  31.6904614 108.8312187  19.7643628
  30.8227040 108.9034787  19.8301237  31.9779819 109.6334266  19.9531603
  31.6044362 108.9606335  19.8018395  40.8137503 108.9790047  28.0954950
  41.5591095 108.7899857  27.6818375  40.3974808 109.5048285  27.5368806
  40.8622477 109.0292192  27.9519523  48.1899774 116.3499275  23.0460455
  48.7407695 115.7167344  23.2857547  48.1743889 116.8814668  23.7375959
  48.2684970 116.3348224  23.1839313  41.8928180 114.5895609  22.1565051
  41.5492946 113.8685944  22.5072301  41.9921223 114.3809460  21.3143409
  41.8570223 114.4519812  22.0836731  42.3541209 121.0521313  17.6989039
  42.9199242 121.7114523  17.6147582  41.7069113 121.3971011  18.1705441
  42.3419966 121.2003254  17.7561796  33.7689223 113.0418917  32.8882647
  32.9588998 113.3476697  32.7772489  34.2463909 113.7624499  33.0035231
  33.7192701 113.1933518  32.8889718  29.6171966 112.3070447  17.2060504
  29.3296762 111.9371717  16.4692452  30.3042434 112.7765302  16.9444209
  29.6760864 112.3217416  17.0575580  32.4525638 116.1723395  18.6527909
  33.1748290 116.3364553  18.1931715  31.9733631 116.8933060  18.5467249
  32.4889369 116.3021625  18.5693523  40.4119145 112.5087194  24.0324594
  39.5730246 112.5348473  23.7962857  40.4823513 113.1557929  24.6129941
  40.2987539 112.6083320  24.0833711  38.8588424 109.4072571  18.7652210
  39.5614777 109.2080319  18.2872168  38.5932612 108.6348513  19.0721053
  38.9235056 109.2635537  18.7397652  44.2876669 117.7155181  21.3185836
  44.2010644 117.8710607  22.1720615  43.8327149 118.3593256  20.9445241
  44.2079926 117.8330936  21.3892943  33.6216980 110.6707856  27.8183091
  33.4300177 110.6862990  28.6682514  34.4715576 110.8671530  27.7949745
  33.7192702 110.7022207  27.9406385  28.0063893 113.1998837  25.7966907
  27.8649385 112.3482778  25.9211415  28.2904456 113.2427498  24.9729113
  28.0271739 113.0798587  25.6934531  38.1602485 115.0365928  19.9411395
  37.9137200 114.9561679  20.7748184  38.4887608 114.2519396  19.7473923
  38.1723729 114.9092193  20.0358918  40.3928619 118.0445662  29.9820558
  40.3876658 117.1725479  29.9862985  41.0989613 118.2433832  29.5090014
  40.4973623 117.9449537  29.9127594  34.1199513 117.7722646  29.3534378
  34.2642888 118.3523854  28.7177488  34.4675161 118.1498943  30.0584233
  34.1926974 117.9143350  29.3633373  36.2919430 116.9712815  27.1359510
  35.5442744 117.1643829  26.7307788  36.4460955 116.1458034  26.8983631
  36.2041858 116.8777926  27.0404916  43.5503907 121.1027541  14.4914676
  43.1710716 120.3164679  14.4843965  42.8870152 121.6514398  14.3486320
  43.3962382 121.0672365  14.4695473  36.5321207 110.8663365  28.0254914
  36.9893821 111.5987340  28.1527706  36.6077536 110.4429831  28.7842170
  36.6112177 110.9120603  28.1555990  28.7754198 111.1129185  29.1144357
  28.2396388 110.5009543  29.4305125  28.8371963 111.6877321  29.7678024
  28.7049831 111.1076113  29.2579784  41.0048533 104.0453241  21.8948757
  41.1232101 104.5029704  21.1616059  40.8310709 103.2398502  21.6084974
  40.9967704 103.9947013  21.7449690  34.4103585 112.8565469  24.8696738
  33.6199660 112.6756929  25.1914074  34.8064208 112.0792422  24.8527032
  34.3520461 112.7152930  24.9149286  39.7947271 120.4907899  22.5956184
  39.1192273 120.2593132  23.0969571  39.8039647 119.8829082  21.9698289
  39.6965776 120.3666825  22.5772336  36.9241415 115.3325728  29.3520237
  36.8600556 116.1935685  29.2240373  37.0638603 115.0157722  28.5515788
  36.9356885 115.4125895  29.2148450  35.6060509 118.0257868  23.4936440
  35.1822758 118.2262367  22.7575458  35.4305364 117.1786716  23.6060739
  35.5171390 117.9306649  23.4010130  37.4322099 117.8967803  17.7957775
  37.9737644 117.3938184  18.2596396  37.7468658 117.8432997  16.9847261
  37.5586496 117.8147224  17.7441587  38.5811368 112.7904107  27.8480076
  38.7953338 112.1515021  27.2943430  37.9645267 113.2349931  27.4187938
  38.5216697 112.7614251  27.7030507  40.7450456 114.3993172  28.7863383
  39.9327138 114.0919063  28.8676556  41.2040391 113.9192173  29.3506095
  40.6930841 114.2829665  28.8817977  37.9726097 105.9004043  22.8367419
  37.1019655 105.8742764  22.7900728  38.2266438 105.7281235  22.0193264
  37.8819657 105.8714187  22.7087555  37.8403964 115.8053244  33.5692085
  38.3103595 116.4295360  33.9559959  37.8865844 115.1370219  34.1285300
  37.9171839 115.7987924  33.7092157  34.9975237 107.9110271  24.2940889
  34.4813726 107.2190463  24.4192468  34.4369166 108.5781048  24.2403488
  34.8381750 107.9073529  24.3046955  37.0667471 108.4503231  26.1233742
  36.6799224 108.4752263  26.9047271  36.5800408 107.8844910  25.6708258
  36.9379980 108.3698982  26.1721645  43.0417450 115.0165886  24.7473444
  42.6145058 114.9292235  23.9921543  42.4043503 115.1243662  25.3328288
  42.8847057 115.0198546  24.7218885  36.7324612 105.3370217  28.4144001
  37.3617730 105.8730517  28.1365072  36.9010475 105.2447576  29.2657567
  36.8502407 105.4031579  28.4992530  36.5338527 110.1241412  30.6870413
  37.3611957 109.8526560  30.7429028  36.5546373 110.9202253  31.0434231
  36.6591377 110.2021166  30.7485596  31.1108017 117.2705274  23.8740674
  30.2696024 117.1709149  24.0819568  31.3198025 118.0400755  24.2254994
  31.0172710 117.3697318  23.9567989  28.5883584 114.8924811  21.7025424
  28.1940282 114.9667823  20.9275534  28.0323701 115.2782758  22.2533786
  28.4486396 114.9606586  21.6693084  40.2248531 107.8706105  21.3829303
  40.4298124 107.8028413  22.2286300  39.8974955 108.6764927  21.3150481
  40.2063779 107.9792046  21.4988958  34.9224682 115.1986674  23.1238271
  34.6187819 114.6442662  23.7248679  34.2204103 115.3778884  22.6366305
  34.7740892 115.1431456  23.1407977  33.9790779 112.5087193  17.6882973
  34.2550513 111.7906106  17.2760541  34.5789448 113.1072113  17.4804079
  34.1084044 112.4907564  17.5963734  43.4782219 108.4237870  20.8632069
  42.8656532 108.9108272  21.2485801  43.5746393 107.7481360  21.4069720
  43.4020116 108.3956178  21.0010927  37.4801300 110.1800711  15.9629568
  37.9345046 110.3511271  16.6877413  37.9541345 109.5668821  15.5627344
  37.6169620 110.1151596  16.0103330  31.3977448 110.8251034  25.9600324
  31.8578929 110.8989964  26.6975448  31.4433554 111.6232288  25.6100146
  31.4728003 110.9545182  26.0173081  33.0460797 111.4917729  30.5272351
  32.6546363 110.8451076  30.9628129  33.2146660 112.0829165  31.1466607
  33.0131708 111.4831997  30.6835057  47.1207247 119.4954806  26.2909585
  47.1790370 119.9441455  27.0369561  46.4873714 119.9053619  25.8539665
  47.0358542 119.6228541  26.3362133  34.8214320 116.8843245  17.0674575
  35.5656364 117.2717521  17.3057525  34.9675016 116.0400670  17.2315063
  34.9524905 116.8173718  17.1268545  36.7393895 108.6793504  22.1006437
  35.8929940 108.8516312  21.9747787  36.7365027 107.8742848  22.4372265
  36.6141045 108.5854533  22.1317564  37.8092195 112.4568718  22.9668495
  37.3352150 111.9310480  23.4773806  38.1810331 111.9098191  22.3983356
  37.7942084 112.2984715  22.9583642  28.1865226 114.4540225  28.3352040
  29.0490839 114.3535934  28.2489370  27.8557009 113.8734934  27.7737613
  28.2650422 114.3531852  28.2397446  44.0728926 117.5171094  24.3775275
  43.8327149 116.6777509  24.3817702  44.5520933 117.5971261  25.1016049
  44.1081110 117.4052494  24.4850078  39.7375695 113.3505273  16.0294248
  39.2098714 113.4334017  15.3399957  40.1971403 114.0923144  16.0258893
  39.7277546 113.4725935  15.9268944  46.0734113 114.2972551  22.3304534
  45.8343883 114.2568385  21.4925319  46.2368014 115.1443703  22.4570255
  46.0624416 114.4164636  22.2258016  42.6780143 118.6822501  28.2609579
  43.4014342 118.2295027  28.0820599  42.4130105 118.9627166  27.4781907
  42.7461416 118.6573469  28.1188295  31.5467012 113.2782674  24.9962459
  30.9220082 113.2901066  24.3888411  31.2112606 113.7542849  25.6453699
  31.4052503 113.3501191  25.0019027  38.4598933 118.7806379  26.4104595
  37.8455926 118.2364429  26.7053230  38.9766218 118.2670615  25.9310411
  38.4454595 118.6242788  26.3828823  37.6995230 119.8510649  24.1448893
  37.2722838 119.2260367  23.7114329  37.6920174 119.5685571  24.9707900
  37.6354371 119.7163429  24.2028721  30.8157757 114.8875822  27.2137327
  30.9751244 114.1319146  27.6189049  30.6350650 115.4366761  27.8678065
  30.8123116 114.8569636  27.3700033  38.7578060 107.0537057  27.7688117
  38.2618621 107.2500732  27.0779683  39.5147122 107.4529726  27.5976918
  38.7964885 107.1414791  27.6408253  36.0280939 110.7279403  24.3591427
  36.0523427 110.1939516  23.6704207  36.2792413 110.2196712  25.0217018
  36.0690858 110.5740307  24.3556072  32.3082262 109.4550222  23.7397171
  32.3480633 109.9559428  24.4531879  31.4831926 109.5460615  23.4703095
  32.1921788 109.5432038  23.8047710  33.7296625 115.9710731  26.0371070
  32.8988555 116.1384549  25.8306319  33.6748142 115.5946682  26.8219956
  33.5986040 115.9400463  26.1219599  31.5380408 109.4619624  31.6727481
  32.1633112 108.9181757  31.9456913  31.0830888 108.9814542  31.1035272
  31.5628669 109.3109106  31.6289075  32.1032669 114.2466323  16.5661188
  32.2435630 114.7438787  17.2689830  32.6015202 113.5452617  16.7075402
  32.1973750 114.2168302  16.6912767  45.1115457 117.6448911  26.7640129
  45.7033297 118.2846162  26.7958327  45.5474452 116.9471948  27.0532196
  45.2633888 117.6367262  26.8120962  33.7111874 111.0447409  13.8699207
  34.0327715 110.5650492  13.2158469  33.9738818 111.8547055  13.6790019
  33.7977900 111.0937307  13.7454699  39.1071029 110.4319603  26.2322686
  39.5326101 109.9792130  25.6206212  38.4928022 109.8779674  26.5087474
  39.0799675 110.2833580  26.1827711  37.5465252 106.9034703  19.6413263
  36.9033570 106.7532350  20.2098402  37.2064659 106.6577048  18.8762368
  37.4010329 106.8446826  19.6116278  42.1364598 114.8594130  19.0643272
  41.4655788 115.4023832  18.9356337  42.8304349 115.3288985  18.8224967
  42.1393466 115.0092401  19.0098799  42.2992726 111.3150014  21.9733645
  42.6520336 110.8879737  22.6479444  41.4407527 111.2300857  22.1034721
  42.2242171 111.2394754  22.0928655  30.9976411 113.9457533  20.0316491
  30.2788400 114.3621666  20.2989355  31.3688773 114.5111772  19.4808130
  30.9468343 114.0906815  19.9899298  40.2975992 114.5785382  25.9218487
  40.2773919 114.3968677  26.7753266  40.3455192 115.4497401  25.8978071
  40.3010633 114.6801920  26.0441782  36.7722985 112.9855533  15.3689871
  36.1787825 113.3072530  14.8174438  36.8098263 112.1396629  15.1610977
  36.6897374 112.9079861  15.2572642  43.7316786 106.4368425  22.9017957
  43.2247651 105.7297565  22.8339135  44.5284220 106.1061614  23.0319034
  43.7744025 106.2841577  22.9116952  39.6480802 112.9435038  18.7991621
  39.4194495 112.9667739  17.9569979  39.9078878 112.1192505  18.9186632
  39.6526990 112.8251118  18.6916819  33.9300030 114.7969511  28.4016721
  33.4178933 114.1890694  28.7601753  33.7579526 115.5126103  28.8690697
  33.8289667 114.8132810  28.5232945  28.7765745 113.2407086  31.0519083
  28.6068335 113.9008461  30.5067290  28.3331695 113.4513647  31.7731572
  28.6865079 113.3693068  31.0780713  32.7025564 111.4811584  20.0945817
  33.1782931 111.8428664  19.4595998  32.2014164 112.1368052  20.3745960
  32.6990923 111.6305773  20.0422558  45.9336926 120.9533352  15.8858822
  46.3170532 121.7024708  16.1156919  45.1381039 121.1999172  15.6270811
  45.8730708 121.1003046  15.8816395  37.8069101 112.7193755  30.8418977
  38.3640531 112.4907565  30.2097442  37.4830166 113.4799421  30.5654189
  37.8415511 112.7977592  30.7075474  25.6767810 116.1453952  26.3107573
  25.1294529 115.4754597  26.4288441  26.4660188 115.7783800  26.3751040
  25.7119993 115.9918938  26.3376274  35.5252218 115.8061409  31.8070984
  36.2763545 116.1213086  32.1210538  35.7174794 115.6040580  30.9804906
  35.6643632 115.8228791  31.7314380  42.3737508 111.9334975  19.0494779
  42.3731734 111.7783632  19.9079056  42.1693688 112.7797962  18.9936165
  42.3437286 112.0355596  19.1682719  40.0978360 116.6132477  22.7030986
  40.5932025 115.8955472  22.6635007  39.2878136 116.3103275  22.5885473
  40.0522253 116.4630123  22.6804712  42.1630179 119.3636164  25.3908115
  42.5885251 118.8410586  24.8378540  41.7987099 119.9617002  24.8696738
  42.1716782 119.3746391  25.2317125  35.6678273 107.8497899  28.6767367
  35.8006179 107.0528893  29.0048343  36.0523426 108.3764302  29.2565643
  35.7434602 107.8097816  28.8110870  38.7410629 104.7728225  25.2748461
  37.9356592 104.6625955  25.5916299  38.6117364 104.8740681  24.4178326
  38.6030761 104.7711895  25.1956501  42.1976589 110.9373717  25.8688157
  41.6139578 111.4382924  25.4565725  42.5180883 110.4303273  25.2352481
  42.1589764 110.9365552  25.7146665  34.7371388 109.8514312  16.1446832
  35.5587083 110.0212625  15.9028527  34.2741039 110.0061573  15.4213130
  34.7902550 109.8996045  16.0018477  33.3266720 107.8457074  26.9245261
  33.8711133 107.5048201  27.5149603  33.3803656 108.7042536  27.0666546
  33.4155840 107.9212334  27.0327134  52.5606581 121.4544527  19.9482107
  52.2460022 122.1448005  20.3802529  52.0433523 121.3989309  19.2467608
  52.4371051 121.5479415  19.9079056  47.5942911 122.9368022  16.9182581
  48.3229071 122.7583977  16.4720737  47.6837804 123.7786102  17.1289759
  47.7149573 123.0351900  16.8836099  54.5328866 124.7408514  23.8146706
  55.1754774 124.8106619  24.4008621  54.7851886 124.0737737  23.3126248
  54.6650998 124.6534863  23.8273985  51.1513460 123.4552776  24.2834823
  51.5323972 122.7730947  24.6702698  50.3476745 123.1662378  24.1010488
  51.0889922 123.3119824  24.3138879  51.7870087 124.4975355  28.0954950
  52.5323679 124.3085165  27.6818375  51.3707391 125.0233593  27.5368806
  51.8355061 124.5477500  27.9519523  51.9781116 119.5638548  21.8948757
  52.0964685 120.0215012  21.1616059  51.8043292 118.7583810  21.6084974
  51.9700287 119.5132321  21.7449690  48.9458680 121.4189351  22.8367419
  48.0752238 121.3928072  22.7900728  49.1999022 121.2466543  22.0193264
  48.8552240 121.3899495  22.7087555  48.0400054 123.9688539  26.1233742
  47.6531807 123.9937571  26.9047271  47.5532991 123.4030218  25.6708258
  47.9112563 123.8884290  26.1721645  47.7057196 120.8555525  28.4144001
  48.3350314 121.3915825  28.1365072  47.8743059 120.7632884  29.2657567
  47.8234990 120.9216887  28.4992530  51.1981114 123.3891413  21.3829303
  51.4030708 123.3213721  22.2286300  50.8707538 124.1950235  21.3150481
  51.1796362 123.4977354  21.4988958  54.4514802 123.9423178  20.8632069
  53.8389116 124.4293580  21.2485801  54.5478977 123.2666668  21.4069720
  54.3752700 123.9141486  21.0010927  49.7310643 122.5722365  27.7688117
  49.2351205 122.7686040  27.0779683  50.4879705 122.9715034  27.5976918
  49.7697468 122.6600099  27.6408253  48.5197836 122.4220011  19.6413263
  47.8766154 122.2717657  20.2098402  48.1797243 122.1762356  18.8762368
  48.3742913 122.3632134  19.6116278  54.7049370 121.9553733  22.9017957
  54.1980234 121.2482873  22.8339135  55.5016803 121.6246922  23.0319034
  54.7476609 121.8026885  22.9116952  49.7143212 120.2913533  25.2748461
  48.9089176 120.1811263  25.5916299  49.5849948 120.3925989  24.4178326
  49.5763345 120.2897203  25.1956501   7.7368592  51.7503363  19.2742616
   8.4435360  51.2555394  19.4029551   7.9256528  52.1912445  18.5445274
   7.8696498  51.7421714  19.1851662   4.8760887  55.1730900  17.1656691
   4.9644233  54.9857040  18.0134902   5.3050599  54.5268329  16.7661538
   4.9522989  55.0493907  17.2328443   2.4431347  54.4562060  16.1474354
   1.8802181  54.0434670  16.6714015   3.2052370  54.3814965  16.5667497
   2.4725795  54.3839460  16.2867354   4.9880946  54.6039919  19.8300475
   5.7721363  54.7170767  20.1956217   4.7877541  53.7781056  20.0259161
   5.0746971  54.4986638  19.9134861   4.2052076  50.2610466  21.3687119
   3.4125057  50.5753978  21.5539738   4.3201003  50.4761934  20.5307903
   4.1047487  50.3394302  21.2725453  10.4556017  51.5339647  16.3157269
  10.2194654  50.7027712  16.1969329  11.0999246  51.4825254  16.9012113
  10.5150688  51.4037335  16.3843162   8.0792279  52.4892657  21.8424734
   8.8927145  52.2177806  22.0029867   7.9187246  52.1900197  21.0384930
   8.1762228  52.4047584  21.7470140   4.6157037  46.1875451  20.5032132
   5.0856668  46.8117568  20.8900006   4.6618917  45.5192427  21.0625347
   4.6924913  46.1810132  20.6432203   8.0913523  53.5498948  17.1147575
   8.7293244  53.0559143  16.7810031   7.4487615  53.4776348  16.5299802
   8.0907750  53.4657956  16.9789930   5.0175395  51.5494782  18.7807011
   4.9771250  50.9044459  18.1952166   5.8298713  51.4931399  19.0932423
   5.1318548  51.4453748  18.7403960   7.6138836  55.0693949  20.8341391
   7.7235802  54.2802510  21.1898139   7.9429733  54.9799886  20.0315730
   7.6791242  54.9399802  20.7683782  22.2007775  61.9126495   4.9129230
  22.1701779  62.7671131   5.0847499  22.7989123  61.6121787   5.4715373
  22.2844933  61.9942991   5.0204032  15.4007459  61.0002146   9.6682160
  14.5445355  61.1610644   9.7191277  15.4475113  60.1294210   9.6887221
  15.2806571  60.8952947   9.6788226  18.7101176  67.2688671  19.2742616
  19.4167943  66.7740702  19.4029551  18.8989111  67.7097753  18.5445274
  18.8429082  67.2607022  19.1851662  14.7777850  72.9104502   6.8016050
  15.1617230  73.4791400   6.2620825  14.7136992  72.1854012   6.3221866
  14.8251278  72.8879965   6.6509913  18.2459281  63.0594189  12.3113812
  18.7915241  63.7379276  12.3707781  18.1876157  62.9181650  11.4515393
  18.3175195  63.1386191  12.1925872  20.0224349  64.4878797   3.1847539
  19.9063875  65.2386483   3.6139678  20.8180236  64.2302750   3.4343626
  20.1228939  64.5613643   3.2851631   6.5857620  62.2841554  12.4662374
   6.4616317  62.8704000  13.1012193   7.2375905  61.7901750  12.7674649
   6.6631269  62.2980359  12.6048304  11.6115961  65.4603271  11.7449885
  12.2564964  64.9675715  11.4260834  11.8517738  65.6028058  12.5715964
  11.7426546  65.4080714  11.8199419  14.1502052  68.3058177  11.3956778
  14.4325295  67.5109583  11.1743534  14.8788213  68.7838765  11.4161839
  14.2991616  68.2592774  11.3659793  24.1320141  67.4117539   8.3692609
  23.3017844  67.6228183   8.5326025  24.0829393  66.5854594   8.0934892
  24.0026876  67.3207146   8.3529974  12.1929878  70.2421394  11.2040518
  11.6756820  69.8828809  10.6001826  12.8904270  69.7183568  11.2146584
  12.2195460  70.1119082  11.1170777  15.8493470  70.6916208  17.1656691
  15.9376816  70.5042348  18.0134902  16.2783183  70.0453637  16.7661538
  15.9255573  70.5679215  17.2328443  13.4163930  69.9747368  16.1474354
  12.8534765  69.5619977  16.6714015  14.1784954  69.9000273  16.5667497
  13.4458379  69.9024768  16.2867354  23.6274099  60.0587940  12.1643030
  22.7902520  60.1290127  12.3990625  23.5962330  60.0612435  11.2917333
  23.4992382  60.0698167  12.0702578  10.0238828  62.2020976  17.8791399
  10.1959332  62.0926870  18.7276680  10.5608186  62.8475381  17.6422591
  10.1283832  62.2812977  17.9696496   8.9263400  68.5752616  12.5609897
   9.4661625  68.4323747  13.2313270   8.2433346  68.9749367  12.9293924
   8.9055554  68.6132287  12.7144319  18.3504285  64.2543617   7.7554922
  19.1061800  64.6875131   7.7943830  18.4566609  63.6048386   8.3289558
  18.4774456  64.2221100   7.8452947  21.3884456  68.0816894   8.5057325
  20.9519688  68.0853636   9.2616296  21.0547371  68.7622393   8.0736902
  21.2747076  68.1829350   8.5538157  15.9613530  70.1225227  19.8300475
  16.7453946  70.2356075  20.1956217  15.7610124  69.2966364  20.0259161
  16.0479555  70.0171946  19.9134861   4.3300545  64.7952907  12.7144319
   4.0638960  63.9792024  12.8735309   4.3439109  64.8406062  11.8439834
   4.2925267  64.6809812  12.6097801  21.3081939  55.1230722  10.7486753
  21.9507847  55.1928826  11.3348668  21.5604960  54.4559945  10.2466294
  21.4404071  55.0357070  10.7614032   9.0799151  58.3331285  15.3611327
   8.3870948  57.8628265  15.6072058   9.6959479  58.1069590  15.9353034
   9.0683681  58.2298417  15.4820479  16.1183923  72.0335329  13.4766931
  15.3199169  71.7934829  13.7340799  16.5669934  72.0849722  14.2233978
  16.0658534  72.0057720  13.6251855  24.5228802  64.7997814   7.3976962
  25.1845236  64.2388482   7.2972870  23.8820214  64.3049845   7.7229653
  24.5257670  64.6434223   7.4309302  20.8093633  65.8163196   7.1388951
  21.0449222  65.9608395   6.3115801  20.9583197  66.5805604   7.5320464
  20.8659436  65.9502251   7.0752555   7.8039710  62.2996689  16.5038172
   8.5279683  62.2849720  16.9903066   7.9055847  63.0092044  16.0060140
   7.9257919  62.4021392  16.5016959  22.6384090  64.6564862   4.9758554
  22.9692307  65.1892502   4.3698649  23.2117178  64.7103750   5.6320505
  22.7717769  64.7434431   4.9836336  15.1784660  65.7795774  21.3687119
  14.3857641  66.0939286  21.5539738  15.2933587  65.9947242  20.5307903
  15.0780070  65.8579610  21.2725453  17.8515979  62.5029765   5.6582135
  17.9462833  63.2419059   6.1121760  17.2274822  62.0747240   6.0916699
  17.7725009  62.5491085   5.7890282  16.1068453  65.6815977  16.3072415
  16.6807314  65.0443222  16.4620979  16.0283256  65.6820060  15.4382073
  16.1801688  65.5881089  16.2018826  11.4632171  64.1139243   8.3593613
  11.2051416  63.2810977   8.3324912  11.5180654  64.3396856   7.5186113
  11.4331949  64.0237014   8.2313750  14.1040172  60.1400354  13.7050886
  13.7154605  59.7154572  13.0503077  13.4394870  60.3882504  14.2127913
  13.9487100  60.1139075  13.6838754  23.7463441  59.8975359   6.4798716
  23.4900006  59.0855300   6.2896599  24.5892755  59.9052926   6.2528903
  23.8329467  59.7787356   6.4183533  17.9266534  53.8374983  11.2174870
  18.3077045  53.1553154  11.6042744  17.1229818  53.5484585  11.0350535
  17.8642995  53.6942032  11.2478926  21.4288600  67.0524955  16.3157269
  21.1927238  66.2213020  16.1969329  22.0731829  67.0010562  16.9012113
  21.4883271  66.9222643  16.3843162  11.0787019  67.8420476   7.0300005
  11.7160966  67.6032224   7.5751798  11.5042090  68.0457635   6.2953166
  11.2363185  67.8371487   7.0017162  11.8858374  56.3429181  21.0837479
  11.5711815  57.1128744  20.8207041  11.5648307  55.7799437  20.4989706
  11.7917293  56.3739450  20.9578829  22.4525021  66.8369404  12.3785563
  22.1470838  67.5697461  12.7398879  21.7331237  66.4307333  12.0978349
  22.3012363  66.8851137  12.3898700  13.4608491  68.3192899   8.7093791
  13.5347499  68.1568071   9.5635641  14.2777997  68.5083089   8.4654273
  13.5924849  68.3229641   8.7991817  28.1526813  63.4762404  11.7053907
  28.0851314  63.4958364  10.8356494  28.1382476  64.3192732  11.9309578
  28.1405570  63.6036139  11.6106384  18.5623160  54.8797562  15.0294997
  19.3076752  54.6907373  14.6158422  18.1460464  55.4055800  14.4708853
  18.6108134  54.9299708  14.8859570  25.9385431  62.2506791   9.9800502
  26.4893352  61.6174860  10.2197594  25.9229546  62.7822183  10.6716006
  26.0170627  62.2355739  10.1179360  12.5907821  66.0845388  14.5260395
  12.0919515  66.7961156  14.6045284  13.4008046  66.4046055  14.4878558
  12.6363928  66.2372237  14.5316964   8.8535939  65.3468341   8.7723116
   8.5649188  64.7205812   9.3068843   9.7219287  65.2888628   8.8387797
   8.9396191  65.2455885   8.8614071  19.6413837  60.4903124   9.0905098
  19.2978603  59.7693460   9.4412348  19.7406879  60.2816976   8.2483456
  19.6055880  60.3527328   9.0176778  20.1026866  66.9528828   4.6329086
  20.6684899  67.6122038   4.5487629  19.4554769  67.2978527   5.1045488
  20.0905622  67.1010770   4.6901843  11.5174879  58.9426432  19.8222694
  10.7074655  59.2484212  19.7112536  11.9949566  59.6632015  19.9375278
  11.4678358  59.0941034  19.8229765  10.3766439  68.1572153  10.0705597
   9.8547193  68.2972445  10.7557461  10.7640459  67.3982818  10.2607714
  10.3570140  68.0657677  10.2006673  16.5733444  69.8967613   4.0566165
  16.3320120  69.1635473   3.6493230  16.7534777  70.4454470   3.4032499
  16.5641068  69.8690004   3.8996388  18.1604802  58.4094709  10.9664641
  17.3215903  58.4355988  10.7302904  18.2309170  59.0565445  11.5469988
  18.0473196  58.5090835  11.0173758   7.8518911  64.4788983  14.6922096
   8.3640008  64.7573236  14.0430856   7.5655254  65.2178277  15.0584909
   7.8853774  64.6291336  14.6511974  22.0362326  63.6162696   8.2525883
  21.9496301  63.7718122   9.1060662  21.5812806  64.2600771   7.8785288
  21.9565583  63.7338451   8.3232989  11.3702637  56.5715371  14.7523137
  11.1785834  56.5870506  15.6022561  12.2201233  56.7679046  14.7289792
  11.4678359  56.6029723  14.8746432   5.7549550  59.1006353  12.7306954
   5.6135042  58.2490293  12.8551462   6.0390113  59.1435013  11.9069160
   5.7757396  58.9806103  12.6274578  19.8036191  67.6456802  10.6638223
  19.6650550  68.3437848  11.1686966  19.0236189  67.4905459  10.3074405
  19.6679418  67.7256969  10.6864498  18.1414276  63.9453178  16.9160605
  18.1362315  63.0732994  16.9203032  18.8475270  64.1441347  16.4430061
  18.2459280  63.8457052  16.8467640  11.8685169  63.6730162  16.2874425
  12.0128545  64.2531370  15.6517535  12.2160818  64.0506458  16.9924280
  11.9412631  63.8150866  16.2973420  14.0405087  62.8720330  14.0699557
  13.2928401  63.0651344  13.6647835  14.1946612  62.0465550  13.8323678
  13.9527514  62.7785441  13.9744963  10.9412924  71.8632933  13.1535452
  11.0902488  71.3035849  12.5008857  11.7212926  71.9424935  13.5367971
  11.0787018  71.7918499  13.1132401  13.4666225  72.0347576  14.4319943
  13.3909896  71.3656387  14.9870731  13.3956084  72.7365364  14.9460609
  13.4446832  72.0392484  14.5896791  14.2806864  56.7670881  14.9594961
  14.7379478  57.4994855  15.0867753  14.3563193  56.3437346  15.7182216
  14.3597834  56.8128119  15.0896037   6.5239855  57.0136700  16.0484404
   5.9882044  56.4017059  16.3645172   6.5857620  57.5884836  16.7018071
   6.4535488  57.0083628  16.1919831  14.1236472  70.5548575   5.2643549
  14.8886363  70.2858219   4.9426213  14.0214562  70.0698586   5.9813612
  14.2217967  70.4438140   5.3223376  12.1589242  58.7572985  11.8036785
  11.3685316  58.5764445  12.1254120  12.5549865  57.9799937  11.7867079
  12.1006118  58.6160446  11.8489333  17.5432928  66.3915415   9.5296231
  16.8677930  66.1600647  10.0309618  17.5525304  65.7836598   8.9038336
  17.4451433  66.2674340   9.5112383  14.6727072  61.2333244  16.2860284
  14.6086213  62.0943200  16.1580420  14.8124260  60.9165237  15.4855835
  14.6842542  61.3133410  16.1488496  19.5449663  69.2480547   1.7606408
  19.6269500  70.0547533   1.4367859  20.0299405  69.2676506   2.4847182
  19.6286820  69.3701210   1.8193307  13.3546166  63.9265383  10.4276486
  12.9308415  64.1269882   9.6915505  13.1791021  63.0794231  10.5400786
  13.2657046  63.8314165  10.3350177  12.8557859  75.4415896  12.8897944
  13.3453790  74.7426685  12.7073608  12.2842092  75.1439766  13.4774001
  12.8442389  75.2942120  12.9498984  19.0524863  68.0077965  21.8424734
  19.8659728  67.7363114  22.0029867  18.8919829  67.7085505  21.0384930
  19.1494811  67.9232891  21.7470140  16.3297025  58.6911623  14.7820123
  16.5438994  58.0522537  14.2283477  15.7130924  59.1357446  14.3527984
  16.2702354  58.6621766  14.6370554  17.7401693  71.6130371   6.2274344
  17.3481484  71.3097086   5.5097210  17.8954765  72.4499461   6.0379297
  17.7055283  71.6914208   6.0930841  18.4936113  60.3000688  15.7203430
  17.6812795  59.9926578  15.8016602  18.9526047  59.8199688  16.2846142
  18.4416498  60.1837180  15.8158024  17.9041367  68.1780360   6.1680374
  17.5456022  68.3495003   6.9444406  17.4180078  68.6393565   5.6108373
  17.7800064  68.2719331   6.2005643  15.5889620  61.7060759  20.5032132
  16.0589251  62.3302876  20.8900006  15.6351501  61.0377735  21.0625347
  15.6657496  61.6995439  20.6432203  14.8153127  54.3510747  13.0573788
  14.4284881  54.3759778  13.8387318  14.3286065  53.7852425  12.6048305
  14.6865636  54.2706498  13.1061692  19.0646107  69.0684256  17.1147575
  19.7025827  68.5744451  16.7810031  18.4220198  68.9961656  16.5299802
  19.0640333  68.9843264  16.9789930  20.7903107  60.9173402  11.6813491
  20.3630715  60.8299750  10.9261590  20.1529160  61.0251177  12.2668335
  20.6332714  60.9206062  11.6558932  14.4810269  51.2377732  15.3484048
  15.1103387  51.7738032  15.0705119  14.6496132  51.1455091  16.1997614
  14.5988064  51.3039094  15.4332576  14.2824184  56.0248927  17.6210460
  15.1097613  55.7534076  17.6769074  14.3032030  56.8209769  17.9774278
  14.4077034  56.1028681  17.6825643  19.1200363  69.7604064  13.7552932
  19.9092742  69.4093129  13.8755013  19.2943961  70.5740452  13.4929566
  19.2620645  69.8289921  13.7340800   8.8593674  63.1712790  10.8080721
   8.0181680  63.0716664  11.0159614   9.0683682  63.9408270  11.1595041
   8.7658366  63.2704833  10.8908035  12.6710339  61.0994189  10.0578318
  12.3673476  60.5450177  10.6588726  11.9689759  61.2786399   9.5706352
  12.5226549  61.0438971  10.0748024  10.7328690  68.3143910  14.7650416
  10.6249045  68.3245972  15.6312474  10.9424471  69.1398690  14.5755370
  10.7478801  68.4384984  14.8654507   8.7502482  65.5656552  12.2272353
   8.1590415  66.2066050  12.1975369   9.5123505  65.9894169  12.2003653
   8.7750742  65.7232390  12.2187501   9.1463105  56.7258550  12.8940371
   9.6064586  56.7997479  13.6315495   9.1919211  57.5239804  12.5440192
   9.2213660  56.8552697  12.9513128  10.7946454  57.3925245  17.4612398
  10.4032019  56.7458592  17.8968176  10.9632317  57.9836680  18.0806654
  10.7617365  57.3839513  17.6175104  24.8692903  65.3962322  13.2249632
  24.9276027  65.8448970  13.9709608  24.2359371  65.8061135  12.7879712
  24.7844198  65.5236056  13.2702180  18.5091998  71.0165864   9.6604378
  18.3111687  71.5056678   8.9660589  17.8879709  71.2207105  10.2388511
  18.3879562  71.1182402   9.6427601  15.5577852  58.3576234   9.9008541
  15.0837806  57.8317996  10.4113852  15.9295988  57.8105707   9.3323403
  15.5427741  58.1992230   9.8923689   5.9350882  60.3547740  15.2692087
   6.7976495  60.2543450  15.1829417   5.6042665  59.7742450  14.7077659
   6.0136079  60.2539367  15.1737493  21.8214583  63.4178609  11.3115322
  21.5812806  62.5785025  11.3157748  22.3006590  63.4978776  12.0356096
  21.8566766  63.3060009  11.4190124  23.8219770  60.1980067   9.2644581
  23.5829540  60.1575901   8.4265366  23.9853671  61.0451219   9.3910302
  23.8110073  60.3172152   9.1598063  20.4265800  64.5830016  15.1949626
  21.1499999  64.1302542  15.0160646  20.1615762  64.8634682  14.4121954
  20.4947073  64.5580984  15.0528342   9.2952668  59.1790189  11.9302505
   8.6705738  59.1908581  11.3228458   8.9598263  59.6550365  12.5793746
   9.1538160  59.2508706  11.9359074   6.0078344  67.2390650  13.3706270
   5.4778268  66.5483088  13.4201244   6.2803437  67.2300835  12.5418978
   5.9703066  67.1357781  13.2553686  16.2084589  64.6813894  13.3444641
  15.5941583  64.1371944  13.6393277  16.7251874  64.1678131  12.8650457
  16.1940252  64.5250303  13.3168870  15.4480887  65.7518164  11.0788940
  15.0208495  65.1267883  10.6454375  15.4405831  65.4693086  11.9047947
  15.3840028  65.6170945  11.1368768   8.5643414  60.7883337  14.1477374
   8.7236900  60.0326661  14.5529096   8.3836307  61.3374277  14.8018112
   8.5608773  60.7577151  14.3040080  16.5063717  52.9544573  14.7028163
  16.0104278  53.1508247  14.0119730  17.2632779  53.3537241  14.5316965
  16.5450541  53.0422307  14.5748300  13.7766596  56.6286919  11.2931474
  13.8009083  56.0947031  10.6044254  14.0278070  56.1204228  11.9557065
  13.8176515  56.4747823  11.2896119  12.2397531  64.9218477  18.7757513
  11.3893162  65.0590191  18.9115158  12.4025659  64.1882255  19.2205215
  12.1381395  64.8332578  18.8613112  11.4782282  61.8718247  12.9711117
  10.6474212  62.0392065  12.7646365  11.4233799  61.4954198  13.7560003
  11.3471697  61.8407978  13.0559645   9.2866065  55.3627140  18.6067528
   9.9118769  54.8189272  18.8796960   8.8316545  54.8822057  18.0375318
   9.3114326  55.2116621  18.5629122  22.8601114  63.5456427  13.6980176
  23.4518954  64.1853677  13.7298374  23.2960108  62.8479463  13.9872243
  23.0119545  63.5374777  13.7461009  14.6894504  67.9673799  14.3238070
  14.1819595  68.5209646  14.7678700  14.3921150  68.0282089  13.5056844
  14.5699389  68.0580110  14.2686527  16.8556686  56.3327119  13.1662733
  17.2811757  55.8799645  12.5546259  16.2413679  55.7787189  13.4427520
  16.8285331  56.1841095  13.1167758  19.8850255  60.7601645   5.9983318
  19.2141445  61.3031348   5.8696384  20.5790006  61.2296501   5.7565013
  19.8879123  60.9099917   5.9438846  13.9336989  72.8998357  11.2295077
  13.7102643  72.1417187  11.5979103  13.4446832  72.9296379  10.5075516
  13.8280438  72.7920582  11.1771818  20.0478383  57.2157529   8.9073692
  20.4005993  56.7887252   9.5819490  19.1893184  57.1308373   9.0374768
  19.9727827  57.1402270   9.0268702  18.0461649  60.4792898  12.8558534
  18.0259576  60.2976193  13.7093313  18.0940849  61.3504916  12.8318118
  18.0496290  60.5809436  12.9781829  15.9907978  67.0680090  18.7807011
  15.9503833  66.4229767  18.1952166  16.8031297  67.0116707  19.0932423
  16.1051132  66.9639056  18.7403960  12.5815446  73.1198815   8.6832161
  12.1675845  72.4572946   8.2936003  13.2662820  73.2676674   8.1627856
  12.6213818  73.0439474   8.5488659  15.9480740  72.2788901   9.4355778
  15.5497023  72.3891171   8.6676598  15.3331960  72.4870967  10.0182338
  15.7979629  72.3262469   9.4087077  11.6785687  60.6977026  15.3356768
  11.1664590  60.0898209  15.6941800  11.5065183  61.4133619  15.8030744
  11.5775324  60.7140325  15.4572992   6.5251402  59.1414601  17.9859130
   6.3553992  59.8015976  17.4407337   6.0817352  59.3521163  18.7071619
   6.4350735  59.2700584  18.0120759  23.6822583  66.8540867   2.8198869
  24.0656189  67.6032224   3.0496966  22.8866696  67.1006687   2.5610858
  23.6216365  67.0010561   2.8156442  15.5554757  58.6201271  17.7759024
  16.1126188  58.3915080  17.1437489  15.2315822  59.3806936  17.4994236
  15.5901168  58.6985107  17.6415521   3.4253466  62.0461467  13.2447620
   2.8780186  61.3762113  13.3628488   4.2145844  61.6791315  13.3091087
   3.4605650  61.8926453  13.2716320  13.2737875  61.7068924  18.7411031
  14.0249202  62.0220601  19.0550585  13.4660451  61.5048095  17.9144953
  13.4129289  61.7236306  18.6654427  17.8464017  62.5139992   9.6371033
  18.3417682  61.7962987   9.5975053  17.0363793  62.2110790   9.5225520
  17.8007910  62.3637638   9.6144759  19.9115836  65.2643680  12.3248162
  20.3370907  64.7418101  11.7718587  19.5472756  65.8624517  11.8036785
  19.9202438  65.2753907  12.1657172   9.5469916  73.5607897  11.0845507
   9.8616475  74.3744286  11.0923289   9.9563329  73.1758116  11.7527667
   9.6538014  73.6236600  11.1849599  16.4994435  68.9777944   8.6549319
  16.9705613  69.6918207   8.8239305  16.8354614  68.3776694   9.1909189
  16.6189550  68.9949408   8.7581695  18.5871420  70.5879257  20.8341391
  18.6968385  69.7987818  21.1898139  18.9162316  70.4985193  20.0315730
  18.6523826  70.4585110  20.7683782  13.4163930  53.7505415  15.6107414
  13.5491836  52.9536408  15.9388390  13.8009083  54.2771818  16.1905690
  13.4920259  53.7105331  15.7450917  17.1368382  68.7695878  15.4177012
  16.5889328  68.1453762  15.1497077  17.5981410  68.9590150  14.7021091
  17.1235591  68.7054928  15.2727443  19.9462246  56.8381233  12.8028204
  19.3625235  57.3390439  12.3905772  20.2666540  56.3310789  12.1692528
  19.9075421  56.8373068  12.6486712  11.0752377  53.7464590  13.8585308
  11.6196790  53.4055716  14.4489650  11.1289313  54.6050051  14.0006592
  11.1641496  53.8219849  13.9667181   6.8882936  67.5081006  10.7324116
   7.4927793  67.4676840  10.1037937   6.6810248  68.3552158  10.7628172
   6.9471833  67.6269008  10.6440232  16.7026708  69.7746951  11.9486353
  17.5225082  69.6309917  12.2102648  16.4220785  70.3993150  12.4902791
  16.7823451  69.8457303  12.0674293  33.1740358  77.4311802   4.9129230
  33.1434363  78.2856439   5.0847499  33.7721707  77.1307095   5.4715373
  33.2577516  77.5128299   5.0204032  26.3740043  76.5187453   9.6682160
  25.5177939  76.6795952   9.7191277  26.4207697  75.6479517   9.6887221
  26.2539155  76.4138255   9.6788226  29.6833760  82.7873979  19.2742616
  30.3900527  82.2926010  19.4029551  29.8721695  83.2283061  18.5445274
  29.8161665  82.7792329  19.1851662  25.7510434  88.4289810   6.8016050
  26.1349813  88.9976708   6.2620825  25.6869575  87.7039320   6.3221866
  25.7983861  88.4065273   6.6509913  29.2191864  78.5779497  12.3113812
  29.7647824  79.2564584  12.3707781  29.1608740  78.4366958  11.4515393
  29.2907778  78.6571499  12.1925872  30.9956933  80.0064104   3.1847539
  30.8796459  80.7571791   3.6139678  31.7912819  79.7488058   3.4343626
  31.0961522  80.0798951   3.2851631  17.8321071  74.2574581  10.2218805
  17.2126102  73.6667228  10.0528820  17.7304934  74.8486016   9.5883129
  17.7258746  74.2578663  10.1023795  24.9288966  75.9974122   4.5551269
  25.6269131  76.1762250   5.0472732  25.2441299  75.4744462   3.9321658
  25.0784304  75.9467895   4.5353279  17.5590204  77.8026862  12.4662374
  17.4348901  78.3889308  13.1012193  18.2108488  77.3087058  12.7674649
  17.6363853  77.8165667  12.6048304  25.1176902  82.3844567   4.5431060
  25.5570537  81.7761668   4.9885833  24.9681565  82.0051941   3.7716525
  25.1598367  82.2383039   4.4950227  22.5848545  80.9788579  11.7449885
  23.2297547  80.4861022  11.4260834  22.8250322  81.1213366  12.5715964
  22.7159130  80.9266022  11.8199419  25.1234636  83.8243485  11.3956778
  25.4057879  83.0294891  11.1743534  25.8520796  84.3024073  11.4161839
  25.2724200  83.7778082  11.3659793  23.1015830  71.3666519   8.6372543
  22.7719160  71.8177663   7.9676242  22.4260832  71.2882682   9.1845550
  22.9526266  71.4217654   8.6195766  28.7186238  80.7371749   1.4961829
  28.6337533  81.5932715   1.6411398  29.2070621  80.4616073   2.1643988
  28.7775136  80.8229070   1.6163911  30.3092238  67.3552042   6.8822154
  29.9945679  68.0455521   7.3142576  29.7919179  67.2996824   6.1807654
  30.1856708  67.4486931   6.8419103  29.6504671  77.3556543   2.9959564
  29.1216143  77.5716176   3.6556871  30.1729691  78.0492681   2.9160534
  29.6493124  77.4899680   3.0815164  35.1052724  82.9302847   8.3692609
  34.2750428  83.1413491   8.5326025  35.0561977  82.1039902   8.0934892
  34.9759460  82.8392454   8.3529974  23.1662462  85.7606702  11.2040518
  22.6489404  85.4014117  10.6001826  23.8636853  85.2368876  11.2146584
  23.1928043  85.6304390  11.1170777  26.8226054  86.2101516  17.1656691
  26.9109400  86.0227656  18.0134902  27.2515766  85.5638945  16.7661538
  26.8988156  86.0864523  17.2328443  24.3896514  85.4932676  16.1474354
  23.8267349  85.0805285  16.6714015  25.1517537  85.4185581  16.5667497
  24.4190962  85.4210076  16.2867354  25.9981494  77.4985412   0.2735953
  26.2377497  77.7063396  -0.5388704  26.3197335  76.6942920   0.3824897
  26.0818652  77.4099513   0.1696506  21.3071784  69.4278808   4.1195491
  22.0617752  69.7957125   3.8812541  21.1299319  69.8018362   4.8874670
  21.3926262  69.5376995   4.1980379  34.6006683  75.5773248  12.1643030
  33.7635104  75.6475435  12.3990625  34.5694914  75.5797743  11.2917333
  34.4724965  75.5883475  12.0702578  20.9971412  77.7206284  17.8791399
  21.1691915  77.6112178  18.7276680  21.5340769  78.3660689  17.6422591
  21.1016416  77.7998285  17.9696496  19.8995984  84.0937924  12.5609897
  20.4394209  83.9509055  13.2313270  19.2165930  84.4934675  12.9293924
  19.8788137  84.1317595  12.7144319  25.3428568  68.8375537   3.8522628
  26.0714728  68.6591492   3.4060784  25.4323461  69.6793617   4.0629806
  25.4635230  68.9359416   3.8176145  29.3236868  79.7728925   7.7554922
  30.0794384  80.2060439   7.7943830  29.4299193  79.1233694   8.3289558
  29.4507039  79.7406408   7.8452947  32.3617040  83.6002202   8.5057325
  31.9252271  83.6038944   9.2616296  32.0279955  84.2807701   8.0736902
  32.2479660  83.7014658   8.5538157  26.9346113  85.6410535  19.8300475
  27.7186530  85.7541382  20.1956217  26.7342708  84.8151672  20.0259161
  27.0212139  85.5357254  19.9134861  15.3033129  80.3138215  12.7144319
  15.0371544  79.4977331  12.8735309  15.3171693  80.3591370  11.8439834
  15.2657851  80.1995120  12.6097801  32.2814523  70.6416030  10.7486753
  32.9240431  70.7114134  11.3348668  32.5337543  69.9745253  10.2466294
  32.4136655  70.5542378  10.7614032  20.0531735  73.8516593  15.3611327
  19.3603532  73.3813573  15.6072058  20.6692062  73.6254898  15.9353034
  20.0416265  73.7483725  15.4820479  27.0916507  87.5520637  13.4766931
  26.2931752  87.3120137  13.7340799  27.5402518  87.6035030  14.2233978
  27.0391118  87.5243028  13.6251855  35.4961386  80.3183122   7.3976962
  36.1577820  79.7573790   7.2972870  34.8552798  79.8235152   7.7229653
  35.4990253  80.1619531   7.4309302  31.7826217  81.3348504   7.1388951
  32.0181806  81.4793703   6.3115801  31.9315780  82.0990912   7.5320464
  31.8392020  81.4687559   7.0752555  18.7772294  77.8181997  16.5038172
  19.5012266  77.8035028  16.9903066  18.8788431  78.5277352  16.0060140
  18.8990503  77.9206700  16.5016959  33.6116673  80.1750170   4.9758554
  33.9424890  80.7077810   4.3698649  34.1849761  80.2289058   5.6320505
  33.7450352  80.2619739   4.9836336  26.1517243  81.2981082  21.3687119
  25.3590224  81.6124593  21.5539738  26.2666171  81.5132550  20.5307903
  26.0512654  81.3764918  21.2725453  28.8248562  78.0215073   5.6582135
  28.9195417  78.7604367   6.1121760  28.2007406  77.5932548   6.0916699
  28.7457592  78.0676393   5.7890282  27.0801036  81.2001285  16.3072415
  27.6539898  80.5628530  16.4620979  27.0015840  81.2005368  15.4382073
  27.1534271  81.1066397  16.2018826  15.6797453  77.9790495  10.1455130
  16.2570955  77.8426946  10.7847375  14.9811514  77.5226279  10.4000714
  15.6618474  77.8912761  10.2777419  29.0771584  79.8663813  -1.1080913
  28.9951746  79.9366000  -0.2425926  29.7151304  80.4293556  -1.2997173
  29.1591421  79.9602784  -1.0090964  22.4364755  79.6324550   8.3593613
  22.1783999  78.7996285   8.3324912  22.4913238  79.8582163   7.5186113
  22.4064533  79.5422322   8.2313750  27.5165805  71.7353001   8.4597706
  26.8122132  71.2462187   8.6181625  27.5650779  71.7475476   7.5886150
  27.4195857  71.6642649   8.3537045  21.4099467  77.1862313   8.8458508
  20.8349058  77.3454481   9.4822469  21.0335143  76.5497722   8.3826958
  21.2702279  77.1160126   8.8713066  25.0772756  75.6585662  13.7050886
  24.6887188  75.2339880  13.0503077  24.4127454  75.9067812  14.2127913
  24.9219683  75.6324383  13.6838754  34.7196025  75.4160667   6.4798716
  34.4632590  74.6040608   6.2896599  35.5625339  75.4238234   6.2528903
  34.8062050  75.2972664   6.4183533  28.8999117  69.3560291  11.2174870
  29.2809629  68.6738462  11.6042744  28.0962401  69.0669893  11.0350535
  28.8375579  69.2127340  11.2478926  26.1811694  79.8884267   1.9027693
  26.9952333  80.1799160   1.7910464  26.1170835  79.2344129   1.3285986
  26.2914433  79.8349462   1.8016530  32.4021184  82.5710263  16.3157269
  32.1659821  81.7398328  16.1969329  33.0464413  82.5195870  16.9012113
  32.4615855  82.4407951  16.3843162  22.0519602  83.3605784   7.0300005
  22.6893549  83.1217532   7.5751798  22.4774674  83.5642943   6.2953166
  22.2095768  83.3556794   7.0017162  22.8590958  71.8614489  21.0837479
  22.5444399  72.6314052  20.8207041  22.5380890  71.2984745  20.4989706
  22.7649877  71.8924758  20.9578829  33.4257605  82.3554712  12.3785563
  33.1203422  83.0882769  12.7398879  32.7063820  81.9492641  12.0978349
  33.2744947  82.4036445  12.3898700  24.4341074  83.8378207   8.7093791
  24.5080082  83.6753379   9.5635641  25.2510580  84.0268396   8.4654273
  24.5657433  83.8414949   8.7991817  39.1259397  78.9947712  11.7053907
  39.0583897  79.0143672  10.8356494  39.1115059  79.8378040  11.9309578
  39.1138153  79.1221447  11.6106384  20.4122855  70.2505011   6.6983675
  19.5445280  70.3227610   6.7641284  20.6998059  71.0527090   6.8871650
  20.3262603  70.3799158   6.7358442  29.5355743  70.3982870  15.0294997
  30.2809335  70.2092681  14.6158422  29.1193048  70.9241108  14.4708853
  29.5840718  70.4485016  14.8859570  36.9118014  77.7692099   9.9800502
  37.4625936  77.1360168  10.2197594  36.8962130  78.3007491  10.6716006
  36.9903211  77.7541047  10.1179360  23.5640405  81.6030696  14.5260395
  23.0652099  82.3146464  14.6045284  24.3740629  81.9231362  14.4878558
  23.6096512  81.7557544  14.5316964  19.8268523  80.8653649   8.7723116
  19.5381771  80.2391120   9.3068843  20.6951871  80.8073936   8.8387797
  19.9128775  80.7641193   8.8614071  30.6146420  76.0088432   9.0905098
  30.2711186  75.2878767   9.4412348  30.7139463  75.8002283   8.2483456
  30.5788463  75.8712636   9.0176778  31.0759449  82.4714136   4.6329086
  31.6417482  83.1307346   4.5487629  30.4287353  82.8163834   5.1045488
  31.0638206  82.6196078   4.6901843  22.4907463  74.4611740  19.8222694
  21.6807239  74.7669520  19.7112536  22.9682150  75.1817323  19.9375278
  22.4410942  74.6126341  19.8229765  21.3499023  83.6757461  10.0705597
  20.8279776  83.8157753  10.7557461  21.7373043  82.9168126  10.2607714
  21.3302723  83.5842985  10.2006673  18.3390207  73.7263270   4.1400551
  18.0515002  73.3564540   3.4032499  19.0260675  74.1958125   3.8784256
  18.3979104  73.7410239   3.9915627  27.5466028  85.4152921   4.0566165
  27.3052703  84.6820781   3.6493230  27.7267360  85.9639778   3.4032499
  27.5373652  85.3875312   3.8996388  22.7765348  80.7061480   5.4687088
  22.5808131  81.3136215   4.8747391  22.9999694  80.0129424   4.9878762
  22.7799989  80.6939006   5.3103168  21.1743878  77.5916218   5.5867956
  21.8966530  77.7557376   5.1271762  20.6951871  78.3125883   5.4807296
  21.2107609  77.7214448   5.5033570  29.1337386  73.9280017  10.9664641
  28.2948486  73.9541296  10.7302904  29.2041753  74.5750752  11.5469988
  29.0205779  74.0276143  11.0173758  18.8251495  79.9974291  14.6922096
  19.3372592  80.2758544  14.0430856  18.5387838  80.7363585  15.0584909
  18.8586358  80.1476644  14.6511974  27.5806664  70.8265394   5.6992257
  28.2833017  70.6273142   5.2212215  27.3150853  70.0541336   6.0061100
  27.6453296  70.6828360   5.6737698  33.0094910  79.1348004   8.2525883
  32.9228884  79.2903430   9.1060662  32.5545390  79.7786079   7.8785288
  32.9298166  79.2523759   8.3232989  22.3435220  72.0900679  14.7523137
  22.1518417  72.1055814  15.6022561  23.1933816  72.2864354  14.7289792
  22.4410942  72.1215030  14.8746432  16.7282133  74.6191661  12.7306954
  16.5867625  73.7675601  12.8551462  17.0122697  74.6620321  11.9069160
  16.7489979  74.4991411  12.6274578  26.8820726  76.4558751   6.8751442
  26.6355440  76.3754502   7.7088231  27.2105849  75.6712219   6.6813970
  26.8941969  76.3285016   6.9698965  30.7768774  83.1642110  10.6638223
  30.6383134  83.8623156  11.1686966  29.9968772  83.0090767  10.3074405
  30.6412001  83.2442277  10.6864498  29.1146860  79.4638486  16.9160605
  29.1094898  78.5918302  16.9203032  29.8207853  79.6626655  16.4430061
  29.2191864  79.3642360  16.8467640  22.8417753  79.1915469  16.2874425
  22.9861129  79.7716678  15.6517535  23.1893402  79.5691766  16.9924280
  22.9145214  79.3336174  16.2973420  25.0137670  78.3905638  14.0699557
  24.2660984  78.5836652  13.6647835  25.1679196  77.5650857  13.8323678
  24.9260098  78.2970749  13.9744963  21.9145508  87.3818241  13.1535452
  22.0635072  86.8221157  12.5008857  22.6945510  87.4610243  13.5367971
  22.0519602  87.3103807  13.1132401  32.2722147  82.5220364   1.4254723
  31.8928956  81.7357502   1.4184012  31.6088393  83.0707221   1.2826367
  32.1180622  82.4865188   1.4035520  24.4398809  87.5532884  14.4319943
  24.3642480  86.8841695  14.9870731  24.3688668  88.2550672  14.9460609
  24.4179415  87.5577792  14.5896791  25.2539447  72.2856189  14.9594961
  25.7112061  73.0180163  15.0867753  25.3295776  71.8622654  15.7182216
  25.3330417  72.3313427  15.0896037  17.4972439  72.5322008  16.0484404
  16.9614628  71.9202366  16.3645172  17.5590203  73.1070144  16.7018071
  17.4268071  72.5268936  16.1919831  29.7266773  65.4646064   8.8288804
  29.8450341  65.9222527   8.0956106  29.5528949  64.6591325   8.5425021
  29.7185944  65.4139836   8.6789737  25.0969056  86.0733883   5.2643549
  25.8618947  85.8043527   4.9426213  24.9947145  85.5883893   5.9813612
  25.1950551  85.9623448   5.3223376  23.1321825  74.2758293  11.8036785
  22.3417900  74.0949753  12.1254120  23.5282448  73.4985245  11.7867079
  23.0738701  74.1345753  11.8489333  28.5165512  81.9100723   9.5296231
  27.8410513  81.6785955  10.0309618  28.5257888  81.3021906   8.9038336
  28.4184016  81.7859648   9.5112383  25.6459656  76.7518552  16.2860284
  25.5818797  77.6128508  16.1580420  25.7856843  76.4350545  15.4855835
  25.6575126  76.8318718  16.1488496  30.5182246  84.7665855   1.7606408
  30.6002084  85.5732841   1.4367859  31.0031988  84.7861814   2.4847182
  30.6019404  84.8886517   1.8193307  24.3278749  79.4450691  10.4276486
  23.9040999  79.6455190   9.6915505  24.1523605  78.5979539  10.5400786
  24.2389630  79.3499472  10.3350177  23.8290443  90.9601204  12.8897944
  24.3186373  90.2611993  12.7073608  23.2574675  90.6625074  13.4774001
  23.8174973  90.8127428  12.9498984  26.1540339  79.3160626   4.7297822
  26.6955884  78.8131007   5.1936443  26.4686898  79.2625821   3.9187307
  26.2804736  79.2340047   4.6781634  30.0257446  83.5263273  21.8424734
  30.8392312  83.2548422  22.0029867  29.8652413  83.2270813  21.0384930
  30.1227395  83.4418199  21.7470140  27.3029608  74.2096930  14.7820123
  27.5171578  73.5707845  14.2283477  26.6863508  74.6542754  14.3527984
  27.2434938  74.1807074  14.6370554  28.7134276  87.1315679   6.2274344
  28.3214068  86.8282394   5.5097210  28.8687349  87.9684769   6.0379297
  28.6787866  87.2099516   6.0930841  29.4668696  75.8185996  15.7203430
  28.6545378  75.5111886  15.8016602  29.9258631  75.3384996  16.2846142
  29.4149081  75.7022488  15.8158024  28.8773951  83.6965668   6.1680374
  28.5188606  83.8680311   6.9444406  28.3912662  84.1578873   5.6108373
  28.7532648  83.7904639   6.2005643  26.6944337  67.3196866   9.7707465
  25.8237895  67.2935587   9.7240775  26.9484678  67.1474058   8.9533311
  26.6037897  67.2907010   9.6427602  26.5622204  77.2246067  20.5032132
  27.0321835  77.8488184  20.8900006  26.6084084  76.5563043  21.0625347
  26.6390080  77.2180747  20.6432203  23.7193478  69.3303095  11.2280936
  23.2031966  68.6383286  11.3532515  23.1587406  69.9973872  11.1743535
  23.5599991  69.3266352  11.2387002  25.7885711  69.8696055  13.0573788
  25.4017464  69.8945086  13.8387318  25.3018648  69.3037733  12.6048305
  25.6598220  69.7891805  13.1061692  30.0378690  84.5869564  17.1147575
  30.6758411  84.0929759  16.7810031  29.3952782  84.5146964  16.5299802
  30.0372917  84.5028572  16.9789930  31.7635691  76.4358710  11.6813491
  31.3363299  76.3485058  10.9261590  31.1261743  76.5436485  12.2668335
  31.6065298  76.4391369  11.6558932  25.4542853  66.7563040  15.3484048
  26.0835971  67.2923340  15.0705119  25.6228715  66.6640399  16.1997614
  25.5720647  66.8224402  15.4332576  25.2556768  71.5434235  17.6210460
  26.0830197  71.2719384  17.6769074  25.2764614  72.3395077  17.9774278
  25.3809618  71.6213989  17.6825643  30.0932947  85.2789372  13.7552932
  30.8825325  84.9278437  13.8755013  30.2676545  86.0925760  13.4929566
  30.2353229  85.3475229  13.7340800  19.8326257  78.6898098  10.8080721
  18.9914264  78.5901972  11.0159614  20.0416265  79.4593578  11.1595041
  19.7390950  78.7890141  10.8908035  17.3101824  76.3117635   8.6365471
  16.9158522  76.3860646   7.8615581  16.7541941  76.6975581   9.1873833
  17.1704637  76.3799409   8.6033131  28.9466771  69.2898929   8.3169350
  29.1516365  69.2221236   9.1626347  28.6193195  70.0957750   8.2490528
  28.9282019  69.3984869   8.4329005  23.6442922  76.6179497  10.0578318
  23.3406060  76.0635485  10.6588726  22.9422343  76.7971707   9.5706352
  23.4959132  76.5624279  10.0748024  22.7009019  73.9280017   4.6223020
  22.9768754  73.2098929   4.2100587  23.3007689  74.5264937   4.4144126
  22.8302284  73.9100387   4.5303781  21.7061273  83.8329218  14.7650416
  21.5981628  83.8431280  15.6312474  21.9157055  84.6583998  14.5755370
  21.7211384  83.9570292  14.8654507  32.2000459  69.8430693   7.7972116
  31.5874773  70.3301095   8.1825847  32.2964634  69.1674184   8.3409767
  32.1238357  69.8149002   7.9350974  26.2019540  71.5993534   2.8969615
  26.6563286  71.7704094   3.6217459  26.6759586  70.9861645   2.4967391
  26.3387860  71.5344419   2.9443376  19.7235065  81.0841860  12.2272353
  19.1322999  81.7251358  12.1975369  20.4856089  81.5079477  12.2003653
  19.7483326  81.2417698  12.2187501  20.1195688  72.2443858  12.8940371
  20.5797170  72.3182787  13.6315495  20.1651795  73.0425112  12.5440192
  20.1946243  72.3738005  12.9513128  21.7679038  72.9110553  17.4612398
  21.3764603  72.2643900  17.8968176  21.9364901  73.5021988  18.0806654
  21.7349948  72.9024820  17.6175104  35.8425487  80.9147630  13.2249632
  35.9008611  81.3634278  13.9709608  35.2091954  81.3246442  12.7879712
  35.7576782  81.0421364  13.2702180  29.4824582  86.5351172   9.6604378
  29.2844270  87.0241986   8.9660589  28.8612293  86.7392413  10.2388511
  29.3612146  86.6367710   9.6427601  23.5432560  78.3036068   4.0014622
  24.2874605  78.6910345   4.2397572  23.6893256  77.4593494   4.1655110
  23.6743145  78.2366541   4.0608592  25.4612135  70.0986327   9.0346484
  24.6148180  70.2709135   8.9087833  25.4583268  69.2935671   9.3712312
  25.3359285  70.0047356   9.0657611  26.5310436  73.8761542   9.9008541
  26.0570390  73.3503304  10.4113852  26.9028572  73.3291015   9.3323403
  26.5160325  73.7177538   9.8923689  16.9083466  75.8733048  15.2692087
  17.7709079  75.7728758  15.1829417  16.5775249  75.2927758  14.7077659
  16.9868662  75.7724675  15.1737493  32.7947166  78.9363917  11.3115322
  32.5545389  78.0970332  11.3157748  33.2739174  79.0164084  12.0356096
  32.8299350  78.8245317  11.4190124  28.4593935  74.7698096   2.9634295
  27.9316954  74.8526840   2.2740004  28.9189644  75.5115968   2.9598940
  28.4495786  74.8918759   2.8608990  34.7952353  75.7165375   9.2644581
  34.5562123  75.6761209   8.4265366  34.9586255  76.5636527   9.3910302
  34.7842657  75.8357460   9.1598063  31.3998383  80.1015324  15.1949626
  32.1232582  79.6487850  15.0160646  31.1348346  80.3819990  14.4121954
  31.4679657  80.0766292  15.0528342  20.2685252  74.6975497  11.9302505
  19.6438322  74.7093889  11.3228458  19.9330847  75.1735672  12.5793746
  20.1270744  74.7694014  11.9359074  16.9810927  82.7575957  13.3706270
  16.4510852  82.0668396  13.4201244  17.2536021  82.7486143  12.5418978
  16.9435650  82.6543089  13.2553686  27.1817173  80.1999202  13.3444641
  26.5674166  79.6557252  13.6393277  27.6984458  79.6863439  12.8650457
  27.1672835  80.0435611  13.3168870  26.4213470  81.2703472  11.0788940
  25.9941078  80.6453191  10.6454375  26.4138415  80.9878394  11.9047947
  26.3572611  81.1356253  11.1368768  19.5375997  76.3068645  14.1477374
  19.6969484  75.5511969  14.5529096  19.3568891  76.8559585  14.8018112
  19.5341356  76.2762459  14.3040080  27.4796300  68.4729881  14.7028163
  26.9836861  68.6693555  14.0119730  28.2365362  68.8722549  14.5316965
  27.5183125  68.5607615  14.5748300  24.7499180  72.1472227  11.2931474
  24.7741667  71.6132339  10.6044254  25.0010653  71.6389535  11.9557065
  24.7909099  71.9933131  11.2896119  21.0300502  70.8743045  10.6737218
  21.0698874  71.3752251  11.3871926  20.2050167  70.9653439  10.4043141
  20.9140028  70.9624861  10.7387757  23.2130115  80.4403785  18.7757513
  22.3625745  80.5775499  18.9115158  23.3758243  79.7067563  19.2205215
  23.1113978  80.3517886  18.8613112  22.4514865  77.3903555  12.9711117
  21.6206795  77.5577373  12.7646365  22.3966383  77.0139506  13.7560003
  22.3204280  77.3593286  13.0559645  20.2598649  70.8812448  18.6067528
  20.8851352  70.3374580  18.8796960  19.8049129  70.4007365  18.0375318
  20.2846909  70.7301929  18.5629122  20.8250909  75.6659146   3.5001235
  20.9653870  76.1631610   4.2029876  21.3233442  74.9645441   3.6415449
  20.9191990  75.6361125   3.6252814  33.8333697  79.0641735  13.6980176
  34.4251538  79.7038985  13.7298374  34.2692692  78.3664771  13.9872243
  33.9852129  79.0560085  13.7461009  22.4330115  72.4640233   0.8039254
  22.7545956  71.9843315   0.1498516  22.6957058  73.2739879   0.6130065
  22.5196140  72.5130131   0.6794746  25.6627087  83.4859107  14.3238070
  25.1552178  84.0394954  14.7678700  25.3653733  83.5467397  13.5056844
  25.5431972  83.5765418  14.2686527  27.8289270  71.8512427  13.1662733
  28.2544341  71.3984953  12.5546259  27.2146263  71.2972497  13.4427520
  27.8017915  71.7026403  13.1167758  26.2683492  68.3227526   6.5753310
  25.6251810  68.1725173   7.1438448  25.9282899  68.0769872   5.8102415
  26.1228570  68.2639649   6.5456325  30.8582839  76.2786953   5.9983318
  30.1874029  76.8216656   5.8696384  31.5522589  76.7481809   5.7565013
  30.8611706  76.4285224   5.9438846  24.9069573  88.4183665  11.2295077
  24.6835227  87.6602495  11.5979103  24.4179416  88.4481686  10.5075516
  24.8013022  88.3105890  11.1771818  31.0210966  72.7342837   8.9073692
  31.3738576  72.3072560   9.5819490  30.1625768  72.6493680   9.0374768
  30.9460411  72.6587578   9.0268702  19.7194651  75.3650357   6.9656538
  19.0006640  75.7814489   7.2329402  20.0907014  75.9304595   6.4148176
  19.6686583  75.5099638   6.9239345  29.0194232  75.9978205  12.8558534
  28.9992159  75.8161501  13.7093313  29.0673433  76.8690224  12.8318118
  29.0228873  76.0994744  12.9781829  26.9640562  82.5865397  18.7807011
  26.9236417  81.9415074  18.1952166  27.7763880  82.5302015  19.0932423
  27.0783715  82.4824364  18.7403960  23.5548030  88.6384123   8.6832161
  23.1408428  87.9758254   8.2936003  24.2395404  88.7861982   8.1627856
  23.5946401  88.5624782   8.5488659  26.9213324  87.7974209   9.4355778
  26.5229607  87.9076479   8.6676598  26.3064543  88.0056275  10.0182338
  26.7712213  87.8447777   9.4087077  25.4941226  74.4048356   2.3029918
  24.9006065  74.7265353   1.7514485  25.5316503  73.5589452   2.0951024
  25.4115615  74.3272685   2.1912689  32.4535026  67.8561249   9.8358004
  31.9465891  67.1490388   9.7679182  33.2502460  67.5254438   9.9659081
  32.4962266  67.7034400   9.8456999  28.3699042  74.3627861   5.7331668
  28.1412735  74.3860562   4.8910026  28.6297118  73.5385328   5.8526678
  28.3745230  74.2443941   5.6256866  22.6518271  76.2162334  15.3356768
  22.1397174  75.6083517  15.6941800  22.4797767  76.9318927  15.8030744
  22.5507908  76.2325633  15.4572992  17.4983985  74.6599909  17.9859130
  17.3286576  75.3201284  17.4407337  17.0549935  74.8706471  18.7071619
  17.4083319  74.7885891  18.0120759  21.4243805  72.9004407   7.0285864
  21.9001171  73.2621487   6.3936045  20.9232404  73.5560875   7.3086006
  21.4209164  73.0498596   6.9762605  34.6555166  82.3726175   2.8198869
  35.0388772  83.1217532   3.0496966  33.8599280  82.6191995   2.5610858
  34.5948949  82.5195869   2.8156442  26.5287341  74.1386579  17.7759024
  27.0858771  73.9100388  17.1437489  26.2048406  74.8992244  17.4994236
  26.5633751  74.2170415  17.6415521  14.3986050  77.5646775  13.2447620
  13.8512769  76.8947420  13.3628488  15.1878428  77.1976623  13.3091087
  14.4338234  77.4111761  13.2716320  24.2470458  77.2254232  18.7411031
  24.9981785  77.5405909  19.0550585  24.4393035  77.0233403  17.9144953
  24.3861872  77.2421614  18.6654427  31.0955748  73.3527798   5.9834826
  31.0949975  73.1976455   6.8419103  30.8911928  74.1990785   5.9276212
  31.0655526  73.4548419   6.1022766  13.1573019  76.7767583  10.3993643
  12.9794780  76.3244192  11.1248558  12.8692042  77.5793744  10.5832120
  13.0885973  76.8290141  10.5337146  28.8196600  78.0325300   9.6371033
  29.3150266  77.3148295   9.5975053  28.0096376  77.7296098   9.5225520
  28.7740494  77.8822946   9.6144759  30.8848419  80.7828988  12.3248162
  31.3103491  80.2603409  11.7718587  30.5205339  81.3809825  11.8036785
  30.8935022  80.7939215  12.1657172  20.5202499  89.0793205  11.0845507
  20.8349058  89.8929594  11.0923289  20.9295912  88.6943424  11.7527667
  20.6270597  89.1421907  11.1849599  27.4727019  84.4963252   8.6549319
  27.9438197  85.2103514   8.8239305  27.8087197  83.8962002   9.1909189
  27.5922134  84.5134716   8.7581695  29.5604003  86.1064565  20.8341391
  29.6700969  85.3173126  21.1898139  29.8894900  86.0170501  20.0315730
  29.6256409  85.9770418  20.7683782  24.3896514  69.2690722  15.6107414
  24.5224419  68.4721716  15.9388390  24.7741666  69.7957125  16.1905690
  24.4652843  69.2290639  15.7450917  28.1100965  84.2881186  15.4177012
  27.5621911  83.6639070  15.1497077  28.5713994  84.4775458  14.7021091
  28.0968175  84.2240236  15.2727443  27.4628869  66.1921049  12.2088507
  26.6574833  66.0818778  12.5256346  27.3335604  66.2933504  11.3518373
  27.3249002  66.1904719  12.1296548  30.9194829  72.3566540  12.8028204
  30.3357818  72.8575747  12.3905772  31.2399124  71.8496097  12.1692528
  30.8808005  72.3558375  12.6486712  23.4589629  71.2707135   3.0786879
  24.2805323  71.4405448   2.8368574  22.9959280  71.4254396   2.3553177
  23.5120791  71.3188868   2.9358523  22.0484960  69.2649897  13.8585308
  22.5929373  68.9241024  14.4489650  22.1021896  70.1235359  14.0006592
  22.1374080  69.3405157  13.9667181  17.8615519  83.0266314  10.7324116
  18.4660377  82.9862148  10.1037937  17.6542832  83.8737466  10.7628172
  17.9204417  83.1454316  10.6440232  27.6759291  85.2932259  11.9486353
  28.4957665  85.1495225  12.2102648  27.3953369  85.9178458  12.4902791
  27.7556035  85.3642611  12.0674293  44.1472942  92.9497110   4.9129230
  44.1166946  93.8041747   5.0847499  44.7454291  92.6492403   5.4715373
  44.2310100  93.0313607   5.0204032  37.3472627  92.0372761   9.6682160
  36.4910522  92.1981260   9.7191277  37.3940280  91.1664825   9.6887221
  37.2271738  91.9323563   9.6788226  40.6566343  98.3059287  19.2742616
  41.3633110  97.8111318  19.4029551  40.8454279  98.7468369  18.5445274
  40.7894249  98.2977637  19.1851662  36.7243018 103.9475117   6.8016050
  37.1082397 104.5162016   6.2620825  36.6602159 103.2224628   6.3221866
  36.7716445 103.9250581   6.6509913  40.1924448  94.0964805  12.3113812
  40.7380408  94.7749892  12.3707781  40.1341324  93.9552266  11.4515393
  40.2640362  94.1756807  12.1925872  41.9689516  95.5249412   3.1847539
  41.8529042  96.2757099   3.6139678  42.7645403  95.2673366   3.4343626
  42.0694106  95.5984259   3.2851631  28.8053654  89.7759889  10.2218805
  28.1858686  89.1852536  10.0528820  28.7037518  90.3671324   9.5883129
  28.6991330  89.7763971  10.1023795  35.9021550  91.5159430   4.5551269
  36.6001715  91.6947558   5.0472732  36.2173882  90.9929770   3.9321658
  36.0516887  91.4653203   4.5353279  28.5322787  93.3212170  12.4662374
  28.4081484  93.9074616  13.1012193  29.1841072  92.8272366  12.7674649
  28.6096437  93.3350975  12.6048304  36.0909485  97.9029875   4.5431060
  36.5303121  97.2946976   4.9885833  35.9414148  97.5237249   3.7716525
  36.1330951  97.7568347   4.4950227  33.5581128  96.4973887  11.7449885
  34.2030131  96.0046330  11.4260834  33.7982905  96.6398674  12.5715964
  33.6891713  96.4451329  11.8199419  36.0967220  99.3428793  11.3956778
  36.3790462  98.5480199  11.1743534  36.8253380  99.8209381  11.4161839
  36.2456783  99.2963390  11.3659793  34.0748413  86.8851827   8.6372543
  33.7451744  87.3362971   7.9676242  33.3993415  86.8067990   9.1845550
  33.9258850  86.9402962   8.6195766  39.6918822  96.2557057   1.4961829
  39.6070117  97.1118023   1.6411398  40.1803205  95.9801381   2.1643988
  39.7507719  96.3414378   1.6163911  41.2824821  82.8737350   6.8822154
  40.9678262  83.5640829   7.3142576  40.7651763  82.8182132   6.1807654
  41.1589292  82.9672239   6.8419103  40.6237255  92.8741851   2.9959564
  40.0948727  93.0901484   3.6556871  41.1462275  93.5677989   2.9160534
  40.6225708  93.0084988   3.0815164  46.0785308  98.4488155   8.3692609
  45.2483011  98.6598799   8.5326025  46.0294560  97.6225210   8.0934892
  45.9492043  98.3577762   8.3529974  34.1395046 101.2792009  11.2040518
  33.6221987 100.9199424  10.6001826  34.8369437 100.7554184  11.2146584
  34.1660627 101.1489697  11.1170777  37.7958638 101.7286824  17.1656691
  37.8841983 101.5412964  18.0134902  38.2248350 101.0824253  16.7661538
  37.8720740 101.6049831  17.2328443  35.3629097 101.0117984  16.1474354
  34.7999932 100.5990593  16.6714015  36.1250121 100.9370889  16.5667497
  35.3923546 100.9395384  16.2867354  36.9714077  93.0170720   0.2735953
  37.2110081  93.2248703  -0.5388704  37.2929918  92.2128228   0.3824897
  37.0551235  92.9284821   0.1696506  32.2804368  84.9464115   4.1195491
  33.0350336  85.3142433   3.8812541  32.1031902  85.3203670   4.8874670
  32.3658846  85.0562303   4.1980379  45.5739266  91.0958556  12.1643030
  44.7367687  91.1660743  12.3990625  45.5427497  91.0983051  11.2917333
  45.4457549  91.1068783  12.0702578  31.9703995  93.2391592  17.8791399
  32.1424499  93.1297486  18.7276680  32.5073353  93.8845997  17.6422591
  32.0748999  93.3183593  17.9696496  30.8728567  99.6123232  12.5609897
  31.4126792  99.4694363  13.2313270  30.1898513 100.0119983  12.9293924
  30.8520721  99.6502903  12.7144319  36.3161151  84.3560845   3.8522628
  37.0447312  84.1776800   3.4060784  36.4056044  85.1978925   4.0629806
  36.4367813  84.4544724   3.8176145  40.2969452  95.2914232   7.7554922
  41.0526967  95.7245747   7.7943830  40.4031777  94.6419002   8.3289558
  40.4239623  95.2591716   7.8452947  43.3349623  99.1187510   8.5057325
  42.8984855  99.1224252   9.2616296  43.0012539  99.7993009   8.0736902
  43.2212243  99.2199966   8.5538157  37.9078697 101.1595843  19.8300475
  38.6919113 101.2726690  20.1956217  37.7075291 100.3336980  20.0259161
  37.9944722 101.0542562  19.9134861  26.2765712  95.8323523  12.7144319
  26.0104127  95.0162639  12.8735309  26.2904276  95.8776678  11.8439834
  26.2390435  95.7180427  12.6097801  43.2547106  86.1601338  10.7486753
  43.8973015  86.2299442  11.3348668  43.5070127  85.4930560  10.2466294
  43.3869238  86.0727686  10.7614032  31.0264319  89.3701901  15.3611327
  30.3336115  88.8998881  15.6072058  31.6424646  89.1440205  15.9353034
  31.0148849  89.2669033  15.4820479  38.0649090 103.0705945  13.4766931
  37.2664336 102.8305445  13.7340799  38.5135102 103.1220338  14.2233978
  38.0123701 103.0428336  13.6251855  46.4693969  95.8368430   7.3976962
  47.1310403  95.2759098   7.2972870  45.8285381  95.3420460   7.7229653
  46.4722837  95.6804839   7.4309302  42.7558800  96.8533812   7.1388951
  42.9914389  96.9979011   6.3115801  42.9048364  97.6176220   7.5320464
  42.8124603  96.9872866   7.0752555  29.7504878  93.3367305  16.5038172
  30.4744850  93.3220336  16.9903066  29.8521014  94.0462660  16.0060140
  29.8723087  93.4392008  16.5016959  44.5849257  95.6935478   4.9758554
  44.9157474  96.2263118   4.3698649  45.1582345  95.7474366   5.6320505
  44.7182936  95.7805047   4.9836336  37.1249827  96.8166390  21.3687119
  36.3322808  97.1309901  21.5539738  37.2398754  97.0317858  20.5307903
  37.0245238  96.8950226  21.2725453  39.7981146  93.5400381   5.6582135
  39.8928000  94.2789675   6.1121760  39.1739989  93.1117856   6.0916699
  39.7190176  93.5861701   5.7890282  38.0533620  96.7186593  16.3072415
  38.6272481  96.0813838  16.4620979  37.9748424  96.7190676  15.4382073
  38.1266855  96.6251705  16.2018826  26.6530036  93.4975803  10.1455130
  27.2303539  93.3612254  10.7847375  25.9544098  93.0411587  10.4000714
  26.6351058  93.4098069  10.2777419  40.0504167  95.3849120  -1.1080913
  39.9684330  95.4551308  -0.2425926  40.6883888  95.9478864  -1.2997173
  40.1324005  95.4788092  -1.0090964  33.4097338  95.1509858   8.3593613
  33.1516583  94.3181593   8.3324912  33.4645821  95.3767471   7.5186113
  33.3797116  95.0607630   8.2313750  38.4898389  87.2538309   8.4597706
  37.7854715  86.7647495   8.6181625  38.5383363  87.2660784   7.5886150
  38.3928440  87.1827957   8.3537045  32.3832051  92.7047621   8.8458508
  31.8081642  92.8639789   9.4822469  32.0067727  92.0683030   8.3826958
  32.2434863  92.6345434   8.8713066  36.0505339  91.1770970  13.7050886
  35.6619772  90.7525188  13.0503077  35.3860038  91.4253120  14.2127913
  35.8952267  91.1509691  13.6838754  45.6928608  90.9345975   6.4798716
  45.4365173  90.1225916   6.2896599  46.5357922  90.9423542   6.2528903
  45.7794634  90.8157972   6.4183533  39.8731701  84.8745599  11.2174870
  40.2542213  84.1923770  11.6042744  39.0694985  84.5855201  11.0350535
  39.8108162  84.7312647  11.2478926  37.1544277  95.4069575   1.9027693
  37.9684916  95.6984468   1.7910464  37.0903419  94.7529437   1.3285986
  37.2647016  95.3534770   1.8016530  43.3753768  98.0895571  16.3157269
  43.1392405  97.2583636  16.1969329  44.0196997  98.0381178  16.9012113
  43.4348438  97.9593259  16.3843162  33.0252186  98.8791092   7.0300005
  33.6626133  98.6402840   7.5751798  33.4507257  99.0828251   6.2953166
  33.1828352  98.8742102   7.0017162  33.8323541  87.3799797  21.0837479
  33.5176982  88.1499360  20.8207041  33.5113474  86.8170053  20.4989706
  33.7382460  87.4110066  20.9578829  44.3990188  97.8740020  12.3785563
  44.0936005  98.6068077  12.7398879  43.6796404  97.4677949  12.0978349
  44.2477531  97.9221753  12.3898700  35.4073658  99.3563515   8.7093791
  35.4812666  99.1938687   9.5635641  36.2243164  99.5453704   8.4654273
  35.5390016  99.3600257   8.7991817  50.0991980  94.5133020  11.7053907
  50.0316481  94.5328979  10.8356494  50.0847643  95.3563348  11.9309578
  50.0870737  94.6406755  11.6106384  31.3855438  85.7690319   6.6983675
  30.5177864  85.8412918   6.7641284  31.6730642  86.5712398   6.8871650
  31.2995186  85.8984466   6.7358442  40.5088327  85.9168178  15.0294997
  41.2541919  85.7277988  14.6158422  40.0925631  86.4426416  14.4708853
  40.5573301  85.9670323  14.8859570  47.8850598  93.2877407   9.9800502
  48.4358519  92.6545476  10.2197594  47.8694713  93.8192799  10.6716006
  47.9635794  93.2726355  10.1179360  34.5372989  97.1216004  14.5260395
  34.0384682  97.8331772  14.6045284  35.3473213  97.4416670  14.4878558
  34.5829095  97.2742852  14.5316964  30.8001106  96.3838957   8.7723116
  30.5114355  95.7576428   9.3068843  31.6684454  96.3259244   8.8387797
  30.8861358  96.2826501   8.8614071  41.5879004  91.5273740   9.0905098
  41.2443770  90.8064075   9.4412348  41.6872047  91.3187591   8.2483456
  41.5521047  91.3897943   9.0176778  42.0492033  97.9899444   4.6329086
  42.6150066  98.6492654   4.5487629  41.4019936  98.3349142   5.1045488
  42.0370789  98.1381386   4.6901843  33.4640047  89.9797048  19.8222694
  32.6539822  90.2854828  19.7112536  33.9414733  90.7002631  19.9375278
  33.4143525  90.1311649  19.8229765  32.3231606  99.1942769  10.0705597
  31.8012360  99.3343061  10.7557461  32.7105626  98.4353434  10.2607714
  32.3035307  99.1028293  10.2006673  29.3122790  89.2448578   4.1400551
  29.0247586  88.8749848   3.4032499  29.9993258  89.7143433   3.8784256
  29.3711687  89.2595547   3.9915627  38.5198611 100.9338228   4.0566165
  38.2785287 100.2006089   3.6493230  38.6999944 101.4825085   3.4032499
  38.5106235 100.9060620   3.8996388  33.7497932  96.2246788   5.4687088
  33.5540714  96.8321523   4.8747391  33.9732277  95.5314732   4.9878762
  33.7532573  96.2124314   5.3103168  32.1476462  93.1101526   5.5867956
  32.8699114  93.2742684   5.1271762  31.6684455  93.8311191   5.4807296
  32.1840192  93.2399756   5.5033570  40.1069969  89.4465325  10.9664641
  39.2681070  89.4726604  10.7302904  40.1774337  90.0936060  11.5469988
  39.9938363  89.5461451  11.0173758  29.7984078  95.5159599  14.6922096
  30.3105175  95.7943852  14.0430856  29.5120421  96.2548893  15.0584909
  29.8318942  95.6661952  14.6511974  38.5539248  86.3450702   5.6992257
  39.2565600  86.1458450   5.2212215  38.2883436  85.5726644   6.0061100
  38.6185880  86.2013668   5.6737698  43.9827493  94.6533312   8.2525883
  43.8961468  94.8088738   9.1060662  43.5277973  95.2971387   7.8785288
  43.9030750  94.7709067   8.3232989  33.3167804  87.6085987  14.7523137
  33.1251001  87.6241122  15.6022561  34.1666400  87.8049661  14.7289792
  33.4143526  87.6400338  14.8746432  27.7014717  90.1376969  12.7306954
  27.5600209  89.2860909  12.8551462  27.9855280  90.1805629  11.9069160
  27.7222563  90.0176719  12.6274578  37.8553309  91.9744059   6.8751442
  37.6088024  91.8939810   7.7088231  38.1838432  91.1897527   6.6813970
  37.8674553  91.8470324   6.9698965  41.7501358  98.6827418  10.6638223
  41.6115717  99.3808464  11.1686966  40.9701356  98.5276075  10.3074405
  41.6144585  98.7627585  10.6864498  40.0879443  94.9823794  16.9160605
  40.0827482  94.1103610  16.9203032  40.7940437  95.1811963  16.4430061
  40.1924447  94.8827668  16.8467640  33.8150337  94.7100777  16.2874425
  33.9593712  95.2901986  15.6517535  34.1625985  95.0877074  16.9924280
  33.8877798  94.8521481  16.2973420  35.9870254  93.9090946  14.0699557
  35.2393568  94.1021960  13.6647835  36.1411779  93.0836165  13.8323678
  35.8992681  93.8156057  13.9744963  32.8878092 102.9003549  13.1535452
  33.0367655 102.3406465  12.5008857  33.6678094 102.9795551  13.5367971
  33.0252185 102.8289115  13.1132401  43.2454731  98.0405672   1.4254723
  42.8661540  97.2542810   1.4184012  42.5820976  98.5892529   1.2826367
  43.0913206  98.0050496   1.4035520  35.4131392 103.0718192  14.4319943
  35.3375063 102.4027003  14.9870731  35.3421251 103.7735980  14.9460609
  35.3911999 103.0763099  14.5896791  36.2272031  87.8041497  14.9594961
  36.6844645  88.5365471  15.0867753  36.3028360  87.3807962  15.7182216
  36.3063001  87.8498735  15.0896037  28.4705022  88.0507316  16.0484404
  27.9347212  87.4387674  16.3645172  28.5322787  88.6255452  16.7018071
  28.4000655  88.0454244  16.1919831  40.6999357  80.9831372   8.8288804
  40.8182925  81.4407835   8.0956106  40.5261533  80.1776633   8.5425021
  40.6918528  80.9325144   8.6789737  36.0701639 101.5919191   5.2643549
  36.8351530 101.3228835   4.9426213  35.9679729 101.1069201   5.9813612
  36.1683135 101.4808756   5.3223376  34.1054409  89.7943600  11.8036785
  33.3150484  89.6135061  12.1254120  34.5015032  89.0170553  11.7867079
  34.0471285  89.6531061  11.8489333  39.4898095  97.4286031   9.5296231
  38.8143097  97.1971263  10.0309618  39.4990471  96.8207214   8.9038336
  39.3916600  97.3044956   9.5112383  36.6192239  92.2703860  16.2860284
  36.5551380  93.1313816  16.1580420  36.7589427  91.9535853  15.4855835
  36.6307709  92.3504026  16.1488496  41.4914830 100.2851163   1.7606408
  41.5734667 101.0918149   1.4367859  41.9764572 100.3047122   2.4847182
  41.5751988 100.4071825   1.8193307  35.3011333  94.9635999  10.4276486
  34.8773582  95.1640498   9.6915505  35.1256188  94.1164847  10.5400786
  35.2122214  94.8684780  10.3350177  34.8023026 106.4786512  12.8897944
  35.2918957 105.7797301  12.7073608  34.2307259 106.1810382  13.4774001
  34.7907556 106.3312736  12.9498984  37.1272923  94.8345934   4.7297822
  37.6688468  94.3316315   5.1936443  37.4419482  94.7811129   3.9187307
  37.2537320  94.7525355   4.6781634  40.9990030  99.0448581  21.8424734
  41.8124895  98.7733730  22.0029867  40.8384996  98.7456121  21.0384930
  41.0959978  98.9603507  21.7470140  38.2762192  89.7282238  14.7820123
  38.4904162  89.0893153  14.2283477  37.6596091  90.1728062  14.3527984
  38.2167521  89.6992382  14.6370554  39.6866860 102.6500987   6.2274344
  39.2946652 102.3467702   5.5097210  39.8419932 103.4870077   6.0379297
  39.6520450 102.7284823   6.0930841  40.4401280  91.3371304  15.7203430
  39.6277962  91.0297194  15.8016602  40.8991215  90.8570304  16.2846142
  40.3881665  91.2207796  15.8158024  39.8506535  99.2150976   6.1680374
  39.4921189  99.3865618   6.9444406  39.3645245  99.6764181   5.6108373
  39.7265232  99.3089947   6.2005643  37.6676921  82.8382174   9.7707465
  36.7970479  82.8120895   9.7240775  37.9217262  82.6659366   8.9533311
  37.5770481  82.8092318   9.6427602  37.5354787  92.7431375  20.5032132
  38.0054419  93.3673491  20.8900006  37.5816668  92.0748351  21.0625347
  37.6122663  92.7366055  20.6432203  34.6926061  84.8488403  11.2280936
  34.1764550  84.1568594  11.3532515  34.1319990  85.5159180  11.1743535
  34.5332574  84.8451660  11.2387002  36.7618295  85.3881363  13.0573788
  36.3750048  85.4130394  13.8387318  36.2751232  84.8223041  12.6048305
  36.6330803  85.3077113  13.1061692  41.0111274 100.1054872  17.1147575
  41.6490995  99.6115067  16.7810031  40.3685366 100.0332272  16.5299802
  41.0105501 100.0213880  16.9789930  42.7368274  91.9544017  11.6813491
  42.3095882  91.8670366  10.9261590  42.0994327  92.0621793  12.2668335
  42.5797881  91.9576677  11.6558932  36.4275436  82.2748348  15.3484048
  37.0568554  82.8108648  15.0705119  36.5961299  82.1825707  16.1997614
  36.5453231  82.3409710  15.4332576  36.2289351  87.0619543  17.6210460
  37.0562781  86.7904692  17.6769074  36.2497197  87.8580384  17.9774278
  36.3542201  87.1399297  17.6825643  41.0665531 100.7974680  13.7552932
  41.8557909 100.4463745  13.8755013  41.2409128 101.6111068  13.4929566
  41.2085812 100.8660537  13.7340800  30.8058841  94.2083406  10.8080721
  29.9646848  94.1087280  11.0159614  31.0148849  94.9778886  11.1595041
  30.7123534  94.3075449  10.8908035  28.2834408  91.8302942   8.6365471
  27.8891106  91.9045954   7.8615581  27.7274525  92.2160889   9.1873833
  28.1437220  91.8984717   8.6033131  39.9199355  84.8084237   8.3169350
  40.1248948  84.7406544   9.1626347  39.5925779  85.6143058   8.2490528
  39.9014603  84.9170177   8.4329005  34.6175506  92.1364805  10.0578318
  34.3138643  91.5820793  10.6588726  33.9154927  92.3157015   9.5706352
  34.4691716  92.0809587  10.0748024  33.6741603  89.4465325   4.6223020
  33.9501337  88.7284237   4.2100587  34.2740272  90.0450244   4.4144126
  33.8034868  89.4285695   4.5303781  32.6793857  99.3514525  14.7650416
  32.5714212  99.3616588  15.6312474  32.8889638 100.1769306  14.5755370
  32.6943968  99.4755600  14.8654507  43.1733042  85.3616001   7.7972116
  42.5607356  85.8486403   8.1825847  43.2697217  84.6859492   8.3409767
  43.0970940  85.3334310   7.9350974  37.1752123  87.1178842   2.8969615
  37.6295870  87.2889402   3.6217459  37.6492169  86.5046953   2.4967391
  37.3120444  87.0529727   2.9443376  30.6967649  96.6027168  12.2272353
  30.1055582  97.2436666  12.1975369  31.4588672  97.0264785  12.2003653
  30.7215910  96.7603006  12.2187501  31.0928272  87.7629166  12.8940371
  31.5529753  87.8368095  13.6315495  31.1384378  88.5610420  12.5440192
  31.1678827  87.8923313  12.9513128  32.7411621  88.4295860  17.4612398
  32.3497187  87.7829208  17.8968176  32.9097484  89.0207296  18.0806654
  32.7082532  88.4210128  17.6175104  46.8158070  96.4332938  13.2249632
  46.8741194  96.8819586  13.9709608  46.1824538  96.8431750  12.7879712
  46.7309366  96.5606672  13.2702180  40.4557165 102.0536479   9.6604378
  40.2576854 102.5427294   8.9660589  39.8344876 102.2577721  10.2388511
  40.3344730 102.1553018   9.6427601  34.5165143  93.8221376   4.0014622
  35.2607188  94.2095653   4.2397572  34.6625840  92.9778802   4.1655110
  34.6475729  93.7551849   4.0608592  36.4344719  85.6171635   9.0346484
  35.5880764  85.7894443   8.9087833  36.4315851  84.8120979   9.3712312
  36.3091869  85.5232664   9.0657611  37.5043019  89.3946850   9.9008541
  37.0302974  88.8688612  10.4113852  37.8761155  88.8476322   9.3323403
  37.4892908  89.2362846   9.8923689  27.8816049  91.3918356  15.2692087
  28.7441663  91.2914065  15.1829417  27.5507832  90.8113066  14.7077659
  27.9601246  91.2909983  15.1737493  43.7679750  94.4549225  11.3115322
  43.5277973  93.6155640  11.3157748  44.2471757  94.5349392  12.0356096
  43.8031934  94.3430625  11.4190124  39.4326519  90.2883404   2.9634295
  38.9049538  90.3712148   2.2740004  39.8922227  91.0301276   2.9598940
  39.4228369  90.4104067   2.8608990  45.7684937  91.2350682   9.2644581
  45.5294707  91.1946517   8.4265366  45.9318838  92.0821834   9.3910302
  45.7575240  91.3542767   9.1598063  42.3730967  95.6200632  15.1949626
  43.0965166  95.1673158  15.0160646  42.1080929  95.9005297  14.4121954
  42.4412240  95.5951600  15.0528342  31.2417835  90.2160805  11.9302505
  30.6170906  90.2279197  11.3228458  30.9063430  90.6920980  12.5793746
  31.1003327  90.2879322  11.9359074  27.9543511  98.2761265  13.3706270
  27.4243436  97.5853704  13.4201244  28.2268604  98.2671451  12.5418978
  27.9168233  98.1728397  13.2553686  38.1549757  95.7184510  13.3444641
  37.5406750  95.1742560  13.6393277  38.6717042  95.2048746  12.8650457
  38.1405419  95.5620919  13.3168870  37.3946054  96.7888780  11.0788940
  36.9673662  96.1638499  10.6454375  37.3870998  96.5063702  11.9047947
  37.3305195  96.6541561  11.1368768  30.5108581  91.8253953  14.1477374
  30.6702068  91.0697277  14.5529096  30.3301474  92.3744893  14.8018112
  30.5073940  91.7947767  14.3040080  38.4528884  83.9915189  14.7028163
  37.9569445  84.1878863  14.0119730  39.2097946  84.3907857  14.5316965
  38.4915709  84.0792922  14.5748300  35.7231763  87.6657535  11.2931474
  35.7474251  87.1317647  10.6044254  35.9743237  87.1574843  11.9557065
  35.7641682  87.5118439  11.2896119  32.0033086  86.3928353  10.6737218
  32.0431457  86.8937559  11.3871926  31.1782750  86.4838746  10.4043141
  31.8872612  86.4810169  10.7387757  34.1862699  95.9589093  18.7757513
  33.3358329  96.0960807  18.9115158  34.3490826  95.2252871  19.2205215
  34.0846562  95.8703194  18.8613112  33.4247449  92.9088863  12.9711117
  32.5939379  93.0762681  12.7646365  33.3698966  92.5324813  13.7560003
  33.2936864  92.8778594  13.0559645  31.2331232  86.3997756  18.6067528
  31.8583936  85.8559888  18.8796960  30.7781712  85.9192673  18.0375318
  31.2579493  86.2487237  18.5629122  31.7983493  91.1844454   3.5001235
  31.9386454  91.6816918   4.2029876  32.2966026  90.4830749   3.6415449
  31.8924574  91.1546433   3.6252814  44.8066281  94.5827043  13.6980176
  45.3984121  95.2224293  13.7298374  45.2425276  93.8850079  13.9872243
  44.9584712  94.5745393  13.7461009  33.4062698  87.9825541   0.8039254
  33.7278539  87.5028623   0.1498516  33.6689642  88.7925187   0.6130065
  33.4928724  88.0315439   0.6794746  36.6359671  99.0044415  14.3238070
  36.1284762  99.5580262  14.7678700  36.3386317  99.0652705  13.5056844
  36.5164556  99.0950726  14.2686527  38.8021853  87.3697735  13.1662733
  39.2276925  86.9170261  12.5546259  38.1878846  86.8157805  13.4427520
  38.7750498  87.2211711  13.1167758  37.2416076  83.8412834   6.5753310
  36.5984394  83.6910481   7.1438448  36.9015483  83.5955180   5.8102415
  37.0961153  83.7824957   6.5456325  41.8315422  91.7972261   5.9983318
  41.1606612  92.3401963   5.8696384  42.5255173  92.2667117   5.7565013
  41.8344290  91.9470532   5.9438846  35.8802156 103.9368973  11.2295077
  35.6567811 103.1787802  11.5979103  35.3911999 103.9666994  10.5075516
  35.7745605 103.8291198  11.1771818  41.9943550  88.2528145   8.9073692
  42.3471160  87.8257868   9.5819490  41.1358351  88.1678988   9.0374768
  41.9192995  88.1772885   9.0268702  30.6927235  90.8835665   6.9656538
  29.9739224  91.2999797   7.2329402  31.0639597  91.4489903   6.4148176
  30.6419167  91.0284946   6.9239345  39.9926816  91.5163513  12.8558534
  39.9724743  91.3346809  13.7093313  40.0406016  92.3875532  12.8318118
  39.9961457  91.6180052  12.9781829  37.9373146  98.1050705  18.7807011
  37.8969000  97.4600382  18.1952166  38.7496464  98.0487323  19.0932423
  38.0516299  98.0009672  18.7403960  34.5280613 104.1569431   8.6832161
  34.1141012 103.4943562   8.2936003  35.2127987 104.3047290   8.1627856
  34.5678985 104.0810089   8.5488659  37.8945907 103.3159517   9.4355778
  37.4962190 103.4261787   8.6676598  37.2797127 103.5241583  10.0182338
  37.7444797 103.3633085   9.4087077  36.4673809  89.9233664   2.3029918
  35.8738649  90.2450661   1.7514485  36.5049087  89.0774760   2.0951024
  36.3848198  89.8457993   2.1912689  43.4267610  83.3746557   9.8358004
  42.9198475  82.6675696   9.7679182  44.2235044  83.0439746   9.9659081
  43.4694849  83.2219708   9.8456999  39.3431626  89.8813169   5.7331668
  39.1145319  89.9045870   4.8910026  39.6029702  89.0570636   5.8526678
  39.3477814  89.7629249   5.6256866  33.6250854  91.7347642  15.3356768
  33.1129757  91.1268825  15.6941800  33.4530350  92.4504235  15.8030744
  33.5240491  91.7510941  15.4572992  28.4716569  90.1785217  17.9859130
  28.3019159  90.8386592  17.4407337  28.0282519  90.3891779  18.7071619
  28.3815903  90.3071199  18.0120759  32.3976388  88.4189715   7.0285864
  32.8733755  88.7806795   6.3936045  31.8964988  89.0746183   7.3086006
  32.3941747  88.5683904   6.9762605  45.6287750  97.8911483   2.8198869
  46.0121356  98.6402839   3.0496966  44.8331863  98.1377303   2.5610858
  45.5681532  98.0381177   2.8156442  37.5019925  89.6571887  17.7759024
  38.0591355  89.4285696  17.1437489  37.1780990  90.4177552  17.4994236
  37.5366335  89.7355723  17.6415521  25.3718633  93.0832083  13.2447620
  24.8245353  92.4132728  13.3628488  26.1611012  92.7161931  13.3091087
  25.4070817  92.9297069  13.2716320  35.2203042  92.7439540  18.7411031
  35.9714369  93.0591217  19.0550585  35.4125618  92.5418711  17.9144953
  35.3594456  92.7606922  18.6654427  42.0688332  88.8713106   5.9834826
  42.0682558  88.7161763   6.8419103  41.8644512  89.7176093   5.9276212
  42.0388110  88.9733727   6.1022766  24.1305603  92.2952891  10.3993643
  23.9527364  91.8429500  11.1248558  23.8424625  93.0979052  10.5832120
  24.0618556  92.3475448  10.5337146  39.7929184  93.5510608   9.6371033
  40.2882849  92.8333603   9.5975053  38.9828960  93.2481406   9.5225520
  39.7473077  93.4008254   9.6144759  41.8581003  96.3014296  12.3248162
  42.2836074  95.7788717  11.7718587  41.4937923  96.8995133  11.8036785
  41.8667605  96.3124523  12.1657172  31.4935083 104.5978513  11.0845507
  31.8081642 105.4114901  11.0923289  31.9028496 104.2128732  11.7527667
  31.6003181 104.6607215  11.1849599  38.4459602 100.0148560   8.6549319
  38.9170781 100.7288822   8.8239305  38.7819781  99.4147310   9.1909189
  38.5654717 100.0320024   8.7581695  40.5336587 101.6249873  20.8341391
  40.6433552 100.8358434  21.1898139  40.8627484 101.5355809  20.0315730
  40.5988993 101.4955726  20.7683782  35.3629097  84.7876030  15.6107414
  35.4957003  83.9907024  15.9388390  35.7474250  85.3142433  16.1905690
  35.4385426  84.7475947  15.7450917  39.0833549  99.8066494  15.4177012
  38.5354495  99.1824378  15.1497077  39.5446577  99.9960766  14.7021091
  39.0700758  99.7425544  15.2727443  38.4361452  81.7106356  12.2088507
  37.6307416  81.6004086  12.5256346  38.3068188  81.8118812  11.3518373
  38.2981585  81.7090027  12.1296548  41.8927413  87.8751848  12.8028204
  41.3090402  88.3761055  12.3905772  42.2131707  87.3681405  12.1692528
  41.8540588  87.8743683  12.6486712  34.4322212  86.7892443   3.0786879
  35.2537907  86.9590756   2.8368574  33.9691863  86.9439704   2.3553177
  34.4853374  86.8374176   2.9358523  33.0217544  84.7835205  13.8585308
  33.5661957  84.4426332  14.4489650  33.0754480  85.6420667  14.0006592
  33.1106663  84.8590465  13.9667181  28.8348103  98.5451621  10.7324116
  29.4392960  98.5047456  10.1037937  28.6275415  99.3922773  10.7628172
  28.8937000  98.6639624  10.6440232  38.6491875 100.8117567  11.9486353
  39.4690249 100.6680533  12.2102648  38.3685953 101.4363765  12.4902791
  38.7288618 100.8827919  12.0674293  48.3205210 107.5558069   9.6682160
  47.4643106 107.7166568   9.7191277  48.3672864 106.6850133   9.6887221
  48.2004322 107.4508871   9.6788226  51.6298927 113.8244595  19.2742616
  52.3365694 113.3296626  19.4029551  51.8186862 114.2653676  18.5445274
  51.7626832 113.8162945  19.1851662  51.1657031 109.6150113  12.3113812
  51.7112991 110.2935200  12.3707781  51.1073908 109.4737574  11.4515393
  51.2372946 109.6942115  12.1925872  39.7786238 105.2945197  10.2218805
  39.1591269 104.7037844  10.0528820  39.6770101 105.8856632   9.5883129
  39.6723913 105.2949279  10.1023795  39.5055371 108.8397478  12.4662374
  39.3814068 109.4259924  13.1012193  40.1573655 108.3457674  12.7674649
  39.5829020 108.8536283  12.6048304  44.5313712 112.0159195  11.7449885
  45.1762714 111.5231638  11.4260834  44.7715489 112.1583982  12.5715964
  44.6624297 111.9636637  11.8199419  47.0699803 114.8614101  11.3956778
  47.3523046 114.0665507  11.1743534  47.7985964 115.3394688  11.4161839
  47.2189367 114.8148698  11.3659793  45.0480997 102.4037135   8.6372543
  44.7184327 102.8548279   7.9676242  44.3725999 102.3253298   9.1845550
  44.8991433 102.4588270   8.6195766  52.2557405  98.3922658   6.8822154
  51.9410846  99.0826136   7.3142576  51.7384346  98.3367440   6.1807654
  52.1321875  98.4857546   6.8419103  45.1127629 116.7977317  11.2040518
  44.5954571 116.4384732  10.6001826  45.8102020 116.2739492  11.2146584
  45.1393210 116.6675005  11.1170777  48.7691221 117.2472131  17.1656691
  48.8574567 117.0598272  18.0134902  49.1980934 116.6009561  16.7661538
  48.8453323 117.1235139  17.2328443  46.3361681 116.5303291  16.1474354
  45.7732516 116.1175901  16.6714015  47.0982704 116.4556197  16.5667497
  46.3656129 116.4580692  16.2867354  43.2536951 100.4649423   4.1195491
  44.0082919 100.8327740   3.8812541  43.0764486 100.8388978   4.8874670
  43.3391430 100.5747611   4.1980379  56.5471850 106.6143864  12.1643030
  55.7100271 106.6846051  12.3990625  56.5160081 106.6168359  11.2917333
  56.4190132 106.6254091  12.0702578  42.9436579 108.7576900  17.8791399
  43.1157083 108.6482794  18.7276680  43.4805936 109.4031305  17.6422591
  43.0481583 108.8368901  17.9696496  41.8461151 115.1308540  12.5609897
  42.3859376 114.9879671  13.2313270  41.1631097 115.5305291  12.9293924
  41.8253305 115.1688211  12.7144319  47.2893735  99.8746153   3.8522628
  48.0179895  99.6962108   3.4060784  47.3788628 100.7164233   4.0629806
  47.4100397  99.9730031   3.8176145  48.8811280 116.6781151  19.8300475
  49.6651697 116.7911998  20.1956217  48.6807875 115.8522288  20.0259161
  48.9677306 116.5727870  19.9134861  37.2498296 111.3508831  12.7144319
  36.9836711 110.5347947  12.8735309  37.2636860 111.3961986  11.8439834
  37.2123018 111.2365735  12.6097801  54.2279690 101.6786645  10.7486753
  54.8705598 101.7484750  11.3348668  54.4802710 101.0115868  10.2466294
  54.3601822 101.5912994  10.7614032  41.9996902 104.8887209  15.3611327
  41.3068699 104.4184189  15.6072058  42.6157230 104.6625513  15.9353034
  41.9881432 104.7854341  15.4820479  49.0381674 118.5891253  13.4766931
  48.2396919 118.3490753  13.7340799  49.4867685 118.6405645  14.2233978
  48.9856285 118.5613644  13.6251855  40.7237461 108.8552613  16.5038172
  41.4477433 108.8405644  16.9903066  40.8253598 109.5647968  16.0060140
  40.8455670 108.9577316  16.5016959  48.0982411 112.3351697  21.3687119
  47.3055391 112.6495209  21.5539738  48.2131338 112.5503166  20.5307903
  47.9977821 112.4135534  21.2725453  49.0266203 112.2371901  16.3072415
  49.6005065 111.5999145  16.4620979  48.9481007 112.2375984  15.4382073
  49.0999438 112.1437013  16.2018826  37.6262620 109.0161111  10.1455130
  38.2036122 108.8797561  10.7847375  36.9276682 108.5596895  10.4000714
  37.6083641 108.9283377  10.2777419  44.3829922 110.6695166   8.3593613
  44.1249166 109.8366901   8.3324912  44.4378405 110.8952779   7.5186113
  44.3529700 110.5792938   8.2313750  49.4630972 102.7723617   8.4597706
  48.7587299 102.2832803   8.6181625  49.5115946 102.7846091   7.5886150
  49.3661024 102.7013265   8.3537045  43.3564634 108.2232929   8.8458508
  42.7814225 108.3825097   9.4822469  42.9800310 107.5868338   8.3826958
  43.2167446 108.1530742   8.8713066  47.0237923 106.6956278  13.7050886
  46.6352356 106.2710496  13.0503077  46.3592621 106.9438428  14.2127913
  46.8684851 106.6694999  13.6838754  50.8464284 100.3930907  11.2174870
  51.2274796  99.7109078  11.6042744  50.0427569 100.1040509  11.0350535
  50.7840746 100.2497955  11.2478926  54.3486351 113.6080879  16.3157269
  54.1124989 112.7768944  16.1969329  54.9929580 113.5566486  16.9012113
  54.4081022 113.4778567  16.3843162  44.8056125 102.8985105  21.0837479
  44.4909566 103.6684668  20.8207041  44.4846057 102.3355361  20.4989706
  44.7115044 102.9295374  20.9578829  55.3722772 113.3925328  12.3785563
  55.0668589 114.1253384  12.7398879  54.6528988 112.9863257  12.0978349
  55.2210114 113.4407061  12.3898700  42.3588022 101.2875627   6.6983675
  41.4910447 101.3598226   6.7641284  42.6463226 102.0897706   6.8871650
  42.2727770 101.4169774   6.7358442  51.4820910 101.4353486  15.0294997
  52.2274502 101.2463296  14.6158422  51.0658215 101.9611724  14.4708853
  51.5305885 101.4855631  14.8859570  45.5105572 112.6401312  14.5260395
  45.0117266 113.3517079  14.6045284  46.3205796 112.9601978  14.4878558
  45.5561679 112.7928160  14.5316964  41.7733690 111.9024265   8.7723116
  41.4846938 111.2761736   9.3068843  42.6417038 111.8444552   8.8387797
  41.8593942 111.8011809   8.8614071  52.5611588 107.0459048   9.0905098
  52.2176353 106.3249383   9.4412348  52.6604630 106.8372899   8.2483456
  52.5253630 106.9083251   9.0176778  44.4372630 105.4982356  19.8222694
  43.6272406 105.8040136  19.7112536  44.9147317 106.2187938  19.9375278
  44.3876109 105.6496957  19.8229765  43.2964190 114.7128077  10.0705597
  42.7744943 114.8528369  10.7557461  43.6838210 113.9538741  10.2607714
  43.2767891 114.6213601  10.2006673  40.2855374 104.7633886   4.1400551
  39.9980170 104.3935156   3.4032499  40.9725842 105.2328741   3.8784256
  40.3444271 104.7780855   3.9915627  43.1209045 108.6286834   5.5867956
  43.8431697 108.7927992   5.1271762  42.6417038 109.3496499   5.4807296
  43.1572776 108.7585064   5.5033570  51.0802553 104.9650633  10.9664641
  50.2413654 104.9911912  10.7302904  51.1506920 105.6121368  11.5469988
  50.9670946 105.0646759  11.0173758  40.7716662 111.0344906  14.6922096
  41.2837759 111.3129160  14.0430856  40.4853005 111.7734201  15.0584909
  40.8051525 111.1847260  14.6511974  49.5271831 101.8636010   5.6992257
  50.2298184 101.6643758   5.2212215  49.2616020 101.0911952   6.0061100
  49.5918464 101.7198976   5.6737698  44.2900387 103.1271295  14.7523137
  44.0983584 103.1426430  15.6022561  45.1398983 103.3234969  14.7289792
  44.3876109 103.1585646  14.8746432  38.6747300 105.6562277  12.7306954
  38.5332792 104.8046217  12.8551462  38.9587864 105.6990937  11.9069160
  38.6955147 105.5362027  12.6274578  48.8285893 107.4929367   6.8751442
  48.5820607 107.4125118   7.7088231  49.1571016 106.7082835   6.6813970
  48.8407136 107.3655632   6.9698965  51.0612027 110.5009101  16.9160605
  51.0560065 109.6288918  16.9203032  51.7673021 110.6997271  16.4430061
  51.1657031 110.4012976  16.8467640  44.7882920 110.2286085  16.2874425
  44.9326296 110.8087294  15.6517535  45.1358569 110.6062382  16.9924280
  44.8610381 110.3706789  16.2973420  46.9602837 109.4276254  14.0699557
  46.2126152 109.6207268  13.6647835  47.1144363 108.6021473  13.8323678
  46.8725265 109.3341365  13.9744963  43.8610675 118.4188857  13.1535452
  44.0100239 117.8591773  12.5008857  44.6410677 118.4980859  13.5367971
  43.9984769 118.3474423  13.1132401  46.3863976 118.5903500  14.4319943
  46.3107647 117.9212311  14.9870731  46.3153835 119.2921288  14.9460609
  46.3644583 118.5948407  14.5896791  47.2004614 103.3226804  14.9594961
  47.6577229 104.0550779  15.0867753  47.2760943 102.8993270  15.7182216
  47.2795584 103.3684043  15.0896037  39.4437606 103.5692624  16.0484404
  38.9079795 102.9572982  16.3645172  39.5055370 104.1440760  16.7018071
  39.3733238 103.5639552  16.1919831  51.6731940  96.5016680   8.8288804
  51.7915509  96.9593143   8.0956106  51.4994116  95.6961941   8.5425021
  51.6651111  96.4510452   8.6789737  45.0786992 105.3128908  11.8036785
  44.2883067 105.1320368  12.1254120  45.4747615 104.5355861  11.7867079
  45.0203869 105.1716369  11.8489333  47.5924823 107.7889168  16.2860284
  47.5283964 108.6499124  16.1580420  47.7322010 107.4721161  15.4855835
  47.6040293 107.8689334  16.1488496  46.2743917 110.4821307  10.4276486
  45.8506166 110.6825806   9.6915505  46.0988772 109.6350155  10.5400786
  46.1854797 110.3870088  10.3350177  51.9722614 114.5633889  21.8424734
  52.7857479 114.2919038  22.0029867  51.8117580 114.2641429  21.0384930
  52.0692562 114.4788815  21.7470140  49.2494776 105.2467546  14.7820123
  49.4636745 104.6078461  14.2283477  48.6328675 105.6913370  14.3527984
  49.1900105 105.2177690  14.6370554  51.4133864 106.8556612  15.7203430
  50.6010545 106.5482502  15.8016602  51.8723798 106.3755612  16.2846142
  51.3614248 106.7393104  15.8158024  48.6409504  98.3567482   9.7707465
  47.7703062  98.3306203   9.7240775  48.8949845  98.1844674   8.9533311
  48.5503064  98.3277626   9.6427602  48.5087371 108.2616683  20.5032132
  48.9787002 108.8858799  20.8900006  48.5549251 107.5933659  21.0625347
  48.5855247 108.2551363  20.6432203  45.6658645 100.3673710  11.2280936
  45.1497133  99.6753902  11.3532515  45.1052574 101.0344488  11.1743535
  45.5065158 100.3636968  11.2387002  47.7350878 100.9066670  13.0573788
  47.3482631 100.9315702  13.8387318  47.2483815 100.3408349  12.6048305
  47.6063387 100.8262421  13.1061692  51.9843858 115.6240179  17.1147575
  52.6223578 115.1300375  16.7810031  51.3417949 115.5517580  16.5299802
  51.9838084 115.5399188  16.9789930  53.7100858 107.4729325  11.6813491
  53.2828466 107.3855674  10.9261590  53.0726911 107.5807101  12.2668335
  53.5530465 107.4761985  11.6558932  47.4008020  97.7933656  15.3484048
  48.0301138  98.3293956  15.0705119  47.5693883  97.7011015  16.1997614
  47.5185814  97.8595018  15.4332576  47.2021935 102.5804851  17.6210460
  48.0295364 102.3090000  17.6769074  47.2229781 103.3765692  17.9774278
  47.3274785 102.6584605  17.6825643  52.0398114 116.3159988  13.7552932
  52.8290492 115.9649052  13.8755013  52.2141712 117.1296376  13.4929566
  52.1818396 116.3845845  13.7340800  41.7791425 109.7268713  10.8080721
  40.9379431 109.6272588  11.0159614  41.9881433 110.4964194  11.1595041
  41.6856117 109.8260757  10.8908035  39.2566992 107.3488250   8.6365471
  38.8623689 107.4231262   7.8615581  38.7007108 107.7346197   9.1873833
  39.1169804 107.4170025   8.6033131  50.8931938 100.3269544   8.3169350
  51.0981532 100.2591852   9.1626347  50.5658362 101.1328366   8.2490528
  50.8747186 100.4355485   8.4329005  45.5908089 107.6550113  10.0578318
  45.2871227 107.1006101  10.6588726  44.8887510 107.8342323   9.5706352
  45.4424299 107.5994895  10.0748024  44.6474187 104.9650632   4.6223020
  44.9233921 104.2469545   4.2100587  45.2472856 105.5635552   4.4144126
  44.7767451 104.9471003   4.5303781  43.6526440 114.8699833  14.7650416
  43.5446795 114.8801896  15.6312474  43.8622222 115.6954614  14.5755370
  43.6676552 114.9940908  14.8654507  54.1465626 100.8801309   7.7972116
  53.5339940 101.3671711   8.1825847  54.2429801 100.2044800   8.3409767
  54.0703524 100.8519617   7.9350974  41.6700232 112.1212476  12.2272353
  41.0788166 112.7621974  12.1975369  42.4321256 112.5450093  12.2003653
  41.6948493 112.2788314  12.2187501  42.0660855 103.2814474  12.8940371
  42.5262337 103.3553403  13.6315495  42.1116962 104.0795728  12.5440192
  42.1411411 103.4108621  12.9513128  43.7144205 103.9481168  17.4612398
  43.3229770 103.3014516  17.8968176  43.8830068 104.5392604  18.0806654
  43.6815115 103.9395436  17.6175104  57.7890654 111.9518245  13.2249632
  57.8473778 112.4004894  13.9709608  57.1557122 112.3617058  12.7879712
  57.7041949 112.0791980  13.2702180  47.4077303 101.1356943   9.0346484
  46.5613348 101.3079751   8.9087833  47.4048435 100.3306287   9.3712312
  47.2824452 101.0417972   9.0657611  48.4775603 104.9132157   9.9008541
  48.0035557 104.3873920  10.4113852  48.8493739 104.3661630   9.3323403
  48.4625492 104.7548154   9.8923689  38.8548633 106.9103664  15.2692087
  39.7174246 106.8099373  15.1829417  38.5240416 106.3298373  14.7077659
  38.9333829 106.8095291  15.1737493  54.7412333 109.9734533  11.3115322
  54.5010556 109.1340948  11.3157748  55.2204341 110.0534700  12.0356096
  54.7764517 109.8615933  11.4190124  53.3463551 111.1385940  15.1949626
  54.0697750 110.6858466  15.0160646  53.0813513 111.4190605  14.4121954
  53.4144824 111.1136908  15.0528342  42.2150419 105.7346113  11.9302505
  41.5903489 105.7464505  11.3228458  41.8796014 106.2106288  12.5793746
  42.0735911 105.8064630  11.9359074  38.9276095 113.7946573  13.3706270
  38.3976019 113.1039012  13.4201244  39.2001188 113.7856759  12.5418978
  38.8900817 113.6913705  13.2553686  49.1282340 111.2369818  13.3444641
  48.5139333 110.6927868  13.6393277  49.6449625 110.7234054  12.8650457
  49.1138003 111.0806227  13.3168870  48.3678637 112.3074088  11.0788940
  47.9406245 111.6823807  10.6454375  48.3603582 112.0249010  11.9047947
  48.3037778 112.1726869  11.1368768  41.4841164 107.3439261  14.1477374
  41.6434651 106.5882585  14.5529096  41.3034058 107.8930201  14.8018112
  41.4806523 107.3133075  14.3040080  49.4261467  99.5100497  14.7028163
  48.9302029  99.7064171  14.0119730  50.1830529  99.9093165  14.5316965
  49.4648292  99.5978230  14.5748300  46.6964347 103.1842842  11.2931474
  46.7206834 102.6502955  10.6044254  46.9475821 102.6760151  11.9557065
  46.7374266 103.0303746  11.2896119  42.9765669 101.9113661  10.6737218
  43.0164041 102.4122867  11.3871926  42.1515334 102.0024054  10.4043141
  42.8605195 101.9995477  10.7387757  45.1595282 111.4774401  18.7757513
  44.3090913 111.6146115  18.9115158  45.3223410 110.7438179  19.2205215
  45.0579146 111.3888502  18.8613112  44.3980033 108.4274171  12.9711117
  43.5671962 108.5947989  12.7646365  44.3431550 108.0510121  13.7560003
  44.2669447 108.3963902  13.0559645  42.2063816 101.9183063  18.6067528
  42.8316519 101.3745196  18.8796960  41.7514296 101.4377981  18.0375318
  42.2312076 101.7672545  18.5629122  42.7716076 106.7029762   3.5001235
  42.9119038 107.2002226   4.2029876  43.2698609 106.0016056   3.6415449
  42.8657157 106.6731741   3.6252814  55.7798865 110.1012351  13.6980176
  56.3716705 110.7409601  13.7298374  56.2157859 109.4035387  13.9872243
  55.9317296 110.0930701  13.7461009  47.6092254 114.5229723  14.3238070
  47.1017346 115.0765570  14.7678700  47.3118901 114.5838013  13.5056844
  47.4897139 114.6136034  14.2686527  49.7754437 102.8883043  13.1662733
  50.2009508 102.4355569  12.5546259  49.1611430 102.3343113  13.4427520
  49.7483082 102.7397019  13.1167758  48.2148660  99.3598142   6.5753310
  47.5716977  99.2095789   7.1438448  47.8748067  99.1140488   5.8102415
  48.0693737  99.3010265   6.5456325  52.9676133 103.7713453   8.9073692
  53.3203744 103.3443176   9.5819490  52.1090935 103.6864296   9.0374768
  52.8925578 103.6958193   9.0268702  41.6659818 106.4020972   6.9656538
  40.9471808 106.8185105   7.2329402  42.0372181 106.9675211   6.4148176
  41.6151750 106.5470254   6.9239345  50.9659399 107.0348821  12.8558534
  50.9457327 106.8532117  13.7093313  51.0138600 107.9060840  12.8318118
  50.9694040 107.1365360  12.9781829  48.9105729 113.6236013  18.7807011
  48.8701584 112.9785690  18.1952166  49.7229047 113.5672631  19.0932423
  49.0248883 113.5194980  18.7403960  54.4000194  98.8931865   9.8358004
  53.8931058  98.1861004   9.7679182  55.1967627  98.5625053   9.9659081
  54.4427433  98.7405016   9.8456999  44.5983438 107.2532950  15.3356768
  44.0862341 106.6454133  15.6941800  44.4262934 107.9689542  15.8030744
  44.4973075 107.2696249  15.4572992  39.4449153 105.6970525  17.9859130
  39.2751743 106.3571900  17.4407337  39.0015102 105.9077086  18.7071619
  39.3548486 105.8256507  18.0120759  43.3708972 103.9375023   7.0285864
  43.8466338 104.2992103   6.3936045  42.8697572 104.5931491   7.3086006
  43.3674331 104.0869212   6.9762605  48.4752508 105.1757195  17.7759024
  49.0323938 104.9471004  17.1437489  48.1513573 105.9362860  17.4994236
  48.5098918 105.2541031  17.6415521  36.3451217 108.6017391  13.2447620
  35.7977936 107.9318036  13.3628488  37.1343595 108.2347239  13.3091087
  36.3803401 108.4482377  13.2716320  46.1935625 108.2624848  18.7411031
  46.9446952 108.5776525  19.0550585  46.3858202 108.0604019  17.9144953
  46.3327040 108.2792230  18.6654427  35.1038187 107.8138199  10.3993643
  34.9259948 107.3614808  11.1248558  34.8157209 108.6164360  10.5832120
  35.0351140 107.8660756  10.5337146  50.7661768 109.0695916   9.6371033
  51.2615433 108.3518911   9.5975053  49.9561543 108.7666714   9.5225520
  50.7205661 108.9193562   9.6144759  52.8313586 111.8199603  12.3248162
  53.2568658 111.2974025  11.7718587  52.4670506 112.4180441  11.8036785
  52.8400189 111.8309830  12.1657172  51.5069171 117.1435181  20.8341391
  51.6166136 116.3543742  21.1898139  51.8360067 117.0541117  20.0315730
  51.5721576 117.0141034  20.7683782  46.3361681 100.3061338  15.6107414
  46.4689586  99.5092332  15.9388390  46.7206834 100.8327741  16.1905690
  46.4118010 100.2661255  15.7450917  50.0566132 115.3251802  15.4177012
  49.5087078 114.7009685  15.1497077  50.5179161 115.5146074  14.7021091
  50.0433342 115.2610852  15.2727443  49.4094036  97.2291664  12.2088507
  48.6040000  97.1189394  12.5256346  49.2800772  97.3304120  11.3518373
  49.2714169  97.2275334  12.1296548  52.8659997 103.3937156  12.8028204
  52.2822985 103.8946363  12.3905772  53.1864291 102.8866713  12.1692528
  52.8273172 103.3928991  12.6486712  45.4054796 102.3077751   3.0786879
  46.2270490 102.4776064   2.8368574  44.9424447 102.4625012   2.3553177
  45.4585958 102.3559484   2.9358523  43.9950128 100.3020513  13.8585308
  44.5394541  99.9611640  14.4489650  44.0487063 101.1605975  14.0006592
  44.0839247 100.3775773  13.9667181  39.8080686 114.0636929  10.7324116
  40.4125544 114.0232764  10.1037937  39.6007999 114.9108081  10.7628172
  39.8669584 114.1824932  10.6440232  49.6224459 116.3302875  11.9486353
  50.4422832 116.1865841  12.2102648  49.3418536 116.9549073  12.4902791
  49.7021202 116.4013227  12.0674293  52.9729486 120.4072517  15.3611327
  52.2801283 119.9369497  15.6072058  53.5889813 120.1810821  15.9353034
  52.9614016 120.3039649  15.4820479  55.7788708 118.4170413  21.0837479
  55.4642149 119.1869976  20.8207041  55.4578641 117.8540669  20.4989706
  55.6847627 118.4480682  20.9578829  55.4105214 121.0167664  19.8222694
  54.6004989 121.3225444  19.7112536  55.8879900 121.7373246  19.9375278
  55.3608692 121.1682265  19.8229765  50.4170189 119.0877932  16.0484404
  49.8812379 118.4758290  16.3645172  50.4787954 119.6626068  16.7018071
  50.3465822 119.0824860  16.1919831  59.4819955 123.7801991  20.5032132
  59.9519586 124.4044107  20.8900006  59.5281835 123.1118966  21.0625347
  59.5587830 123.7736671  20.6432203  58.3740603 113.3118964  15.3484048
  59.0033721 113.8479264  15.0705119  58.5426466 113.2196323  16.1997614
  58.4918398 113.3780326  15.4332576  58.1754518 118.0990159  17.6210460
  59.0027948 117.8275307  17.6769074  58.1962364 118.8951000  17.9774278
  58.3007368 118.1769913  17.6825643  54.6876789 119.4666476  17.4612398
  54.2962354 118.8199823  17.8968176  54.8562651 120.0577912  18.0806654
  54.6547699 119.4580744  17.6175104  53.1796399 117.4368371  18.6067528
  53.8049103 116.8930504  18.8796960  52.7246879 116.9563289  18.0375318
  53.2044660 117.2857853  18.5629122  50.4181736 121.2155833  17.9859130
  50.2484326 121.8757208  17.4407337  49.9747686 121.4262394  18.7071619
  50.3281070 121.3441815  18.0120759  57.3094264 115.8246646  15.6107414
  57.4422170 115.0277640  15.9388390  57.6939417 116.3513049  16.1905690
  57.3850593 115.7846563  15.7450917  54.9682711 115.8205821  13.8585308
  55.5127124 115.4796948  14.4489650  55.0219647 116.6791283  14.0006592
  55.0571831 115.8961081  13.9667181  29.3784584  59.7252110   6.2082663
  30.0851351  59.2304141   6.3369597  29.5672519  60.1661192   5.4785321
  29.5112489  59.7170461   6.1191708  26.5176878  63.1479647   4.0996738
  26.6060224  62.9605787   4.9474949  26.9466590  62.5017076   3.7001585
  26.5938980  63.0242655   4.1668490  24.0847338  62.4310807   3.0814400
  23.5218172  62.0183417   3.6054062  24.8468361  62.3563712   3.5007544
  24.1141786  62.3588207   3.2207401  26.6296937  62.5788666   6.7640522
  27.4137354  62.6919514   7.1296264  26.4293532  61.7529803   6.9599208
  26.7162963  62.4735385   6.8474908  25.8468067  58.2359213   8.3027166
  25.0541048  58.5502725   8.4879785  25.9616994  58.4510681   7.4647950
  25.7463478  58.3143050   8.2065500  32.0972008  59.5088394   3.2497315
  31.8610645  58.6776459   3.1309376  32.7415237  59.4574001   3.8352160
  32.1566679  59.3786082   3.3183209  24.1349633  64.4911015   1.3659990
  24.0593304  63.8219826   1.9210778  24.0639492  65.1928804   1.8800656
  24.1130239  64.4955923   1.5236838  29.7208270  60.4641405   8.7764781
  30.5343136  60.1926553   8.9369914  29.5603237  60.1648944   7.9724977
  29.8178219  60.3796331   8.6810187  26.2573028  54.1624198   7.4372179
  26.7272659  54.7866315   7.8240053  26.3034908  53.4941174   7.9965394
  26.3340904  54.1558879   7.5772250  29.7329514  61.5247695   4.0487622
  30.3709235  61.0307890   3.7150078  29.0903606  61.4525095   3.4639849
  29.7323741  61.4406703   3.9129977  29.7883771  62.2167503   0.6892979
  30.5776149  61.8656568   0.8095060  29.9627369  63.0303891   0.4269612
  29.9304053  62.2853360   0.6680846  26.6591386  59.5243529   5.7147057
  26.6187241  58.8793206   5.1292213  27.4714704  59.4680146   6.0272469
  26.7734539  59.4202496   5.6744006  29.2554827  63.0442696   7.7681438
  29.3651793  62.2551257   8.1238185  29.5845724  62.9548633   6.9655776
  29.3207233  62.9148549   7.7023829  43.8423766  69.8875242  -8.1530724
  43.8117770  70.7419878  -7.9812454  44.4405114  69.5870534  -7.5944580
  43.9260924  69.9691738  -8.0455921  37.0423451  68.9750893  -3.3977793
  36.1861346  69.1359391  -3.3468676  37.0891104  68.1042957  -3.3772732
  36.9222562  68.8701694  -3.3871727  40.3517167  75.2437418   6.2082663
  41.0583934  74.7489449   6.3369597  40.5405103  75.6846500   5.4785321
  40.4845073  75.2355769   6.1191708  36.4193841  80.8853249  -6.2643903
  36.8033221  81.4540147  -6.8039128  36.3552983  80.1602759  -6.7438087
  36.4667269  80.8628712  -6.4150040  39.8875272  71.0342937  -0.7546142
  40.4331232  71.7128023  -0.6952172  39.8292148  70.8930397  -1.6144560
  39.9591186  71.1134938  -0.8734081  41.6640340  72.4627544  -9.8812414
  41.5479866  73.2135230  -9.4520276  42.4596227  72.2051497  -9.6316327
  41.7644930  72.5362391  -9.7808322  28.2273611  70.2590301  -0.5997579
  28.1032308  70.8452747   0.0352240  28.8791896  69.7650497  -0.2985304
  28.3047261  70.2729106  -0.4611649  33.2531952  73.4352018  -1.3210068
  33.8980955  72.9424462  -1.6399119  33.4933729  73.5776805  -0.4943989
  33.3842537  73.3829461  -1.2460534  35.7918044  76.2806924  -1.6703175
  36.0741286  75.4858330  -1.8916419  36.5204204  76.7587512  -1.6498114
  35.9407607  76.2341521  -1.7000160  45.7736132  75.3866287  -4.6967344
  44.9433835  75.5976930  -4.5333928  45.7245384  74.5603341  -4.9725061
  45.6442867  75.2955893  -4.7129979  33.8345869  78.2170141  -1.8619435
  33.3172811  77.8577556  -2.4658127  34.5320261  77.6932315  -1.8513369
  33.8611451  78.0867829  -1.9489176  37.4909461  78.6664955   4.0996738
  37.5792807  78.4791095   4.9474949  37.9199174  78.0202384   3.7001585
  37.5671564  78.5427962   4.1668490  35.0579921  77.9496115   3.0814400
  34.4950756  77.5368725   3.6054062  35.8200945  77.8749020   3.5007544
  35.0874370  77.8773515   3.2207401  45.2690090  68.0336687  -0.9016923
  44.4318511  68.1038874  -0.6669329  45.2378321  68.0361182  -1.7742621
  45.1408373  68.0446914  -0.9957375  31.6654819  70.1769723   4.8131446
  31.8375323  70.0675617   5.6616727  32.2024177  70.8224128   4.5762638
  31.7699823  70.2561724   4.9036542  30.5679391  76.5501363  -0.5050056
  31.1077616  76.4072494   0.1653316  29.8849337  76.9498114  -0.1366030
  30.5471545  76.5881034  -0.3515634  39.9920276  72.2292364  -5.3105032
  40.7477791  72.6623878  -5.2716123  40.0982600  71.5797133  -4.7370396
  40.1190447  72.1969848  -5.2207006  43.0300447  76.0565641  -4.5602629
  42.5935679  76.0602383  -3.8043657  42.6963363  76.7371140  -4.9923051
  42.9163067  76.1578097  -4.5121796  37.6029521  78.0973974   6.7640522
  38.3869937  78.2104822   7.1296264  37.4026115  77.2715111   6.9599208
  37.6895546  77.9920693   6.8474908  25.9716536  72.7701654  -0.3515634
  25.7054951  71.9540771  -0.1924644  25.9855100  72.8154809  -1.2220119
  25.9341259  72.6558559  -0.4562152  42.9497930  63.0979469  -2.3173201
  43.5923838  63.1677573  -1.7311285  43.2020951  62.4308692  -2.8193659
  43.0820062  63.0105817  -2.3045921  30.7215143  66.3080032   2.2951373
  30.0286939  65.8377012   2.5412105  31.3375470  66.0818337   2.8693080
  30.7099673  66.2047164   2.4160526  37.7599914  80.0084076   0.4106977
  36.9615160  79.7683576   0.6680846  38.2085926  80.0598469   1.1574025
  37.7074525  79.9806467   0.5591902  46.1644793  72.7746561  -5.6682991
  46.8261227  72.2137229  -5.7687083  45.5236205  72.2798592  -5.3430300
  46.1673661  72.6182970  -5.6350651  42.4509624  73.7911943  -5.9271003
  42.6865213  73.9357142  -6.7544152  42.5999188  74.5554351  -5.5339489
  42.5075427  73.9250998  -5.9907399  29.4455702  70.2745436   3.4378219
  30.1695674  70.2598467   3.9243113  29.5471838  70.9840791   2.9400187
  29.5673911  70.3770139   3.4357005  44.2800081  72.6313609  -8.0901399
  44.6108298  73.1641249  -8.6961304  44.8533169  72.6852497  -7.4339448
  44.4133760  72.7183178  -8.0823617  36.8200651  73.7544521   8.3027166
  36.0273632  74.0688033   8.4879785  36.9349578  73.9695989   7.4647950
  36.7196061  73.8328357   8.2065500  39.4931970  70.4778512  -7.4077819
  39.5878824  71.2167806  -6.9538193  38.8690813  70.0495987  -6.9743254
  39.4141000  70.5239832  -7.2769671  37.7484444  73.6564724   3.2412462
  38.3223305  73.0191969   3.3961026  37.6699247  73.6568807   2.3722120
  37.8217679  73.5629836   3.1358873  33.1048162  72.0887990  -4.7066340
  32.8467407  71.2559724  -4.7335041  33.1596645  72.3145603  -5.5473840
  33.0747940  71.9985761  -4.8346204  35.7456163  68.1149101   0.6390933
  35.3570596  67.6903319  -0.0156876  35.0810862  68.3631251   1.1467959
  35.5903091  68.0887822   0.6178801  45.3879432  67.8724106  -6.5861237
  45.1315997  67.0604048  -6.7763354  46.2308746  67.8801673  -6.8131050
  45.4745458  67.7536104  -6.6476420  39.5682525  61.8123730  -1.8485083
  39.9493036  61.1301901  -1.4617209  38.7645809  61.5233332  -2.0309418
  39.5058986  61.6690779  -1.8181027  43.0704592  75.0273702   3.2497315
  42.8343229  74.1961767   3.1309376  43.7147821  74.9759309   3.8352160
  43.1299262  74.8971390   3.3183209  32.7203010  75.8169223  -6.0359948
  33.3576957  75.5780971  -5.4908155  33.1458081  76.0206382  -6.7706788
  32.8779176  75.8120234  -6.0642791  33.5274365  64.3177928   8.0177526
  33.2127806  65.0877491   7.7547088  33.2064298  63.7548184   7.4329752
  33.4333284  64.3488197   7.8918875  44.0941012  74.8118151  -0.6874390
  43.7886829  75.5446208  -0.3261074  43.3747228  74.4056080  -0.9681604
  43.9428354  74.8599884  -0.6761253  35.1024482  76.2941646  -4.3566162
  35.1763490  76.1316818  -3.5024312  35.9193988  76.4831836  -4.6005680
  35.2340840  76.2978388  -4.2668136  49.7942804  71.4511152  -1.3606046
  49.7267305  71.4707111  -2.2303459  49.7798467  72.2941479  -1.1350375
  49.7821561  71.5784886  -1.4553569  40.2039151  62.8546309   1.9635044
  40.9492743  62.6656120   1.5498469  39.7876455  63.3804547   1.4048900
  40.2524125  62.9048455   1.8199617  47.5801422  70.2255538  -3.0859451
  48.1309343  69.5923607  -2.8462359  47.5645537  70.7570931  -2.3943947
  47.6586618  70.2104486  -2.9480593  34.2323813  74.0594135   1.4600442
  33.7335506  74.7709903   1.5385330  35.0424037  74.3794802   1.4218604
  34.2779919  74.2120984   1.4657011  30.4951930  73.3217088  -4.2936837
  30.2065179  72.6954559  -3.7591110  31.3635278  73.2637375  -4.2272157
  30.5812182  73.2204632  -4.2045882  41.2829828  68.4651871  -3.9754855
  40.9394594  67.7442207  -3.6247606  41.3822870  68.2565723  -4.8176497
  41.2471871  68.3276075  -4.0483175  41.7442857  74.9277575  -8.4330867
  42.3100890  75.5870785  -8.5172324  41.0970760  75.2727274  -7.9614465
  41.7321613  75.0759517  -8.3758111  33.1590871  66.9175179   6.7562740
  32.3490646  67.2232959   6.6452583  33.6365557  67.6380762   6.8715324
  33.1094349  67.0689781   6.7569811  32.0182430  76.1320900  -2.9954357
  31.4963184  76.2721192  -2.3102492  32.4056450  75.3731565  -2.8052239
  31.9986131  76.0406424  -2.8653280  38.2149435  77.8716360  -9.0093788
  37.9736111  77.1384220  -9.4166723  38.3950768  78.4203217  -9.6627455
  38.2057059  77.8438751  -9.1663565  39.8020793  66.3843456  -2.0995312
  38.9631894  66.4104735  -2.3357049  39.8725161  67.0314192  -1.5189966
  39.6889187  66.4839582  -2.0486195  29.4934902  72.4537730   1.6262143
  30.0055999  72.7321983   0.9770902  29.2071245  73.1927024   1.9924956
  29.5269766  72.6040083   1.5852021  43.6778317  71.5911443  -4.8134071
  43.5912292  71.7466869  -3.9599292  43.2228797  72.2349518  -5.1874665
  43.5981574  71.7087198  -4.7426964  33.0118628  64.5464118   1.6863184
  32.8201825  64.5619253   2.5362608  33.8617224  64.7427793   1.6629839
  33.1094350  64.5778470   1.8086479  27.3965541  67.0755100  -0.3352999
  27.2551033  66.2239040  -0.2108491  27.6806104  67.1183760  -1.1590793
  27.4173387  66.9554850  -0.4385375  41.4452182  75.6205549  -2.4021730
  41.3066541  76.3186595  -1.8972987  40.6652180  75.4654206  -2.7585548
  41.3095409  75.7005716  -2.3795456  39.7830267  71.9201925   3.8500652
  39.7778306  71.0481741   3.8543078  40.4891261  72.1190094   3.3770108
  39.8875271  71.8205799   3.7807687  33.5101160  71.6478909   3.2214472
  33.6544536  72.2280117   2.5857582  33.8576809  72.0255205   3.9264327
  33.5828622  71.7899613   3.2313467  35.6821078  70.8469077   1.0039604
  34.9344392  71.0400091   0.5987882  35.8362603  70.0214297   0.7663725
  35.5943505  70.7534188   0.9085010  32.5828915  79.8381680   0.0875499
  32.7318479  79.2784596  -0.5651097  33.3628918  79.9173682   0.4708018
  32.7203009  79.7667246   0.0472448  42.9405555  74.9783803 -11.6405231
  42.5612364  74.1920941 -11.6475941  42.2771800  75.5270660 -11.7833586
  42.7864030  74.9428627 -11.6624434  35.1082216  80.0096323   1.3659990
  35.0325887  79.3405134   1.9210778  35.0372075  80.7114111   1.8800656
  35.0862823  80.0141231   1.5236838  35.9222855  64.7419628   1.8935007
  36.3795469  65.4743602   2.0207800  35.9979184  64.3186093   2.6522263
  36.0013825  64.7876866   2.0236084  28.1655846  64.9885447   2.9824451
  27.6298036  64.3765806   3.2985218  28.2273611  65.5633583   3.6358118
  28.0951479  64.9832375   3.1259878  35.7652463  78.5297322  -7.8016404
  36.5302354  78.2606966  -8.1233740  35.6630553  78.0447333  -7.0846342
  35.8633958  78.4186887  -7.7436577  33.8005233  66.7321732  -1.2623169
  33.0101308  66.5513192  -0.9405833  34.1965856  65.9548684  -1.2792874
  33.7422109  66.5909193  -1.2170620  39.1848919  74.3664162  -3.5363723
  38.5093921  74.1349394  -3.0350336  39.1941295  73.7585345  -4.1621618
  39.0867424  74.2423087  -3.5547570  36.3143063  69.2081991   3.2200330
  36.2502204  70.0691947   3.0920467  36.4540251  68.8913984   2.4195882
  36.3258533  69.2882157   3.0828543  41.1865654  77.2229294 -11.3053545
  41.2685491  78.0296280 -11.6292094  41.6715396  77.2425253 -10.5812771
  41.2702812  77.3449957 -11.2466646  34.9962157  71.9014130  -2.6383467
  34.5724406  72.1018629  -3.3744448  34.8207012  71.0542978  -2.5259167
  34.9073038  71.8062912  -2.7309777  34.4973850  83.4164643  -0.1762009
  34.9869781  82.7175432  -0.3586345  33.9258083  83.1188513   0.4114048
  34.4858380  83.2690867  -0.1160969  40.6940854  75.9826712   8.7764781
  41.5075719  75.7111861   8.9369914  40.5335820  75.6834252   7.9724977
  40.7910802  75.8981638   8.6810187  37.9713016  66.6660370   1.7160169
  38.1854985  66.0271284   1.1623523  37.3546915  67.1106193   1.2868031
  37.9118345  66.6370513   1.5710601  39.3817684  79.5879118  -6.8385610
  38.9897476  79.2845833  -7.5562744  39.5370756  80.4248208  -7.0280656
  39.3471274  79.6662955  -6.9729113  40.1352104  68.2749435   2.6543477
  39.3228786  67.9675325   2.7356649  40.5942039  67.7948435   3.2186189
  40.0832489  68.1585927   2.7498071  39.5457359  76.1529107  -6.8979579
  39.1872013  76.3243750  -6.1215547  39.0596069  76.6142312  -7.4551581
  39.4216056  76.2468078  -6.8654310  37.2305611  69.6809506   7.4372179
  37.7005243  70.3051623   7.8240053  37.2767492  69.0126482   7.9965394
  37.3073487  69.6744187   7.5772250  36.4569119  62.3259494  -0.0086165
  36.0700872  62.3508525   0.7727365  35.9702056  61.7601172  -0.4611648
  36.3281627  62.2455245   0.0401739  40.7062098  77.0433003   4.0487622
  41.3441818  76.5493198   3.7150078  40.0636190  76.9710403   3.4639849
  40.7056324  76.9592011   3.9129977  42.4319098  68.8922149  -1.3846463
  42.0046706  68.8048497  -2.1398363  41.7945151  68.9999924  -0.7991619
  42.2748705  68.8954809  -1.4101021  36.1226260  59.2126479   2.2824095
  36.7519378  59.7486779   2.0045165  36.2912123  59.1203838   3.1337661
  36.2404055  59.2787841   2.3672623  35.9240175  63.9997674   4.5550507
  36.7513604  63.7282823   4.6109121  35.9448021  64.7958516   4.9114325
  36.0493025  64.0777428   4.6165690  40.7616355  77.7352811   0.6892979
  41.5508733  77.3841876   0.8095060  40.9359952  78.5489199   0.4269612
  40.9036636  77.8038668   0.6680846  30.5009665  71.1461537  -2.2579233
  29.6597672  71.0465411  -2.0500339  30.7099673  71.9157017  -1.9064912
  30.4074358  71.2453580  -2.1751918  34.3126330  69.0742936  -3.0081635
  34.0089467  68.5198924  -2.4071227  33.6105751  69.2535146  -3.4953601
  34.1642540  69.0187718  -2.9911929  32.3744681  76.2892657   1.6990463
  32.2665036  76.2994719   2.5652521  32.5840462  77.1147437   1.5095416
  32.3894792  76.4133731   1.7994554  30.3918473  73.5405299  -0.8387600
  29.8006406  74.1814797  -0.8684585  31.1539496  73.9642916  -0.8656300
  30.4166733  73.6981137  -0.8472453  30.7879096  64.7007297  -0.1719582
  31.2480577  64.7746226   0.5655542  30.8335202  65.4988551  -0.5219761
  30.8629651  64.8301444  -0.1146826  32.4362445  65.3673992   4.3952445
  32.0448010  64.7207339   4.8308223  32.6048308  65.9585427   5.0146700
  32.4033356  65.3588260   4.5515151  46.5108894  73.3711069   0.1589678
  46.5692018  73.8197717   0.9049655  45.8775362  73.7809882  -0.2780242
  46.4260189  73.4984803   0.2042227  40.1507989  78.9914611  -3.4055575
  39.9527678  79.4805425  -4.0999364  39.5295700  79.1955852  -2.8271442
  40.0295554  79.0931149  -3.4232352  37.1993843  66.3324981  -3.1651412
  36.7253798  65.8066743  -2.6546101  37.5711979  65.7854454  -3.7336550
  37.1843732  66.1740977  -3.1736265  27.5766873  68.3296487   2.2032134
  28.4392486  68.2292197   2.1169464  27.2458656  67.7491197   1.6417706
  27.6552070  68.2288114   2.1077540  43.4630574  71.3927356  -1.7544631
  43.2228797  70.5533772  -1.7502205  43.9422581  71.4727523  -1.0303858
  43.4982758  71.2808756  -1.6469829  45.4635761  68.1728814  -3.8015372
  45.2245531  68.1324648  -4.6394587  45.6269662  69.0199966  -3.6749651
  45.4526064  68.2920899  -3.9061890  42.0681791  72.5578763   2.1289673
  42.7915990  72.1051289   1.9500693  41.8031753  72.8383429   1.3462001
  42.1363064  72.5329731   1.9868388  30.9368659  67.1538936  -1.1357448
  30.3121730  67.1657328  -1.7431495  30.6014254  67.6299112  -0.4866208
  30.7954151  67.2257453  -1.1300879  27.6494335  75.2139397   0.3046317
  27.1194259  74.5231835   0.3541291  27.9219428  75.2049582  -0.5240975
  27.6119057  75.1106528   0.1893733  37.8500580  72.6562641   0.2784688
  37.2357574  72.1120691   0.5733323  38.3667865  72.1426878  -0.2009496
  37.8356243  72.4999050   0.2508917  37.0896878  73.7266911  -1.9871013
  36.6624486  73.1016630  -2.4205578  37.0821822  73.4441833  -1.1612006
  37.0256019  73.5919692  -1.9291186  30.2059405  68.7632084   1.0817421
  30.3652891  68.0075408   1.4869143  30.0252298  69.3123024   1.7358158
  30.2024764  68.7325898   1.2380127  38.1479708  60.9293320   1.6368210
  37.6520269  61.1256994   0.9459777  38.9048770  61.3285988   1.4657012
  38.1866532  61.0171054   1.5088347  35.4182587  64.6035666  -1.7728479
  35.4425075  64.0695778  -2.4615699  35.6694061  64.0952975  -1.1102889
  35.4592506  64.4496570  -1.7763835  33.8813522  72.8967224   5.7097560
  33.0309153  73.0338938   5.8455205  34.0441650  72.1631002   6.1545261
  33.7797386  72.8081325   5.7953159  33.1198273  69.8466994  -0.0948836
  32.2890203  70.0140812  -0.3013588  33.0649790  69.4702945   0.6900049
  32.9887688  69.8156725  -0.0100308  30.9282056  63.3375887   5.5407575
  31.5534760  62.7938020   5.8137007  30.4732536  62.8570804   4.9715365
  30.9530317  63.1865368   5.4969169  44.5017105  71.5205174   0.6320223
  45.0934945  72.1602424   0.6638421  44.9376099  70.8228210   0.9212290
  44.6535536  71.5123524   0.6801055  36.3310495  75.9422546   1.2578117
  35.8235586  76.4958393   1.7018747  36.0337141  76.0030836   0.4396891
  36.2115380  76.0328857   1.2026573  38.4972677  64.3075866   0.1002780
  38.9227749  63.8548392  -0.5113694  37.8829670  63.7535936   0.3767567
  38.4701322  64.1589842   0.0507805  41.5266246  68.7350392  -7.0676635
  40.8557436  69.2780095  -7.1963569  42.2205997  69.2045248  -7.3094940
  41.5295114  68.8848664  -7.1221107  35.5752980  80.8747104  -1.8364876
  35.3518635  80.1165934  -1.4680850  35.0862823  80.9045126  -2.5584437
  35.4696429  80.7669329  -1.8888135  41.6894374  65.1906276  -4.1586261
  42.0421984  64.7635999  -3.4840463  40.8309175  65.1057120  -4.0285185
  41.6143818  65.1151017  -4.0391251  39.6877640  68.4541645  -0.2101419
  39.6675567  68.2724940   0.6433360  39.7356840  69.3253663  -0.2341836
  39.6912281  68.5558183  -0.0878124  37.6323969  75.0428837   5.7147057
  37.5919824  74.3978514   5.1292213  38.4447288  74.9865454   6.0272469
  37.7467123  74.9387803   5.6744006  34.2231437  81.0947562  -4.3827792
  33.8091836  80.4321693  -4.7723950  34.9078811  81.2425421  -4.9032098
  34.2629809  81.0188221  -4.5171295  37.5896731  80.2537648  -3.6304175
  37.1913014  80.3639918  -4.3983355  36.9747951  80.4619714  -3.0477615
  37.4395620  80.3011216  -3.6572876  43.1218434  60.3124688  -3.2301949
  42.6149299  59.6053827  -3.2980771  43.9185868  59.9817877  -3.1000872
  43.1645673  60.1597839  -3.2202954  33.3201678  68.6725773   2.2696815
  32.8080581  68.0646956   2.6281846  33.1481174  69.3882366   2.7370791
  33.2191315  68.6889072   2.3913039  28.1667393  67.1163348   4.9199177
  27.9969983  67.7764723   4.3747383  27.7233343  67.3269910   5.6411666
  28.0766726  67.2449331   4.9460806  45.3238574  74.8289614 -10.2461085
  45.7072180  75.5780971 -10.0162988  44.5282687  75.0755434 -10.5049095
  45.2632356  74.9759308 -10.2503511  37.1970749  66.5950018   4.7099071
  37.7542179  66.3663827   4.0777536  36.8731814  67.3555683   4.4334283
  37.2317159  66.6733854   4.5755568  25.0669457  70.0210214   0.1787667
  24.5196177  69.3510860   0.2968535  25.8561836  69.6540062   0.2431134
  25.1021641  69.8675200   0.2056367  34.9153866  69.6817671   5.6751078
  35.6665193  69.9969348   5.9890632  35.1076442  69.4796842   4.8484999
  35.0545280  69.6985053   5.5994473  39.4880008  70.4888739  -3.4288920
  39.9833673  69.7711734  -3.4684900  38.6779784  70.1859537  -3.5434433
  39.4423901  70.3386385  -3.4515194  41.5531827  73.2392427  -0.7411791
  41.9786898  72.7166849  -1.2941366  41.1888747  73.8373264  -1.2623168
  41.5618429  73.2502654  -0.9002782  31.1885907  81.5356644  -1.9814446
  31.5032466  82.3493033  -1.9736664  31.5979320  81.1506863  -1.3132287
  31.2954005  81.5985347  -1.8810354  38.1410426  76.9526691  -4.4110634
  38.6121604  77.6666954  -4.2420649  38.4770605  76.3525441  -3.8750764
  38.2605541  76.9698155  -4.3078258  40.2287411  78.5628004   7.7681438
  40.3384376  77.7736565   8.1238185  40.5578307  78.4733941   6.9655776
  40.2939817  78.4333857   7.7023829  35.0579921  61.7254162   2.5447461
  35.1907827  60.9285155   2.8728437  35.4425074  62.2520565   3.1245737
  35.1336250  61.6854078   2.6790964  38.7784373  76.7444625   2.3517059
  38.2305319  76.1202509   2.0837124  39.2397401  76.9338897   1.6361138
  38.7651582  76.6803675   2.2067490  41.5878237  64.8129980  -0.2631749
  41.0041226  65.3139186  -0.6754182  41.9082531  64.3059536  -0.8967426
  41.5491412  64.8121815  -0.4173242  32.7168368  61.7213337   0.7925355
  33.2612781  61.3804463   1.3829696  32.7705304  62.5798798   0.9346639
  32.8057487  61.7968596   0.9007228  28.5298927  75.4829753  -2.3335837
  29.1343784  75.4425587  -2.9622017  28.3226239  76.3300905  -2.3031782
  28.5887824  75.6017755  -2.4219721  38.3442699  77.7495698  -1.1173600
  39.1641073  77.6058664  -0.8557305  38.0636777  78.3741897  -0.5757162
  38.4239442  77.8206050  -0.9985661  48.0156034  84.4936200  -3.3977793
  47.1593930  84.6544699  -3.3468676  48.0623688  83.6228264  -3.3772732
  47.8955146  84.3887002  -3.3871727  51.3249751  90.7622726   6.2082663
  52.0316518  90.2674757   6.3369597  51.5137686  91.2031808   5.4785321
  51.4577656  90.7541076   6.1191708  50.8607855  86.5528244  -0.7546142
  51.4063815  87.2313331  -0.6952172  50.8024731  86.4115705  -1.6144560
  50.9323770  86.6320246  -0.8734081  39.4737062  82.2323328  -2.8441148
  38.8542093  81.6415975  -3.0131133  39.3720925  82.8234763  -3.4776825
  39.3674737  82.2327410  -2.9636158  39.2006195  85.7775609  -0.5997579
  39.0764892  86.3638055   0.0352240  39.8524479  85.2835805  -0.2985304
  39.2779844  85.7914414  -0.4611649  44.2264536  88.9537326  -1.3210068
  44.8713538  88.4609769  -1.6399119  44.4666313  89.0962113  -0.4943989
  44.3575121  88.9014769  -1.2460534  46.7650627  91.7992232  -1.6703175
  47.0473870  91.0043638  -1.8916419  47.4936788  92.2772820  -1.6498114
  46.9140191  91.7526829  -1.7000160  44.7431821  79.3415266  -4.4287410
  44.4135151  79.7926410  -5.0983711  44.0676823  79.2631429  -3.8814404
  44.5942257  79.3966401  -4.4464187  51.9508229  75.3300789  -6.1837799
  51.6361670  76.0204268  -5.7517377  51.4335170  75.2745571  -6.8852299
  51.8272699  75.4235678  -6.2240850  44.8078453  93.7355449  -1.8619435
  44.2905395  93.3762864  -2.4658127  45.5052844  93.2117623  -1.8513369
  44.8344034  93.6053137  -1.9489176  48.4642045  94.1850263   4.0996738
  48.5525391  93.9976403   4.9474949  48.8931758  93.5387692   3.7001585
  48.5404147  94.0613270   4.1668490  46.0312505  93.4681423   3.0814400
  45.4683340  93.0554032   3.6054062  46.7933528  93.3934328   3.5007544
  46.0606953  93.3958823   3.2207401  42.9487775  77.4027555  -8.9464462
  43.7033743  77.7705872  -9.1847412  42.7715310  77.7767109  -8.1785283
  43.0342253  77.5125742  -8.8679574  56.2422674  83.5521995  -0.9016923
  55.4051095  83.6224182  -0.6669329  56.2110905  83.5546490  -1.7742621
  56.1140956  83.5632222  -0.9957375  42.6387403  85.6955031   4.8131446
  42.8107907  85.5860925   5.6616727  43.1756760  86.3409436   4.5762638
  42.7432407  85.7747032   4.9036542  41.5411975  92.0686671  -0.5050056
  42.0810200  91.9257802   0.1653316  40.8581921  92.4683422  -0.1366030
  41.5204129  92.1066342  -0.3515634  46.9844559  76.8124284  -9.2137326
  47.7130719  76.6340239  -9.6599169  47.0739452  77.6542364  -9.0030147
  47.1051221  76.9108163  -9.2483808  48.5762104  93.6159282   6.7640522
  49.3602521  93.7290129   7.1296264  48.3758699  92.7900419   6.9599208
  48.6628130  93.5106001   6.8474908  36.9449120  88.2886962  -0.3515634
  36.6787535  87.4726078  -0.1924644  36.9587684  88.3340117  -1.2220119
  36.9073842  88.1743867  -0.4562152  53.9230514  78.6164777  -2.3173201
  54.5656422  78.6862881  -1.7311285  54.1753534  77.9494000  -2.8193659
  54.0552646  78.5291125  -2.3045921  41.6947726  81.8265340   2.2951373
  41.0019523  81.3562320   2.5412105  42.3108053  81.6003645   2.8693080
  41.6832256  81.7232472   2.4160526  48.7332498  95.5269384   0.4106977
  47.9347743  95.2868884   0.6680846  49.1818509  95.5783777   1.1574025
  48.6807109  95.4991775   0.5591902  40.4188285  85.7930744   3.4378219
  41.1428257  85.7783775   3.9243113  40.5204422  86.5026099   2.9400187
  40.5406494  85.8955447   3.4357005  47.7933235  89.2729829   8.3027166
  47.0006215  89.5873340   8.4879785  47.9082162  89.4881297   7.4647950
  47.6928645  89.3513665   8.2065500  48.7217027  89.1750032   3.2412462
  49.2955889  88.5377277   3.3961026  48.6431831  89.1754115   2.3722120
  48.7950262  89.0815144   3.1358873  37.3213444  85.9539242  -2.9204824
  37.8986946  85.8175693  -2.2812578  36.6227505  85.4975026  -2.6659239
  37.3034465  85.8661508  -2.7882534  44.0780746  87.6073298  -4.7066340
  43.8199990  86.7745032  -4.7335041  44.1329229  87.8330911  -5.5473840
  44.0480524  87.5171069  -4.8346204  49.1581796  79.7101748  -4.6062248
  48.4538123  79.2210934  -4.4478329  49.2066770  79.7224223  -5.4773803
  49.0611848  79.6391396  -4.7122908  43.0515458  85.1611060  -4.2201446
  42.4765049  85.3203228  -3.5837485  42.6751134  84.5246469  -4.6832995
  42.9118270  85.0908873  -4.1946887  46.7188747  83.6334409   0.6390933
  46.3303179  83.2088627  -0.0156876  46.0543445  83.8816559   1.1467959
  46.5635675  83.6073130   0.6178801  50.5415108  77.3309038  -1.8485083
  50.9225620  76.6487209  -1.4617209  49.7378393  77.0418640  -2.0309418
  50.4791570  77.1876087  -1.8181027  54.0437175  90.5459010   3.2497315
  53.8075813  89.7147075   3.1309376  54.6880404  90.4944617   3.8352160
  54.1031846  90.4156698   3.3183209  44.5006949  79.8363236   8.0177526
  44.1860390  80.6062799   7.7547088  44.1796881  79.2733492   7.4329752
  44.4065868  79.8673505   7.8918875  55.0673596  90.3303459  -0.6874390
  54.7619413  91.0631516  -0.3261074  54.3479811  89.9241388  -0.9681604
  54.9160938  90.3785192  -0.6761253  42.0538846  78.2253758  -6.3676278
  41.1861271  78.2976357  -6.3018669  42.3414050  79.0275837  -6.1788303
  41.9678594  78.3547905  -6.3301512  51.1771734  78.3731617   1.9635044
  51.9225326  78.1841428   1.5498469  50.7609039  78.8989855   1.4048900
  51.2256709  78.4233763   1.8199617  45.2056396  89.5779443   1.4600442
  44.7068090  90.2895211   1.5385330  46.0156620  89.8980110   1.4218604
  45.2512503  89.7306292   1.4657011  41.4684514  88.8402396  -4.2936837
  41.1797762  88.2139867  -3.7591110  42.3367862  88.7822683  -4.2272157
  41.5544766  88.7389940  -4.2045882  52.2562411  83.9837179  -3.9754855
  51.9127177  83.2627515  -3.6247606  52.3555454  83.7751030  -4.8176497
  52.2204454  83.8461383  -4.0483175  44.1323454  82.4360487   6.7562740
  43.3223230  82.7418267   6.6452583  44.6098141  83.1566070   6.8715324
  44.0826933  82.5875088   6.7569811  42.9915014  91.6506208  -2.9954357
  42.4695767  91.7906500  -2.3102492  43.3789034  90.8916873  -2.8052239
  42.9718715  91.5591732  -2.8653280  39.9806198  81.7012017  -8.9259402
  39.6930993  81.3313287  -9.6627455  40.6676666  82.1706872  -9.1875697
  40.0395095  81.7158986  -9.0744326  42.8159869  85.5664965  -7.4791997
  43.5382521  85.7306123  -7.9388191  42.3367862  86.2874630  -7.5852657
  42.8523600  85.6963195  -7.5626383  50.7753377  81.9028764  -2.0995312
  49.9364478  81.9290043  -2.3357049  50.8457744  82.5499500  -1.5189966
  50.6621770  82.0024890  -2.0486195  40.4667486  87.9723038   1.6262143
  40.9788583  88.2507291   0.9770902  40.1803829  88.7112332   1.9924956
  40.5002349  88.1225391   1.5852021  49.2222655  78.8014141  -7.3667696
  49.9249008  78.6021889  -7.8447738  48.9566844  78.0290083  -7.0598853
  49.2869287  78.6577107  -7.3922255  43.9851211  80.0649426   1.6863184
  43.7934408  80.0804561   2.5362608  44.8349807  80.2613101   1.6629839
  44.0826933  80.0963777   1.8086479  38.3698124  82.5940408  -0.3352999
  38.2283616  81.7424348  -0.2108491  38.6538688  82.6369068  -1.1590793
  38.3905970  82.4740158  -0.4385375  48.5236717  84.4307498  -6.1908511
  48.2771431  84.3503249  -5.3571722  48.8521840  83.6460966  -6.3845984
  48.5357960  84.3033763  -6.0960988  50.7562851  87.4387233   3.8500652
  50.7510889  86.5667049   3.8543078  51.4623845  87.6375402   3.3770108
  50.8607855  87.3391107   3.7807687  44.4833744  87.1664217   3.2214472
  44.6277120  87.7465425   2.5857582  44.8309393  87.5440513   3.9264327
  44.5561205  87.3084921   3.2313467  46.6553661  86.3654385   1.0039604
  45.9076975  86.5585399   0.5987882  46.8095187  85.5399604   0.7663725
  46.5676089  86.2719496   0.9085010  43.5561499  95.3566988   0.0875499
  43.7051063  94.7969904  -0.5651097  44.3361501  95.4358990   0.4708018
  43.6935593  95.2852554   0.0472448  46.0814800  95.5281631   1.3659990
  46.0058471  94.8590442   1.9210778  46.0104659  96.2299419   1.8800656
  46.0595407  95.5326539   1.5236838  46.8955438  80.2604936   1.8935007
  47.3528053  80.9928910   2.0207800  46.9711767  79.8371401   2.6522263
  46.9746408  80.3062174   2.0236084  39.1388430  80.5070755   2.9824451
  38.6030619  79.8951114   3.2985218  39.2006194  81.0818891   3.6358118
  39.0684062  80.5017683   3.1259878  51.3682764  73.4394811  -4.2371150
  51.4866332  73.8971274  -4.9703847  51.1944940  72.6340072  -4.5234932
  51.3601935  73.3888583  -4.3870216  44.7737816  82.2507040  -1.2623169
  43.9833891  82.0698500  -0.9405833  45.1698439  81.4733992  -1.2792874
  44.7154693  82.1094500  -1.2170620  47.2875647  84.7267299   3.2200330
  47.2234788  85.5877255   3.0920467  47.4272834  84.4099292   2.4195882
  47.2991117  84.8067465   3.0828543  45.9694741  87.4199438  -2.6383467
  45.5456990  87.6203937  -3.3744448  45.7939596  86.5728286  -2.5259167
  45.8805621  87.3248219  -2.7309777  45.4706434  98.9349951  -0.1762009
  45.9602364  98.2360740  -0.3586345  44.8990666  98.6373821   0.4114048
  45.4590964  98.7876175  -0.1160969  51.6673438  91.5012020   8.7764781
  52.4808303  91.2297169   8.9369914  51.5068404  91.2019560   7.9724977
  51.7643386  91.4166946   8.6810187  48.9445600  82.1845678   1.7160169
  49.1587569  81.5456592   1.1623523  48.3279499  82.6291501   1.2868031
  48.8850929  82.1555821   1.5710601  51.1084688  83.7934743   2.6543477
  50.2961369  83.4860633   2.7356649  51.5674622  83.3133743   3.2186189
  51.0565072  83.6771235   2.7498071  48.3360328  75.2945613  -3.2952488
  47.4653886  75.2684334  -3.3419178  48.5900669  75.1222805  -4.1126642
  48.2453888  75.2655757  -3.4232351  48.2038195  85.1994814   7.4372179
  48.6737826  85.8236931   7.8240053  48.2500075  84.5311790   7.9965394
  48.2806071  85.1929494   7.5772250  45.3609469  77.3051842  -1.8379017
  44.8447957  76.6132033  -1.7127438  44.8003398  77.9722619  -1.8916419
  45.2015982  77.3015099  -1.8272951  47.4301702  77.8444802  -0.0086165
  47.0433455  77.8693833   0.7727365  46.9434639  77.2786480  -0.4611648
  47.3014211  77.7640553   0.0401739  51.6794682  92.5618311   4.0487622
  52.3174402  92.0678506   3.7150078  51.0368773  92.4895711   3.4639849
  51.6788908  92.4777319   3.9129977  53.4051682  84.4107457  -1.3846463
  52.9779290  84.3233805  -2.1398363  52.7677735  84.5185232  -0.7991619
  53.2481289  84.4140116  -1.4101021  47.0958844  74.7311787   2.2824095
  47.7251962  75.2672087   2.0045165  47.2644707  74.6389146   3.1337661
  47.2136638  74.7973149   2.3672623  46.8972759  79.5182982   4.5550507
  47.7246188  79.2468131   4.6109121  46.9180605  80.3143824   4.9114325
  47.0225609  79.5962736   4.6165690  51.7348938  93.2538119   0.6892979
  52.5241316  92.9027184   0.8095060  51.9092536  94.0674507   0.4269612
  51.8769220  93.3223976   0.6680846  41.4742249  86.6646845  -2.2579233
  40.6330255  86.5650719  -2.0500339  41.6832256  87.4342325  -1.9064912
  41.3806941  86.7638888  -2.1751918  38.9517815  84.2866382  -4.4294482
  38.5574513  84.3609393  -5.2044372  38.3957932  84.6724328  -3.8786120
  38.8120628  84.3548156  -4.4626822  50.5882762  77.2647676  -4.7490603
  50.7932356  77.1969984  -3.9033606  50.2609186  78.0706497  -4.8169426
  50.5698010  77.3733616  -4.6330948  45.2858913  84.5928244  -3.0081635
  44.9822051  84.0384232  -2.4071227  44.5838334  84.7720454  -3.4953601
  45.1375123  84.5373026  -2.9911929  44.3425011  81.9028764  -8.4436933
  44.6184745  81.1847676  -8.8559366  44.9423680  82.5013684  -8.6515827
  44.4718275  81.8849134  -8.5356172  43.3477264  91.8077965   1.6990463
  43.2397619  91.8180027   2.5652521  43.5573046  92.6332745   1.5095416
  43.3627375  91.9319039   1.7994554  53.8416450  77.8179440  -5.2687838
  53.2290764  78.3049842  -4.8834106  53.9380625  77.1422931  -4.7250186
  53.7654348  77.7897749  -5.1308979  47.8435531  79.5742281 -10.1690338
  48.2979278  79.7452841  -9.4442494  48.3175577  78.9610392 -10.5692563
  47.9803851  79.5093166 -10.1216577  41.3651056  89.0590607  -0.8387600
  40.7738990  89.7000105  -0.8684585  42.1272080  89.4828224  -0.8656300
  41.3899317  89.2166445  -0.8472453  41.7611679  80.2192605  -0.1719582
  42.2213161  80.2931534   0.5655542  41.8067786  81.0173859  -0.5219761
  41.8362235  80.3486752  -0.1146826  43.4095029  80.8859300   4.3952445
  43.0180594  80.2392647   4.8308223  43.5780892  81.4770735   5.0146700
  43.3765939  80.8773567   4.5515151  57.4841478  88.8896377   0.1589678
  57.5424602  89.3383025   0.9049655  56.8507946  89.2995189  -0.2780242
  57.3992773  89.0170111   0.2042227  47.1028126  78.0735074  -4.0313470
  46.2564172  78.2457882  -4.1572120  47.0999259  77.2684418  -3.6947641
  46.9775276  77.9796103  -4.0002343  48.1726427  81.8510289  -3.1651412
  47.6986381  81.3252051  -2.6546101  48.5444563  81.3039762  -3.7336550
  48.1576316  81.6926285  -3.1736265  38.5499457  83.8481795   2.2032134
  39.4125070  83.7477505   2.1169464  38.2191240  83.2676505   1.6417706
  38.6284653  83.7473422   2.1077540  54.4363157  86.9112664  -1.7544631
  54.1961380  86.0719080  -1.7502205  54.9155165  86.9912831  -1.0303858
  54.4715341  86.7994064  -1.6469829  56.4368344  83.6914122  -3.8015372
  56.1978114  83.6509956  -4.6394587  56.6002246  84.5385274  -3.6749651
  56.4258648  83.8106207  -3.9061890  53.0414375  88.0764071   2.1289673
  53.7648573  87.6236597   1.9500693  52.7764337  88.3568737   1.3462001
  53.1095648  88.0515039   1.9868388  41.9101243  82.6724244  -1.1357448
  41.2854313  82.6842636  -1.7431495  41.5746838  83.1484420  -0.4866208
  41.7686735  82.7442761  -1.1300879  38.6226919  90.7324704   0.3046317
  38.0926843  90.0417143   0.3541291  38.8952012  90.7234890  -0.5240975
  38.5851641  90.6291836   0.1893733  48.8233164  88.1747949   0.2784688
  48.2090157  87.6305999   0.5733323  49.3400449  87.6612186  -0.2009496
  48.8088827  88.0184358   0.2508917  48.0629461  89.2452219  -1.9871013
  47.6357069  88.6201938  -2.4205578  48.0554406  88.9627141  -1.1612006
  47.9988602  89.1105000  -1.9291186  41.1791988  84.2817392   1.0817421
  41.3385475  83.5260716   1.4869143  40.9984882  84.8308332   1.7358158
  41.1757347  84.2511206   1.2380127  49.1212291  76.4478628   1.6368210
  48.6252853  76.6442302   0.9459777  49.8781353  76.8471296   1.4657012
  49.1599116  76.5356362   1.5088347  46.3915171  80.1220974  -1.7728479
  46.4157658  79.5881086  -2.4615699  46.6426645  79.6138282  -1.1102889
  46.4325090  79.9681878  -1.7763835  42.6716493  78.8491792  -2.3922735
  42.7114865  79.3500998  -1.6788028  41.8466158  78.9402186  -2.6616812
  42.5556019  78.9373608  -2.3272197  44.8546106  88.4152532   5.7097560
  44.0041737  88.5524246   5.8455205  45.0174234  87.6816310   6.1545261
  44.7529970  88.3266633   5.7953159  44.0930857  85.3652302  -0.0948836
  43.2622786  85.5326120  -0.3013588  44.0382374  84.9888253   0.6900049
  43.9620271  85.3342033  -0.0100308  41.9014640  78.8561195   5.5407575
  42.5267343  78.3123327   5.8137007  41.4465120  78.3756112   4.9715365
  41.9262900  78.7050676   5.4969169  42.4666900  83.6407893  -9.5658718
  42.6069861  84.1380358  -8.8630077  42.9649433  82.9394188  -9.4244505
  42.5607981  83.6109872  -9.4407139  55.4749689  87.0390482   0.6320223
  56.0667529  87.6787732   0.6638421  55.9108683  86.3413518   0.9212290
  55.6268120  87.0308832   0.6801055  47.3043078  91.4607854   1.2578117
  46.7968169  92.0143701   1.7018747  47.0069725  91.5216144   0.4396891
  47.1847963  91.5514165   1.2026573  49.4705261  79.8261174   0.1002780
  49.8960332  79.3733700  -0.5113694  48.8562254  79.2721244   0.3767567
  49.4433906  79.6775150   0.0507805  47.9099483  76.2976273  -6.4906643
  47.2667801  76.1473920  -5.9221505  47.5698890  76.0518619  -7.2557539
  47.7644561  76.2388396  -6.5203628  52.6626957  80.7091584  -4.1586261
  53.0154567  80.2821307  -3.4840463  51.8041759  80.6242427  -4.0285185
  52.5876402  80.6336325  -4.0391251  41.3610642  83.3399104  -6.1003415
  40.6422632  83.7563236  -5.8330551  41.7323005  83.9053342  -6.6511777
  41.3102574  83.4848385  -6.1420608  50.6610223  83.9726953  -0.2101419
  50.6408151  83.7910248   0.6433360  50.7089424  84.8438971  -0.2341836
  50.6644864  84.0743491  -0.0878124  48.6056553  90.5614145   5.7147057
  48.5652408  89.9163821   5.1292213  49.4179871  90.5050762   6.0272469
  48.7199707  90.4573111   5.6744006  54.0951017  75.8309996  -3.2301949
  53.5881882  75.1239135  -3.2980771  54.8918451  75.5003185  -3.1000872
  54.1378257  75.6783147  -3.2202954  50.0115033  82.3376608  -7.3328285
  49.7828726  82.3609309  -8.1749927  50.2713110  81.5134075  -7.2133275
  50.0161221  82.2192688  -7.4403088  44.2934262  84.1911081   2.2696815
  43.7813165  83.5832264   2.6281846  44.1213758  84.9067674   2.7370791
  44.1923899  84.2074380   2.3913039  39.1399976  82.6348656   4.9199177
  38.9702567  83.2950031   4.3747383  38.6965926  82.8455218   5.6411666
  39.0499310  82.7634639   4.9460806  43.0659796  80.8753154  -6.0374090
  43.5417162  81.2370234  -6.6723908  42.5648395  81.5309622  -5.7573947
  43.0625155  81.0247343  -6.0897349  48.1703332  82.1135326   4.7099071
  48.7274762  81.8849135   4.0777536  47.8464397  82.8740991   4.4334283
  48.2049742  82.1919162   4.5755568  36.0402041  85.5395522   0.1787667
  35.4928760  84.8696168   0.2968535  36.8294419  85.1725370   0.2431134
  36.0754225  85.3860508   0.2056367  45.8886449  85.2002979   5.6751078
  46.6397776  85.5154656   5.9890632  46.0809026  84.9982150   4.8484999
  46.0277864  85.2170361   5.5994473  52.7371740  81.3276545  -7.0825127
  52.7365966  81.1725202  -6.2240851  52.5327920  82.1739532  -7.1383741
  52.7071517  81.4297166  -6.9637188  34.7989010  84.7516330  -2.6666310
  34.6210772  84.2992939  -1.9411395  34.5108033  85.5542491  -2.4827833
  34.7301964  84.8038888  -2.5322807  50.4612592  86.0074047  -3.4288920
  50.9566257  85.2897042  -3.4684900  49.6512367  85.7044845  -3.5434433
  50.4156485  85.8571693  -3.4515194  52.5264410  88.7577735  -0.7411791
  52.9519482  88.2352156  -1.2941366  52.1621330  89.3558572  -1.2623168
  52.5351013  88.7687962  -0.9002782  42.1618490  97.0541952  -1.9814446
  42.4765049  97.8678341  -1.9736664  42.5711904  96.6692171  -1.3132287
  42.2686588  97.1170654  -1.8810354  51.2019994  94.0813312   7.7681438
  51.3116960  93.2921873   8.1238185  51.5310891  93.9919248   6.9655776
  51.2672400  93.9519165   7.7023829  46.0312505  77.2439469   2.5447461
  46.1640410  76.4470463   2.8728437  46.4157658  77.7705872   3.1245737
  46.1068834  77.2039386   2.6790964  49.7516956  92.2629933   2.3517059
  49.2037902  91.6387817   2.0837124  50.2129985  92.4524205   1.6361138
  49.7384166  92.1988983   2.2067490  49.1044860  74.1669796  -0.8571446
  48.2990824  74.0567525  -0.5403607  48.9751595  74.2682251  -1.7141580
  48.9664993  74.1653466  -0.9363405  52.5610821  80.3315287  -0.2631749
  51.9773809  80.8324494  -0.6754182  52.8815115  79.8244844  -0.8967426
  52.5223996  80.3307123  -0.4173242  45.1005620  79.2455882  -9.9873074
  45.9221314  79.4154195 -10.2291379  44.6375271  79.4003143 -10.7106776
  45.1536782  79.2937615 -10.1301430  43.6900952  77.2398645   0.7925355
  44.2345365  76.8989771   1.3829696  43.7437887  78.0984106   0.9346639
  43.7790071  77.3153904   0.9007228  39.5031510  91.0015061  -2.3335837
  40.1076368  90.9610895  -2.9622017  39.2958823  91.8486213  -2.3031782
  39.5620408  91.1203063  -2.4219721  49.3175283  93.2681006  -1.1173600
  50.1373656  93.1243972  -0.8557305  49.0369360  93.8927205  -0.5757162
  49.3972026  93.3391358  -0.9985661  52.6680310  97.3450648   2.2951373
  51.9752106  96.8747628   2.5412105  53.2840637  97.1188953   2.8693080
  52.6564840  97.2417780   2.4160526  55.4739532  95.3548544   8.0177526
  55.1592973  96.1248107   7.7547088  55.1529465  94.7918800   7.4329752
  55.3798451  95.3858813   7.8918875  55.1056038  97.9545795   6.7562740
  54.2955813  98.2603575   6.6452583  55.5830724  98.6751378   6.8715324
  55.0559516  98.1060396   6.7569811  50.1121013  96.0256063   2.9824451
  49.5763203  95.4136421   3.2985218  50.1738778  96.6004199   3.6358118
  50.0416646  96.0202991   3.1259878  59.1770779 100.7180122   7.4372179
  59.6470410 101.3422238   7.8240053  59.2232659 100.0497098   7.9965394
  59.2538654 100.7114802   7.5772250  58.0691427  90.2497095   2.2824095
  58.6984545  90.7857395   2.0045165  58.2377290  90.1574454   3.1337661
  58.1869222  90.3158457   2.3672623  57.8705342  95.0368290   4.5550507
  58.6978772  94.7653439   4.6109121  57.8913188  95.8329131   4.9114325
  57.9958192  95.1148044   4.6165690  54.3827613  96.4044608   4.3952445
  53.9913178  95.7577955   4.8308223  54.5513475  96.9956043   5.0146700
  54.3498523  96.3958875   4.5515151  49.5232041  99.3667103   2.2032134
  50.3857654  99.2662813   2.1169464  49.1923824  98.7861813   1.6417706
  49.6017237  99.2658730   2.1077540  52.8747223  94.3746503   5.5407575
  53.4999927  93.8308635   5.8137007  52.4197703  93.8941420   4.9715365
  52.8995484  94.2235984   5.4969169  50.1132560  98.1533964   4.9199177
  49.9435150  98.8135339   4.3747383  49.6698510  98.3640526   5.6411666
  50.0231894  98.2819946   4.9460806  57.0045088  92.7624777   2.5447461
  57.1372994  91.9655771   2.8728437  57.3890241  93.2891180   3.1245737
  57.0801417  92.7224694   2.6790964  54.6633535  92.7583952   0.7925355
  55.2077948  92.4175079   1.3829696  54.7170471  93.6169414   0.9346639
  54.7522655  92.8339212   0.9007228  51.0200575  67.7000857  -6.8577290
  51.7267342  67.2052888  -6.7290356  51.2088510  68.1409939  -7.5874632
  51.1528480  67.6919208  -6.9468245  48.1592869  71.1228394  -8.9663215
  48.2476215  70.9354534  -8.1185005  48.5882582  70.4765823  -9.3658368
  48.2354971  70.9991402  -8.8991464  45.7263329  70.4059554  -9.9845553
  45.1634164  69.9932164  -9.4605892  46.4884352  70.3312459  -9.5652410
  45.7557777  70.3336954  -9.8452552  48.2712928  70.5537413  -6.3019431
  49.0553345  70.6668261  -5.9363689  48.0709523  69.7278550  -6.1060746
  48.3578954  70.4484132  -6.2185045  48.4283322  72.4647515 -12.6552976
  47.6298567  72.2247015 -12.3979107  48.8769333  72.5161908 -11.9085928
  48.3757933  72.4369906 -12.5068052  47.4884058  66.2107960  -4.7632788
  46.6957039  66.5251472  -4.5780168  47.6032986  66.4259428  -5.6012003
  47.3879469  66.2891797  -4.8594453  53.7387999  67.4837141  -9.8162638
  53.5026636  66.6525206  -9.9350577  54.3831228  67.4322748  -9.2307794
  53.7982670  67.3534829  -9.7476744  45.7765624  72.4659762 -11.6999963
  45.7009295  71.7968573 -11.1449175  45.7055483  73.1677551 -11.1859297
  45.7546231  72.4704670 -11.5423115  45.1657258  75.8728082 -13.2421963
  45.6553188  75.1738871 -13.4246298  44.5941490  75.5751952 -12.6545905
  45.1541788  75.7254306 -13.1820922  51.3624261  68.4390152  -4.2895172
  52.1759127  68.1675300  -4.1290040  51.2019228  68.1397692  -5.0934976
  51.4594210  68.3545078  -4.3849766  47.8989019  62.1372945  -5.6287774
  48.3688650  62.7615062  -5.2419900  47.9450899  61.4689921  -5.0694560
  47.9756895  62.1307626  -5.4887703  51.3745505  69.4996442  -9.0172331
  52.0125226  69.0056637  -9.3509875  50.7319597  69.4273842  -9.6020105
  51.3739732  69.4155450  -9.1529976  51.4299762  70.1916250 -12.3766975
  52.2192140  69.8405315 -12.2564893  51.6043360  71.0052639 -12.6390341
  51.5720044  70.2602107 -12.3979107  44.5496930  65.3530663  -7.3562394
  43.6992561  65.4902377  -7.2204749  44.7125058  64.6194441  -6.9114692
  44.4480794  65.2644764  -7.2706794  48.3007377  67.4992276  -7.3512896
  48.2603232  66.8541953  -7.9367740  49.1130695  67.4428893  -7.0387484
  48.4150531  67.3951243  -7.3915947  50.8970818  71.0191443  -5.2978515
  51.0067784  70.2300004  -4.9421768  51.2261715  70.9297380  -6.1004177
  50.9623224  70.8897296  -5.3636124  49.4467780  69.2008064 -10.7142894
  48.8988726  68.5765948 -10.9822829  49.9080809  69.3902336 -11.4298815
  49.4334990  69.1367114 -10.8592463  53.3070810  78.1518470  -8.2528508
  53.4791314  78.0424364  -7.4043226  53.8440168  78.7972875  -8.4897315
  53.4115814  78.2310472  -8.1623411  52.3631134  74.2828779 -10.7708580
  51.6702930  73.8125759 -10.5247848  52.9791461  74.0567084 -10.1966873
  52.3515664  74.1795911 -10.6499427  55.1690356  72.2926675  -5.0482428
  54.8543797  73.0626238  -5.3112865  54.8480289  71.7296931  -5.6330201
  55.0749275  72.3236944  -5.1741078  54.8006862  74.8923926  -6.3097213
  53.9906637  75.1981706  -6.4207371  55.2781548  75.6129509  -6.1944629
  54.7510340  75.0438528  -6.3090142  54.6534619  72.5212865 -11.3796769
  54.4617816  72.5368000 -10.5297345  55.5033215  72.7176540 -11.4030114
  54.7510341  72.5527217 -11.2573474  49.8071837  72.9634194 -10.0835502
  49.2714027  72.3514553  -9.7674735  49.8689602  73.5382330  -9.4301835
  49.7367470  72.9581122  -9.9400075  58.8721603  77.6558253  -5.6287774
  59.3421234  78.2800370  -5.2419900  58.9183483  76.9875229  -5.0694560
  58.9489478  77.6492934  -5.4887703  57.7642251  67.1875226 -10.7835858
  58.3935369  67.7235526 -11.0614788  57.9328114  67.0952585  -9.9322292
  57.8820046  67.2536589 -10.6987330  57.5656166  71.9746421  -8.5109446
  58.3929596  71.7031570  -8.4550832  57.5864012  72.7707263  -8.1545628
  57.6909016  72.0526175  -8.4494264  54.0778436  73.3422739  -8.6707508
  53.6864002  72.6956086  -8.2351730  54.2464299  73.9334174  -8.0513253
  54.0449347  73.3337007  -8.5144802  49.2182865  76.3045235 -10.8627819
  50.0808478  76.2040944 -10.9490489  48.8874648  75.7239944 -11.4242247
  49.2968061  76.2036861 -10.9582413  52.5698047  71.3124634  -7.5252378
  53.1950751  70.7686767  -7.2522946  52.1148527  70.8319551  -8.0944588
  52.5946308  71.1614115  -7.5690785  49.8083384  75.0912095  -8.1460776
  49.6385974  75.7513470  -8.6912570  49.3649334  75.3018657  -7.4248287
  49.7182718  75.2198078  -8.1199147  56.6995912  69.7002909 -10.5212492
  56.8323818  68.9033902 -10.1931517  57.0841065  70.2269312  -9.9414217
  56.7752241  69.6602825 -10.3868989  54.3584359  69.6962084 -12.2734598
  54.9028772  69.3553210 -11.6830257  54.4121295  70.5547545 -12.1313314
  54.4473479  69.7717343 -12.1652725
 126.1350240 126.1350240 126.1350240 109.4712190 109.4712190 109.4712190
